 120 120   0   0
  0.1318225E+02  0.1330318E-08  0.1629300E-08  0.7994750E-09  0.5000000E-15
  1.000000000000000E-004
  CAR 
 Si and Ge interface calculation         
      7.68810624    -14.83876748  301      4.35010112      1.00000000
    -14.839  0.0000E+00  0.0000E+00  0.0000E+00  0.0000E+00
    -14.764  0.0000E+00  0.0000E+00  0.0000E+00  0.0000E+00
    -14.689  0.0000E+00  0.0000E+00  0.0000E+00  0.0000E+00
    -14.613  0.0000E+00  0.0000E+00  0.0000E+00  0.0000E+00
    -14.538  0.0000E+00  0.0000E+00  0.0000E+00  0.0000E+00
    -14.463  0.0000E+00  0.0000E+00  0.0000E+00  0.0000E+00
    -14.388  0.0000E+00  0.0000E+00  0.0000E+00  0.0000E+00
    -14.313  0.0000E+00  0.0000E+00  0.0000E+00  0.0000E+00
    -14.238  0.0000E+00  0.0000E+00  0.0000E+00  0.0000E+00
    -14.163  0.0000E+00  0.0000E+00  0.0000E+00  0.0000E+00
    -14.088  0.0000E+00  0.0000E+00  0.0000E+00  0.0000E+00
    -14.013  0.0000E+00  0.0000E+00  0.0000E+00  0.0000E+00
    -13.938  0.0000E+00  0.0000E+00  0.0000E+00  0.0000E+00
    -13.863  0.1854E-10  0.1725E-14  0.1392E-11  0.1295E-15
    -13.788  0.4439E+01  0.4415E+01  0.3333E+00  0.3315E+00
    -13.712  0.1094E+02  0.8916E+01  0.1155E+01  0.1003E+01
    -13.637  0.1568E+02  0.1746E+02  0.2333E+01  0.2333E+01
    -13.562  0.5092E-01  0.8292E-03  0.2337E+01  0.2333E+01
    -13.487  0.2608E+02  0.2340E+02  0.4295E+01  0.4091E+01
    -13.412  0.8862E+01  0.1171E+02  0.4999E+01  0.4970E+01
    -13.337  0.1733E+02  0.1467E+02  0.6301E+01  0.6101E+01
    -13.262  0.6931E-01  0.2742E+01  0.6339E+01  0.6333E+01
    -13.187  0.1763E+02  0.1701E+02  0.7663E+01  0.7611E+01
    -13.112  0.1925E+02  0.1553E+02  0.9112E+01  0.8833E+01
    -13.037  0.6481E+01  0.1110E+02  0.9667E+01  0.9666E+01
    -12.962  0.5988E+01  0.1063E+01  0.1012E+02  0.9746E+01
    -12.886  0.1177E+02  0.1669E+02  0.1100E+02  0.1100E+02
    -12.811  0.2222E+02  0.2117E+02  0.1267E+02  0.1259E+02
    -12.736  0.2192E+02  0.2010E+02  0.1432E+02  0.1418E+02
    -12.661  0.8839E+01  0.9445E+01  0.1500E+02  0.1500E+02
    -12.586  0.1901E+02  0.1499E+02  0.1643E+02  0.1613E+02
    -12.511  0.3870E+01  0.7224E+01  0.1672E+02  0.1667E+02
    -12.436  0.1707E+02  0.1773E+02  0.1800E+02  0.1800E+02
    -12.361  0.7628E+01  0.4173E+01  0.1857E+02  0.1831E+02
    -12.286  0.1486E+02  0.1829E+02  0.1978E+02  0.1969E+02
    -12.211  0.3107E+01  0.4163E+01  0.2002E+02  0.2000E+02
    -12.136  0.3185E+02  0.3057E+02  0.2241E+02  0.2230E+02
    -12.060  0.1220E+02  0.1177E+02  0.2333E+02  0.2323E+02
    -11.985  0.8818E+01  0.8876E+01  0.2400E+02  0.2400E+02
    -11.910  0.3015E+01  0.1126E+01  0.2423E+02  0.2408E+02
    -11.835  0.9066E+01  0.7521E+01  0.2491E+02  0.2465E+02
    -11.760  0.6244E-07  0.4670E+01  0.2500E+02  0.2500E+02
    -11.685  0.1247E+02  0.1111E+02  0.2594E+02  0.2583E+02
    -11.610  0.2207E+02  0.2372E+02  0.2766E+02  0.2762E+02
    -11.535  0.4439E+01  0.4439E+01  0.2800E+02  0.2800E+02
    -11.460  0.1259E-05  0.3412E-08  0.2800E+02  0.2800E+02
    -11.385  0.4439E+01  0.4439E+01  0.2833E+02  0.2833E+02
    -11.310  0.8878E+01  0.8874E+01  0.2900E+02  0.2900E+02
    -11.234  0.0000E+00  0.0000E+00  0.2900E+02  0.2900E+02
    -11.159  0.4458E-03  0.5150E-05  0.2900E+02  0.2900E+02
    -11.084  0.1781E+02  0.1744E+02  0.3034E+02  0.3031E+02
    -11.009  0.3538E+02  0.3377E+02  0.3300E+02  0.3287E+02
    -10.934  0.2611E+02  0.2412E+02  0.3496E+02  0.3481E+02
    -10.859  0.7401E+01  0.3216E+01  0.3556E+02  0.3524E+02
    -10.784  0.1323E+02  0.1878E+02  0.3667E+02  0.3665E+02
    -10.709  0.4439E+01  0.4435E+01  0.3700E+02  0.3700E+02
    -10.634  0.8642E+01  0.7236E+01  0.3765E+02  0.3754E+02
    -10.559  0.1384E+02  0.9556E+01  0.3871E+02  0.3838E+02
    -10.484  0.8341E+01  0.1221E+02  0.3933E+02  0.3933E+02
    -10.408  0.1371E+02  0.1333E+02  0.4036E+02  0.4033E+02
    -10.333  0.1874E+02  0.1787E+02  0.4177E+02  0.4168E+02
    -10.258  0.1638E+02  0.1754E+02  0.4300E+02  0.4299E+02
    -10.183  0.7018E+01  0.5004E+01  0.4353E+02  0.4338E+02
    -10.108  0.1069E+02  0.1219E+02  0.4433E+02  0.4433E+02
    -10.033  0.6981E+01  0.3043E+01  0.4486E+02  0.4456E+02
     -9.958  0.7457E+00  0.5839E+01  0.4501E+02  0.4500E+02
     -9.883  0.8702E+01  0.8874E+01  0.4567E+02  0.4567E+02
     -9.808  0.1355E-08  0.2589E-12  0.4567E+02  0.4567E+02
     -9.733  0.8838E+01  0.8051E+01  0.4633E+02  0.4627E+02
     -9.658  0.1285E+02  0.7420E+01  0.4730E+02  0.4687E+02
     -9.582  0.2168E+02  0.2838E+02  0.4900E+02  0.4900E+02
     -9.507  0.6266E+01  0.9565E+00  0.4947E+02  0.4907E+02
     -9.432  0.4203E+02  0.4268E+02  0.5263E+02  0.5228E+02
     -9.357  0.1773E+02  0.2246E+02  0.5400E+02  0.5400E+02
     -9.282  0.1776E+02  0.1762E+02  0.5533E+02  0.5532E+02
     -9.207  0.1447E+02  0.1241E+02  0.5642E+02  0.5627E+02
     -9.132  0.2735E+02  0.2407E+02  0.5848E+02  0.5810E+02
     -9.057  0.2479E+02  0.2804E+02  0.6036E+02  0.6023E+02
     -8.982  0.1374E+02  0.1027E+02  0.6140E+02  0.6106E+02
     -8.907  0.3191E+02  0.3237E+02  0.6381E+02  0.6349E+02
     -8.832  0.2018E+02  0.2435E+02  0.6534E+02  0.6533E+02
     -8.757  0.1466E+02  0.1273E+02  0.6644E+02  0.6629E+02
     -8.681  0.2961E+02  0.3160E+02  0.6867E+02  0.6867E+02
     -8.606  0.1442E+02  0.8820E+01  0.6975E+02  0.6933E+02
     -8.531  0.1642E+02  0.2215E+02  0.7100E+02  0.7100E+02
     -8.456  0.8540E+01  0.6193E+01  0.7164E+02  0.7147E+02
     -8.381  0.2487E+02  0.1995E+02  0.7353E+02  0.7298E+02
     -8.306  0.2566E+02  0.3035E+02  0.7554E+02  0.7527E+02
     -8.231  0.1817E+02  0.1964E+02  0.7692E+02  0.7675E+02
     -8.156  0.1874E+02  0.2105E+02  0.7833E+02  0.7833E+02
     -8.081  0.2209E+02  0.2065E+02  0.7999E+02  0.7988E+02
     -8.006  0.9346E+00  0.6251E+00  0.8007E+02  0.8001E+02
     -7.931  0.2570E+02  0.2649E+02  0.8200E+02  0.8200E+02
     -7.855  0.4439E+01  0.4394E+01  0.8233E+02  0.8233E+02
     -7.780  0.0000E+00  0.0000E+00  0.8233E+02  0.8233E+02
     -7.705  0.7015E-01  0.8579E-03  0.8234E+02  0.8233E+02
     -7.630  0.8808E+01  0.8877E+01  0.8300E+02  0.8300E+02
     -7.555  0.0000E+00  0.0000E+00  0.8300E+02  0.8300E+02
     -7.480  0.3597E+01  0.1548E+01  0.8327E+02  0.8312E+02
     -7.405  0.8846E+01  0.9271E+01  0.8396E+02  0.8381E+02
     -7.330  0.1315E+00  0.2501E+01  0.8401E+02  0.8400E+02
     -7.255  0.6735E+01  0.5683E+01  0.8452E+02  0.8443E+02
     -7.180  0.5434E+01  0.5091E+01  0.8493E+02  0.8481E+02
     -7.105  0.5867E+00  0.2332E+01  0.8500E+02  0.8500E+02
     -7.029  0.2160E+02  0.1857E+02  0.8662E+02  0.8639E+02
     -6.954  0.8747E+01  0.1235E+02  0.8733E+02  0.8733E+02
     -6.879  0.3356E+01  0.3304E+01  0.8759E+02  0.8758E+02
     -6.804  0.1086E+02  0.1024E+02  0.8840E+02  0.8835E+02
     -6.729  0.3537E+01  0.4190E+01  0.8867E+02  0.8867E+02
     -6.654  0.3425E-03  0.1115E-05  0.8867E+02  0.8867E+02
     -6.579  0.9488E+01  0.7378E+01  0.8938E+02  0.8922E+02
     -6.504  0.1352E+02  0.1431E+02  0.9041E+02  0.9030E+02
     -6.429  0.2031E+02  0.1790E+02  0.9197E+02  0.9165E+02
     -6.354  0.2623E+02  0.2642E+02  0.9401E+02  0.9366E+02
     -6.279  0.1564E+02  0.1774E+02  0.9528E+02  0.9500E+02
     -6.203  0.2848E+02  0.2839E+02  0.9744E+02  0.9718E+02
     -6.128  0.3427E+02  0.3149E+02  0.1001E+03  0.9956E+02
     -6.053  0.2189E+02  0.2446E+02  0.1018E+03  0.1015E+03
     -5.978  0.2849E+02  0.2861E+02  0.1039E+03  0.1037E+03
     -5.903  0.2615E+02  0.2562E+02  0.1059E+03  0.1056E+03
     -5.828  0.2380E+02  0.2482E+02  0.1077E+03  0.1075E+03
     -5.753  0.2653E+02  0.2721E+02  0.1098E+03  0.1096E+03
     -5.678  0.2350E+02  0.2413E+02  0.1115E+03  0.1114E+03
     -5.603  0.2126E+02  0.2154E+02  0.1132E+03  0.1131E+03
     -5.528  0.1947E+02  0.1796E+02  0.1146E+03  0.1144E+03
     -5.453  0.3184E+02  0.2830E+02  0.1170E+03  0.1166E+03
     -5.377  0.2985E+02  0.3323E+02  0.1193E+03  0.1191E+03
     -5.302  0.3535E+02  0.3367E+02  0.1220E+03  0.1216E+03
     -5.227  0.2070E+02  0.2446E+02  0.1236E+03  0.1235E+03
     -5.152  0.3165E+02  0.2873E+02  0.1259E+03  0.1256E+03
     -5.077  0.3403E+02  0.3430E+02  0.1285E+03  0.1282E+03
     -5.002  0.3094E+02  0.2973E+02  0.1309E+03  0.1305E+03
     -4.927  0.3342E+02  0.3384E+02  0.1334E+03  0.1330E+03
     -4.852  0.1843E+02  0.2101E+02  0.1348E+03  0.1346E+03
     -4.777  0.3421E+02  0.3301E+02  0.1374E+03  0.1371E+03
     -4.702  0.3225E+02  0.3184E+02  0.1399E+03  0.1395E+03
     -4.627  0.3171E+02  0.3253E+02  0.1423E+03  0.1420E+03
     -4.551  0.2221E+02  0.2272E+02  0.1439E+03  0.1437E+03
     -4.476  0.2361E+02  0.2425E+02  0.1457E+03  0.1456E+03
     -4.401  0.2747E+02  0.2466E+02  0.1478E+03  0.1474E+03
     -4.326  0.2892E+02  0.3077E+02  0.1500E+03  0.1498E+03
     -4.251  0.4029E+02  0.3919E+02  0.1531E+03  0.1528E+03
     -4.176  0.2583E+02  0.2721E+02  0.1551E+03  0.1548E+03
     -4.101  0.3582E+02  0.3476E+02  0.1578E+03  0.1575E+03
     -4.026  0.3871E+02  0.3855E+02  0.1607E+03  0.1604E+03
     -3.951  0.2504E+02  0.2783E+02  0.1626E+03  0.1626E+03
     -3.876  0.2830E+02  0.2335E+02  0.1647E+03  0.1643E+03
     -3.801  0.2621E+02  0.2745E+02  0.1668E+03  0.1664E+03
     -3.726  0.3556E+02  0.3655E+02  0.1695E+03  0.1692E+03
     -3.650  0.2180E+02  0.2220E+02  0.1712E+03  0.1709E+03
     -3.575  0.2510E+02  0.2630E+02  0.1731E+03  0.1729E+03
     -3.500  0.1917E+02  0.2037E+02  0.1746E+03  0.1744E+03
     -3.425  0.2115E+02  0.2248E+02  0.1762E+03  0.1761E+03
     -3.350  0.1489E+02  0.1323E+02  0.1773E+03  0.1771E+03
     -3.275  0.2623E+02  0.2614E+02  0.1793E+03  0.1791E+03
     -3.200  0.2916E+02  0.2835E+02  0.1815E+03  0.1812E+03
     -3.125  0.4154E+02  0.4113E+02  0.1847E+03  0.1843E+03
     -3.050  0.3064E+02  0.3189E+02  0.1871E+03  0.1868E+03
     -2.975  0.2498E+02  0.2690E+02  0.1890E+03  0.1888E+03
     -2.900  0.2144E+02  0.2026E+02  0.1906E+03  0.1903E+03
     -2.824  0.3070E+02  0.2962E+02  0.1930E+03  0.1926E+03
     -2.749  0.3341E+02  0.3294E+02  0.1956E+03  0.1951E+03
     -2.674  0.2271E+02  0.2630E+02  0.1974E+03  0.1971E+03
     -2.599  0.2467E+02  0.2566E+02  0.1992E+03  0.1991E+03
     -2.524  0.3467E+02  0.3378E+02  0.2018E+03  0.2016E+03
     -2.449  0.3541E+02  0.3377E+02  0.2045E+03  0.2042E+03
     -2.374  0.3283E+02  0.3544E+02  0.2071E+03  0.2069E+03
     -2.299  0.2989E+02  0.2799E+02  0.2094E+03  0.2090E+03
     -2.224  0.3736E+02  0.3885E+02  0.2122E+03  0.2120E+03
     -2.149  0.2743E+02  0.2579E+02  0.2143E+03  0.2140E+03
     -2.074  0.3211E+02  0.2728E+02  0.2167E+03  0.2161E+03
     -1.998  0.3110E+02  0.3804E+02  0.2192E+03  0.2189E+03
     -1.923  0.3524E+02  0.3576E+02  0.2219E+03  0.2216E+03
     -1.848  0.3485E+02  0.3314E+02  0.2246E+03  0.2241E+03
     -1.773  0.3383E+02  0.3497E+02  0.2271E+03  0.2268E+03
     -1.698  0.4444E+02  0.4215E+02  0.2305E+03  0.2300E+03
     -1.623  0.2564E+02  0.2689E+02  0.2325E+03  0.2322E+03
     -1.548  0.3913E+02  0.3974E+02  0.2355E+03  0.2352E+03
     -1.473  0.2727E+02  0.2611E+02  0.2376E+03  0.2372E+03
     -1.398  0.2426E+02  0.2592E+02  0.2395E+03  0.2392E+03
     -1.323  0.3570E+02  0.3402E+02  0.2422E+03  0.2417E+03
     -1.248  0.4313E+02  0.4368E+02  0.2455E+03  0.2450E+03
     -1.172  0.5616E+02  0.5379E+02  0.2498E+03  0.2491E+03
     -1.097  0.4314E+02  0.4730E+02  0.2532E+03  0.2528E+03
     -1.022  0.3643E+02  0.3464E+02  0.2560E+03  0.2555E+03
     -0.947  0.2971E+02  0.3368E+02  0.2583E+03  0.2581E+03
     -0.872  0.3316E+02  0.3390E+02  0.2608E+03  0.2606E+03
     -0.797  0.4815E+02  0.4576E+02  0.2645E+03  0.2641E+03
     -0.722  0.4172E+02  0.4335E+02  0.2677E+03  0.2674E+03
     -0.647  0.4452E+02  0.4195E+02  0.2710E+03  0.2706E+03
     -0.572  0.3748E+02  0.3682E+02  0.2739E+03  0.2735E+03
     -0.497  0.5360E+02  0.5383E+02  0.2780E+03  0.2775E+03
     -0.422  0.3131E+02  0.3417E+02  0.2804E+03  0.2802E+03
     -0.346  0.3501E+02  0.3337E+02  0.2830E+03  0.2827E+03
     -0.271  0.3145E+02  0.2971E+02  0.2854E+03  0.2850E+03
     -0.196  0.3258E+02  0.3528E+02  0.2878E+03  0.2876E+03
     -0.121  0.2360E+02  0.2498E+02  0.2897E+03  0.2895E+03
     -0.046  0.2989E+02  0.2797E+02  0.2919E+03  0.2917E+03
      0.029  0.3109E+02  0.2826E+02  0.2942E+03  0.2939E+03
      0.104  0.2402E+02  0.2566E+02  0.2961E+03  0.2959E+03
      0.179  0.3509E+02  0.2923E+02  0.2987E+03  0.2982E+03
      0.254  0.4097E+02  0.4165E+02  0.3018E+03  0.3013E+03
      0.329  0.4725E+02  0.4955E+02  0.3054E+03  0.3051E+03
      0.404  0.3295E+02  0.3326E+02  0.3079E+03  0.3076E+03
      0.480  0.3008E+02  0.2925E+02  0.3102E+03  0.3099E+03
      0.555  0.2990E+02  0.3021E+02  0.3125E+03  0.3122E+03
      0.630  0.4596E+02  0.4332E+02  0.3160E+03  0.3154E+03
      0.705  0.3456E+02  0.3895E+02  0.3187E+03  0.3185E+03
      0.780  0.2935E+02  0.2537E+02  0.3209E+03  0.3204E+03
      0.855  0.3549E+02  0.3657E+02  0.3236E+03  0.3232E+03
      0.930  0.4806E+02  0.4593E+02  0.3273E+03  0.3267E+03
      1.005  0.2438E+02  0.2905E+02  0.3292E+03  0.3289E+03
      1.080  0.4802E+02  0.4236E+02  0.3328E+03  0.3321E+03
      1.155  0.4370E+02  0.5013E+02  0.3363E+03  0.3359E+03
      1.230  0.3874E+02  0.3521E+02  0.3392E+03  0.3387E+03
      1.305  0.3629E+02  0.3873E+02  0.3420E+03  0.3417E+03
      1.381  0.4917E+02  0.4736E+02  0.3457E+03  0.3453E+03
      1.456  0.5187E+02  0.4741E+02  0.3497E+03  0.3490E+03
      1.531  0.3916E+02  0.4321E+02  0.3527E+03  0.3522E+03
      1.606  0.3491E+02  0.3386E+02  0.3553E+03  0.3548E+03
      1.681  0.3675E+02  0.3808E+02  0.3581E+03  0.3577E+03
      1.756  0.3613E+02  0.4036E+02  0.3609E+03  0.3608E+03
      1.831  0.4106E+02  0.3603E+02  0.3640E+03  0.3635E+03
      1.906  0.5853E+02  0.5635E+02  0.3684E+03  0.3678E+03
      1.981  0.5220E+02  0.4791E+02  0.3724E+03  0.3714E+03
      2.056  0.4685E+02  0.5186E+02  0.3760E+03  0.3754E+03
      2.131  0.4582E+02  0.4443E+02  0.3795E+03  0.3787E+03
      2.207  0.4852E+02  0.5144E+02  0.3832E+03  0.3827E+03
      2.282  0.5346E+02  0.4971E+02  0.3873E+03  0.3864E+03
      2.357  0.3864E+02  0.4170E+02  0.3902E+03  0.3896E+03
      2.432  0.4178E+02  0.4286E+02  0.3934E+03  0.3929E+03
      2.507  0.4284E+02  0.4376E+02  0.3966E+03  0.3962E+03
      2.582  0.4332E+02  0.3991E+02  0.3999E+03  0.3992E+03
      2.657  0.4779E+02  0.4823E+02  0.4035E+03  0.4029E+03
      2.732  0.4119E+02  0.4250E+02  0.4066E+03  0.4062E+03
      2.807  0.4089E+02  0.3659E+02  0.4097E+03  0.4089E+03
      2.882  0.5271E+02  0.5722E+02  0.4138E+03  0.4132E+03
      2.957  0.5264E+02  0.5000E+02  0.4177E+03  0.4171E+03
      3.033  0.5408E+02  0.4465E+02  0.4219E+03  0.4205E+03
      3.108  0.4583E+02  0.5310E+02  0.4254E+03  0.4246E+03
      3.183  0.5249E+02  0.5185E+02  0.4294E+03  0.4285E+03
      3.258  0.3619E+02  0.4057E+02  0.4321E+03  0.4316E+03
      3.333  0.3925E+02  0.3757E+02  0.4351E+03  0.4345E+03
      3.408  0.3956E+02  0.3578E+02  0.4382E+03  0.4372E+03
      3.483  0.4237E+02  0.4539E+02  0.4414E+03  0.4407E+03
      3.558  0.4824E+02  0.5186E+02  0.4451E+03  0.4446E+03
      3.633  0.3410E+02  0.3281E+02  0.4477E+03  0.4471E+03
      3.708  0.3995E+02  0.3978E+02  0.4508E+03  0.4502E+03
      3.783  0.4804E+02  0.4606E+02  0.4544E+03  0.4537E+03
      3.859  0.3773E+02  0.3685E+02  0.4572E+03  0.4566E+03
      3.934  0.4576E+02  0.4069E+02  0.4607E+03  0.4596E+03
      4.009  0.3868E+02  0.4168E+02  0.4637E+03  0.4628E+03
      4.084  0.4813E+02  0.4635E+02  0.4674E+03  0.4663E+03
      4.159  0.4768E+02  0.4568E+02  0.4710E+03  0.4697E+03
      4.234  0.4526E+02  0.4105E+02  0.4745E+03  0.4729E+03
      4.309  0.4554E+02  0.5097E+02  0.4780E+03  0.4768E+03
      4.384  0.4936E+02  0.5047E+02  0.4818E+03  0.4806E+03
      4.459  0.5250E+02  0.4585E+02  0.4858E+03  0.4841E+03
      4.534  0.4113E+02  0.5591E+02  0.4891E+03  0.4884E+03
      4.609  0.5005E+02  0.4894E+02  0.4928E+03  0.4921E+03
      4.685  0.5423E+02  0.4770E+02  0.4969E+03  0.4957E+03
      4.760  0.4777E+02  0.4731E+02  0.5006E+03  0.4993E+03
      4.835  0.3438E+02  0.3404E+02  0.5032E+03  0.5019E+03
      4.910  0.3914E+02  0.4829E+02  0.5062E+03  0.5056E+03
      4.985  0.4731E+02  0.4452E+02  0.5098E+03  0.5089E+03
      5.060  0.4004E+02  0.4200E+02  0.5128E+03  0.5121E+03
      5.135  0.3890E+02  0.3744E+02  0.5158E+03  0.5150E+03
      5.210  0.4276E+02  0.4392E+02  0.5190E+03  0.5183E+03
      5.285  0.4771E+02  0.4980E+02  0.5227E+03  0.5221E+03
      5.360  0.4742E+02  0.4434E+02  0.5263E+03  0.5255E+03
      5.435  0.4747E+02  0.4436E+02  0.5298E+03  0.5288E+03
      5.511  0.4639E+02  0.5326E+02  0.5334E+03  0.5329E+03
      5.586  0.3947E+02  0.3756E+02  0.5363E+03  0.5358E+03
      5.661  0.3379E+02  0.3260E+02  0.5389E+03  0.5383E+03
      5.736  0.3727E+02  0.4169E+02  0.5417E+03  0.5414E+03
      5.811  0.5378E+02  0.4520E+02  0.5458E+03  0.5449E+03
      5.886  0.3402E+02  0.3176E+02  0.5484E+03  0.5473E+03
      5.961  0.4414E+02  0.4645E+02  0.5517E+03  0.5508E+03
      6.036  0.3988E+02  0.3975E+02  0.5548E+03  0.5539E+03
      6.111  0.4673E+02  0.4923E+02  0.5583E+03  0.5576E+03
      6.186  0.3933E+02  0.3671E+02  0.5613E+03  0.5604E+03
      6.261  0.4278E+02  0.4467E+02  0.5646E+03  0.5638E+03
      6.336  0.4136E+02  0.4507E+02  0.5677E+03  0.5672E+03
      6.412  0.2763E+02  0.2748E+02  0.5698E+03  0.5693E+03
      6.487  0.3870E+02  0.3910E+02  0.5728E+03  0.5722E+03
      6.562  0.3283E+02  0.3520E+02  0.5753E+03  0.5749E+03
      6.637  0.9454E+01  0.1082E+02  0.5760E+03  0.5758E+03
      6.712  0.0000E+00  0.3189E+01  0.5760E+03  0.5760E+03
      6.787  0.0000E+00  0.0000E+00  0.5760E+03  0.5760E+03
      6.862  0.0000E+00  0.0000E+00  0.5760E+03  0.5760E+03
      6.937  0.0000E+00  0.0000E+00  0.5760E+03  0.5760E+03
      7.012  0.0000E+00  0.0000E+00  0.5760E+03  0.5760E+03
      7.087  0.0000E+00  0.0000E+00  0.5760E+03  0.5760E+03
      7.162  0.0000E+00  0.0000E+00  0.5760E+03  0.5760E+03
      7.238  0.0000E+00  0.0000E+00  0.5760E+03  0.5760E+03
      7.313  0.0000E+00  0.0000E+00  0.5760E+03  0.5760E+03
      7.388  0.0000E+00  0.0000E+00  0.5760E+03  0.5760E+03
      7.463  0.0000E+00  0.0000E+00  0.5760E+03  0.5760E+03
      7.538  0.0000E+00  0.0000E+00  0.5760E+03  0.5760E+03
      7.613  0.0000E+00  0.0000E+00  0.5760E+03  0.5760E+03
      7.688  0.0000E+00  0.0000E+00  0.5760E+03  0.5760E+03
