 264 264   0   0
  0.2774202E+02  0.1958175E-08  0.1958175E-08  0.1910025E-08  0.5000000E-15
  1.000000000000000E-004
  CAR 
 Si and Ge interface calculation         
      6.63809958     -9.01729422  301      4.02921218      1.00000000
     -9.017  0.0000E+00  0.0000E+00  0.0000E+00  0.0000E+00
     -8.965  0.0000E+00  0.0000E+00  0.0000E+00  0.0000E+00
     -8.913  0.0000E+00  0.0000E+00  0.0000E+00  0.0000E+00
     -8.861  0.0000E+00  0.0000E+00  0.0000E+00  0.0000E+00
     -8.809  0.0000E+00  0.0000E+00  0.0000E+00  0.0000E+00
     -8.756  0.0000E+00  0.0000E+00  0.0000E+00  0.0000E+00
     -8.704  0.0000E+00  0.0000E+00  0.0000E+00  0.0000E+00
     -8.652  0.0000E+00  0.0000E+00  0.0000E+00  0.0000E+00
     -8.600  0.0000E+00  0.0000E+00  0.0000E+00  0.0000E+00
     -8.548  0.0000E+00  0.0000E+00  0.0000E+00  0.0000E+00
     -8.495  0.0000E+00  0.0000E+00  0.0000E+00  0.0000E+00
     -8.443  0.0000E+00  0.0000E+00  0.0000E+00  0.0000E+00
     -8.391  0.0000E+00  0.0000E+00  0.0000E+00  0.0000E+00
     -8.339  0.1247E-04  0.3663E-05  0.6510E-06  0.1911E-06
     -8.287  0.9723E+01  0.9605E+01  0.5074E+00  0.5012E+00
     -8.235  0.1895E+02  0.1899E+02  0.1496E+01  0.1492E+01
     -8.182  0.2186E+02  0.2120E+02  0.2637E+01  0.2599E+01
     -8.130  0.1665E+02  0.1733E+02  0.3506E+01  0.3503E+01
     -8.078  0.9457E+01  0.9524E+01  0.4000E+01  0.4000E+01
     -8.026  0.1698E+02  0.1613E+02  0.4886E+01  0.4842E+01
     -7.974  0.2121E+02  0.2193E+02  0.5993E+01  0.5987E+01
     -7.921  0.1784E+02  0.1638E+02  0.6924E+01  0.6841E+01
     -7.869  0.1107E+02  0.1263E+02  0.7501E+01  0.7501E+01
     -7.817  0.2322E+02  0.2181E+02  0.8713E+01  0.8639E+01
     -7.765  0.1517E+02  0.1655E+02  0.9505E+01  0.9502E+01
     -7.713  0.1907E+02  0.1912E+02  0.1050E+02  0.1050E+02
     -7.660  0.1786E+02  0.1719E+02  0.1143E+02  0.1140E+02
     -7.608  0.2125E+02  0.2157E+02  0.1254E+02  0.1252E+02
     -7.556  0.1846E+02  0.1864E+02  0.1350E+02  0.1350E+02
     -7.504  0.2943E+02  0.2928E+02  0.1504E+02  0.1502E+02
     -7.452  0.2014E+02  0.1993E+02  0.1609E+02  0.1606E+02
     -7.400  0.2697E+02  0.2748E+02  0.1750E+02  0.1750E+02
     -7.347  0.5348E+00  0.3048E+00  0.1753E+02  0.1751E+02
     -7.295  0.2688E+02  0.2580E+02  0.1893E+02  0.1886E+02
     -7.243  0.2763E+02  0.2743E+02  0.2037E+02  0.2029E+02
     -7.191  0.4442E+02  0.4410E+02  0.2269E+02  0.2259E+02
     -7.139  0.3987E+02  0.3972E+02  0.2477E+02  0.2466E+02
     -7.086  0.4008E+02  0.4024E+02  0.2686E+02  0.2676E+02
     -7.034  0.3141E+02  0.3326E+02  0.2850E+02  0.2850E+02
     -6.982  0.1912E+02  0.1907E+02  0.2950E+02  0.2949E+02
     -6.930  0.3747E+02  0.3688E+02  0.3145E+02  0.3142E+02
     -6.878  0.3076E+02  0.3011E+02  0.3306E+02  0.3299E+02
     -6.826  0.4225E+02  0.4053E+02  0.3526E+02  0.3511E+02
     -6.773  0.5794E+02  0.5873E+02  0.3829E+02  0.3817E+02
     -6.721  0.4279E+02  0.4307E+02  0.4052E+02  0.4042E+02
     -6.669  0.4274E+02  0.4332E+02  0.4275E+02  0.4268E+02
     -6.617  0.2674E+02  0.2703E+02  0.4414E+02  0.4409E+02
     -6.565  0.6092E+02  0.6091E+02  0.4732E+02  0.4727E+02
     -6.512  0.3011E+02  0.3033E+02  0.4889E+02  0.4885E+02
     -6.460  0.2494E+02  0.2331E+02  0.5020E+02  0.5007E+02
     -6.408  0.5249E+02  0.5399E+02  0.5294E+02  0.5289E+02
     -6.356  0.3225E+02  0.3230E+02  0.5462E+02  0.5457E+02
     -6.304  0.5578E+02  0.5424E+02  0.5753E+02  0.5740E+02
     -6.252  0.5738E+02  0.5831E+02  0.6052E+02  0.6044E+02
     -6.199  0.4460E+02  0.4403E+02  0.6285E+02  0.6274E+02
     -6.147  0.6282E+02  0.6154E+02  0.6613E+02  0.6595E+02
     -6.095  0.7108E+02  0.7148E+02  0.6984E+02  0.6968E+02
     -6.043  0.1029E+03  0.1029E+03  0.7521E+02  0.7505E+02
     -5.991  0.5256E+02  0.5306E+02  0.7795E+02  0.7782E+02
     -5.938  0.7947E+02  0.7887E+02  0.8210E+02  0.8194E+02
     -5.886  0.5022E+02  0.5163E+02  0.8472E+02  0.8463E+02
     -5.834  0.8728E+02  0.8477E+02  0.8928E+02  0.8905E+02
     -5.782  0.8226E+02  0.8272E+02  0.9357E+02  0.9337E+02
     -5.730  0.4601E+02  0.4682E+02  0.9597E+02  0.9581E+02
     -5.677  0.8468E+02  0.8277E+02  0.1004E+03  0.1001E+03
     -5.625  0.8457E+02  0.8686E+02  0.1048E+03  0.1047E+03
     -5.573  0.7731E+02  0.7516E+02  0.1088E+03  0.1086E+03
     -5.521  0.5937E+02  0.6012E+02  0.1119E+03  0.1117E+03
     -5.469  0.7133E+02  0.7048E+02  0.1157E+03  0.1154E+03
     -5.417  0.6813E+02  0.6900E+02  0.1192E+03  0.1190E+03
     -5.364  0.9473E+02  0.9362E+02  0.1242E+03  0.1239E+03
     -5.312  0.8759E+02  0.8975E+02  0.1287E+03  0.1286E+03
     -5.260  0.8324E+02  0.8204E+02  0.1331E+03  0.1329E+03
     -5.208  0.5285E+02  0.5311E+02  0.1358E+03  0.1356E+03
     -5.156  0.6535E+02  0.6562E+02  0.1392E+03  0.1391E+03
     -5.103  0.7394E+02  0.7319E+02  0.1431E+03  0.1429E+03
     -5.051  0.7832E+02  0.7782E+02  0.1472E+03  0.1469E+03
     -4.999  0.5828E+02  0.6075E+02  0.1502E+03  0.1501E+03
     -4.947  0.7379E+02  0.7322E+02  0.1541E+03  0.1539E+03
     -4.895  0.6424E+02  0.6575E+02  0.1574E+03  0.1574E+03
     -4.843  0.9707E+02  0.9262E+02  0.1625E+03  0.1622E+03
     -4.790  0.8619E+02  0.8730E+02  0.1670E+03  0.1667E+03
     -4.738  0.1182E+03  0.1165E+03  0.1732E+03  0.1728E+03
     -4.686  0.1097E+03  0.1091E+03  0.1789E+03  0.1785E+03
     -4.634  0.1139E+03  0.1156E+03  0.1848E+03  0.1845E+03
     -4.582  0.8573E+02  0.8414E+02  0.1893E+03  0.1889E+03
     -4.529  0.9142E+02  0.9045E+02  0.1941E+03  0.1937E+03
     -4.477  0.1226E+03  0.1226E+03  0.2005E+03  0.2001E+03
     -4.425  0.8664E+02  0.8822E+02  0.2050E+03  0.2047E+03
     -4.373  0.9306E+02  0.9134E+02  0.2099E+03  0.2094E+03
     -4.321  0.7831E+02  0.8128E+02  0.2139E+03  0.2137E+03
     -4.268  0.8037E+02  0.8144E+02  0.2181E+03  0.2179E+03
     -4.216  0.7083E+02  0.7109E+02  0.2218E+03  0.2216E+03
     -4.164  0.1006E+03  0.1004E+03  0.2271E+03  0.2269E+03
     -4.112  0.8023E+02  0.8009E+02  0.2313E+03  0.2311E+03
     -4.060  0.6836E+02  0.6952E+02  0.2348E+03  0.2347E+03
     -4.008  0.8628E+02  0.8381E+02  0.2393E+03  0.2391E+03
     -3.955  0.3756E+02  0.4031E+02  0.2413E+03  0.2412E+03
     -3.903  0.3583E+02  0.3372E+02  0.2432E+03  0.2429E+03
     -3.851  0.7188E+02  0.7000E+02  0.2469E+03  0.2466E+03
     -3.799  0.5900E+02  0.6272E+02  0.2500E+03  0.2498E+03
     -3.747  0.3811E+02  0.3649E+02  0.2520E+03  0.2517E+03
     -3.694  0.7699E+02  0.7270E+02  0.2560E+03  0.2555E+03
     -3.642  0.7890E+02  0.8372E+02  0.2601E+03  0.2599E+03
     -3.590  0.6377E+02  0.6212E+02  0.2634E+03  0.2631E+03
     -3.538  0.4257E+02  0.4519E+02  0.2657E+03  0.2655E+03
     -3.486  0.9659E+02  0.9301E+02  0.2707E+03  0.2704E+03
     -3.434  0.6308E+02  0.6519E+02  0.2740E+03  0.2738E+03
     -3.381  0.7907E+02  0.7649E+02  0.2781E+03  0.2778E+03
     -3.329  0.8852E+02  0.9078E+02  0.2827E+03  0.2825E+03
     -3.277  0.7051E+02  0.6933E+02  0.2864E+03  0.2861E+03
     -3.225  0.7536E+02  0.7911E+02  0.2904E+03  0.2902E+03
     -3.173  0.6188E+02  0.5900E+02  0.2936E+03  0.2933E+03
     -3.120  0.8611E+02  0.8670E+02  0.2981E+03  0.2978E+03
     -3.068  0.6975E+02  0.6942E+02  0.3017E+03  0.3015E+03
     -3.016  0.6311E+02  0.6457E+02  0.3050E+03  0.3048E+03
     -2.964  0.7410E+02  0.7158E+02  0.3089E+03  0.3086E+03
     -2.912  0.1180E+03  0.1148E+03  0.3150E+03  0.3146E+03
     -2.860  0.7471E+02  0.7618E+02  0.3189E+03  0.3185E+03
     -2.807  0.8916E+02  0.8823E+02  0.3236E+03  0.3231E+03
     -2.755  0.1194E+03  0.1225E+03  0.3298E+03  0.3295E+03
     -2.703  0.8715E+02  0.8583E+02  0.3344E+03  0.3340E+03
     -2.651  0.1016E+03  0.1023E+03  0.3397E+03  0.3394E+03
     -2.599  0.1138E+03  0.1110E+03  0.3456E+03  0.3451E+03
     -2.546  0.1157E+03  0.1190E+03  0.3516E+03  0.3514E+03
     -2.494  0.1127E+03  0.1108E+03  0.3575E+03  0.3571E+03
     -2.442  0.1013E+03  0.1040E+03  0.3628E+03  0.3626E+03
     -2.390  0.8021E+02  0.7883E+02  0.3670E+03  0.3667E+03
     -2.338  0.1002E+03  0.9819E+02  0.3722E+03  0.3718E+03
     -2.285  0.1014E+03  0.1030E+03  0.3775E+03  0.3772E+03
     -2.233  0.8906E+02  0.9410E+02  0.3822E+03  0.3821E+03
     -2.181  0.3774E+02  0.3816E+02  0.3841E+03  0.3841E+03
     -2.129  0.3837E+02  0.3308E+02  0.3861E+03  0.3858E+03
     -2.077  0.7719E+02  0.7724E+02  0.3902E+03  0.3898E+03
     -2.025  0.7817E+02  0.7787E+02  0.3942E+03  0.3939E+03
     -1.972  0.9363E+02  0.9332E+02  0.3991E+03  0.3988E+03
     -1.920  0.1043E+03  0.1041E+03  0.4046E+03  0.4042E+03
     -1.868  0.7079E+02  0.7568E+02  0.4083E+03  0.4081E+03
     -1.816  0.5906E+02  0.5695E+02  0.4114E+03  0.4111E+03
     -1.764  0.1048E+03  0.1019E+03  0.4168E+03  0.4164E+03
     -1.711  0.9378E+02  0.9821E+02  0.4217E+03  0.4216E+03
     -1.659  0.1042E+03  0.1012E+03  0.4272E+03  0.4268E+03
     -1.607  0.6076E+02  0.6234E+02  0.4303E+03  0.4301E+03
     -1.555  0.1052E+03  0.1039E+03  0.4358E+03  0.4355E+03
     -1.503  0.5037E+02  0.5217E+02  0.4384E+03  0.4382E+03
     -1.451  0.5588E+02  0.5793E+02  0.4414E+03  0.4413E+03
     -1.398  0.6349E+02  0.6133E+02  0.4447E+03  0.4445E+03
     -1.346  0.7466E+02  0.7106E+02  0.4486E+03  0.4482E+03
     -1.294  0.3495E+02  0.4069E+02  0.4504E+03  0.4503E+03
     -1.242  0.6282E+02  0.5958E+02  0.4537E+03  0.4534E+03
     -1.190  0.6042E+02  0.6242E+02  0.4568E+03  0.4567E+03
     -1.137  0.4820E+02  0.4574E+02  0.4593E+03  0.4590E+03
     -1.085  0.3932E+02  0.4324E+02  0.4614E+03  0.4613E+03
     -1.033  0.4946E+02  0.4865E+02  0.4640E+03  0.4638E+03
     -0.981  0.6137E+02  0.6173E+02  0.4672E+03  0.4671E+03
     -0.929  0.2966E+02  0.3047E+02  0.4687E+03  0.4687E+03
     -0.876  0.5556E+02  0.5140E+02  0.4716E+03  0.4713E+03
     -0.824  0.7631E+02  0.7459E+02  0.4756E+03  0.4752E+03
     -0.772  0.5503E+02  0.6018E+02  0.4785E+03  0.4784E+03
     -0.720  0.4304E+02  0.4049E+02  0.4807E+03  0.4805E+03
     -0.668  0.8932E+02  0.8894E+02  0.4854E+03  0.4851E+03
     -0.616  0.4028E+02  0.4446E+02  0.4875E+03  0.4874E+03
     -0.563  0.2862E+02  0.2793E+02  0.4890E+03  0.4889E+03
     -0.511  0.2377E+02  0.2260E+02  0.4902E+03  0.4901E+03
     -0.459  0.2324E+02  0.2304E+02  0.4914E+03  0.4913E+03
     -0.407  0.3558E+02  0.3678E+02  0.4933E+03  0.4932E+03
     -0.355  0.3809E+02  0.3728E+02  0.4953E+03  0.4951E+03
     -0.302  0.7099E+02  0.7028E+02  0.4990E+03  0.4988E+03
     -0.250  0.8310E+02  0.8247E+02  0.5033E+03  0.5031E+03
     -0.198  0.7470E+02  0.7413E+02  0.5072E+03  0.5070E+03
     -0.146  0.1036E+03  0.1028E+03  0.5126E+03  0.5124E+03
     -0.094  0.1046E+03  0.1034E+03  0.5181E+03  0.5177E+03
     -0.042  0.1294E+03  0.1313E+03  0.5248E+03  0.5246E+03
      0.011  0.1031E+03  0.1013E+03  0.5302E+03  0.5299E+03
      0.063  0.1442E+03  0.1428E+03  0.5377E+03  0.5373E+03
      0.115  0.1182E+03  0.1186E+03  0.5439E+03  0.5435E+03
      0.167  0.1216E+03  0.1265E+03  0.5503E+03  0.5501E+03
      0.219  0.7178E+02  0.6961E+02  0.5540E+03  0.5538E+03
      0.272  0.8511E+02  0.8268E+02  0.5584E+03  0.5581E+03
      0.324  0.9831E+02  0.1021E+03  0.5636E+03  0.5634E+03
      0.376  0.7180E+02  0.6887E+02  0.5673E+03  0.5670E+03
      0.428  0.1177E+03  0.1191E+03  0.5735E+03  0.5732E+03
      0.480  0.8213E+02  0.8266E+02  0.5778E+03  0.5775E+03
      0.532  0.9045E+02  0.8864E+02  0.5825E+03  0.5822E+03
      0.585  0.1396E+03  0.1392E+03  0.5898E+03  0.5894E+03
      0.637  0.1182E+03  0.1198E+03  0.5959E+03  0.5957E+03
      0.689  0.1539E+03  0.1500E+03  0.6040E+03  0.6035E+03
      0.741  0.1201E+03  0.1242E+03  0.6102E+03  0.6100E+03
      0.793  0.1375E+03  0.1351E+03  0.6174E+03  0.6170E+03
      0.846  0.1001E+03  0.1034E+03  0.6226E+03  0.6224E+03
      0.898  0.9980E+02  0.9866E+02  0.6278E+03  0.6276E+03
      0.950  0.1174E+03  0.1157E+03  0.6340E+03  0.6336E+03
      1.002  0.1074E+03  0.1084E+03  0.6396E+03  0.6393E+03
      1.054  0.1403E+03  0.1379E+03  0.6469E+03  0.6465E+03
      1.107  0.1765E+03  0.1771E+03  0.6561E+03  0.6557E+03
      1.159  0.1627E+03  0.1610E+03  0.6646E+03  0.6641E+03
      1.211  0.1787E+03  0.1780E+03  0.6739E+03  0.6734E+03
      1.263  0.1627E+03  0.1664E+03  0.6824E+03  0.6821E+03
      1.315  0.2027E+03  0.1973E+03  0.6930E+03  0.6924E+03
      1.367  0.1915E+03  0.1969E+03  0.7030E+03  0.7027E+03
      1.420  0.1448E+03  0.1427E+03  0.7105E+03  0.7101E+03
      1.472  0.1333E+03  0.1323E+03  0.7175E+03  0.7170E+03
      1.524  0.2267E+03  0.2268E+03  0.7293E+03  0.7288E+03
      1.576  0.1769E+03  0.1758E+03  0.7385E+03  0.7380E+03
      1.628  0.1822E+03  0.1805E+03  0.7480E+03  0.7474E+03
      1.681  0.1964E+03  0.1966E+03  0.7583E+03  0.7577E+03
      1.733  0.1809E+03  0.1802E+03  0.7677E+03  0.7671E+03
      1.785  0.1833E+03  0.1864E+03  0.7773E+03  0.7768E+03
      1.837  0.1695E+03  0.1698E+03  0.7862E+03  0.7857E+03
      1.889  0.1402E+03  0.1418E+03  0.7935E+03  0.7931E+03
      1.941  0.2152E+03  0.2087E+03  0.8047E+03  0.8040E+03
      1.994  0.1841E+03  0.1879E+03  0.8143E+03  0.8138E+03
      2.046  0.1590E+03  0.1574E+03  0.8226E+03  0.8220E+03
      2.098  0.1928E+03  0.1912E+03  0.8327E+03  0.8320E+03
      2.150  0.2091E+03  0.2082E+03  0.8436E+03  0.8428E+03
      2.202  0.1471E+03  0.1524E+03  0.8513E+03  0.8508E+03
      2.255  0.1632E+03  0.1616E+03  0.8598E+03  0.8592E+03
      2.307  0.1470E+03  0.1478E+03  0.8674E+03  0.8669E+03
      2.359  0.1655E+03  0.1619E+03  0.8761E+03  0.8754E+03
      2.411  0.2014E+03  0.1993E+03  0.8866E+03  0.8858E+03
      2.463  0.1423E+03  0.1486E+03  0.8940E+03  0.8935E+03
      2.516  0.1470E+03  0.1496E+03  0.9017E+03  0.9013E+03
      2.568  0.1355E+03  0.1339E+03  0.9088E+03  0.9083E+03
      2.620  0.1279E+03  0.1262E+03  0.9154E+03  0.9149E+03
      2.672  0.1322E+03  0.1339E+03  0.9223E+03  0.9219E+03
      2.724  0.1294E+03  0.1223E+03  0.9291E+03  0.9283E+03
      2.776  0.1673E+03  0.1725E+03  0.9378E+03  0.9373E+03
      2.829  0.1344E+03  0.1299E+03  0.9448E+03  0.9441E+03
      2.881  0.1529E+03  0.1544E+03  0.9528E+03  0.9521E+03
      2.933  0.1147E+03  0.1170E+03  0.9588E+03  0.9582E+03
      2.985  0.1216E+03  0.1157E+03  0.9651E+03  0.9643E+03
      3.037  0.1395E+03  0.1455E+03  0.9724E+03  0.9719E+03
      3.090  0.1133E+03  0.1149E+03  0.9783E+03  0.9779E+03
      3.142  0.1113E+03  0.1059E+03  0.9841E+03  0.9834E+03
      3.194  0.1176E+03  0.1192E+03  0.9903E+03  0.9896E+03
      3.246  0.1074E+03  0.1088E+03  0.9959E+03  0.9953E+03
      3.298  0.1053E+03  0.1027E+03  0.1001E+04  0.1001E+04
      3.350  0.1229E+03  0.1228E+03  0.1008E+04  0.1007E+04
      3.403  0.6779E+02  0.7446E+02  0.1011E+04  0.1011E+04
      3.455  0.8345E+02  0.7855E+02  0.1016E+04  0.1015E+04
      3.507  0.1094E+03  0.1098E+03  0.1021E+04  0.1021E+04
      3.559  0.8964E+02  0.9082E+02  0.1026E+04  0.1026E+04
      3.611  0.1053E+03  0.1023E+03  0.1032E+04  0.1031E+04
      3.664  0.5344E+02  0.5963E+02  0.1034E+04  0.1034E+04
      3.716  0.6635E+02  0.6669E+02  0.1038E+04  0.1037E+04
      3.768  0.4537E+02  0.4175E+02  0.1040E+04  0.1040E+04
      3.820  0.3964E+02  0.4587E+02  0.1042E+04  0.1042E+04
      3.872  0.3677E+02  0.3789E+02  0.1044E+04  0.1044E+04
      3.924  0.5470E+02  0.4320E+02  0.1047E+04  0.1046E+04
      3.977  0.7185E+02  0.7571E+02  0.1051E+04  0.1050E+04
      4.029  0.1003E+03  0.9158E+02  0.1056E+04  0.1055E+04
      4.081  0.1203E+03  0.1207E+03  0.1062E+04  0.1061E+04
      4.133  0.7252E+02  0.8211E+02  0.1066E+04  0.1066E+04
      4.185  0.8632E+02  0.8420E+02  0.1071E+04  0.1070E+04
      4.238  0.1003E+03  0.9120E+02  0.1076E+04  0.1075E+04
      4.290  0.9242E+02  0.9524E+02  0.1081E+04  0.1080E+04
      4.342  0.1324E+03  0.1294E+03  0.1088E+04  0.1086E+04
      4.394  0.1136E+03  0.1145E+03  0.1093E+04  0.1092E+04
      4.446  0.1155E+03  0.1167E+03  0.1099E+04  0.1098E+04
      4.499  0.1154E+03  0.1213E+03  0.1106E+04  0.1105E+04
      4.551  0.9323E+02  0.9519E+02  0.1110E+04  0.1110E+04
      4.603  0.1158E+03  0.1065E+03  0.1116E+04  0.1115E+04
      4.655  0.1134E+03  0.1205E+03  0.1122E+04  0.1122E+04
      4.707  0.9682E+02  0.9748E+02  0.1127E+04  0.1127E+04
      4.759  0.1210E+03  0.1165E+03  0.1134E+04  0.1133E+04
      4.812  0.1219E+03  0.1248E+03  0.1140E+04  0.1139E+04
      4.864  0.1211E+03  0.1222E+03  0.1146E+04  0.1146E+04
      4.916  0.1098E+03  0.1080E+03  0.1152E+04  0.1151E+04
      4.968  0.1109E+03  0.1111E+03  0.1158E+04  0.1157E+04
      5.020  0.1107E+03  0.1122E+03  0.1164E+04  0.1163E+04
      5.073  0.1388E+03  0.1418E+03  0.1171E+04  0.1170E+04
      5.125  0.1140E+03  0.1115E+03  0.1177E+04  0.1176E+04
      5.177  0.1056E+03  0.1076E+03  0.1182E+04  0.1182E+04
      5.229  0.9153E+02  0.9314E+02  0.1187E+04  0.1187E+04
      5.281  0.1176E+03  0.1187E+03  0.1193E+04  0.1193E+04
      5.333  0.9778E+02  0.9206E+02  0.1198E+04  0.1198E+04
      5.386  0.1328E+03  0.1377E+03  0.1205E+04  0.1205E+04
      5.438  0.1370E+03  0.1366E+03  0.1212E+04  0.1212E+04
      5.490  0.1418E+03  0.1380E+03  0.1220E+04  0.1219E+04
      5.542  0.1679E+03  0.1684E+03  0.1229E+04  0.1228E+04
      5.594  0.1300E+03  0.1339E+03  0.1235E+04  0.1235E+04
      5.647  0.1312E+03  0.1323E+03  0.1242E+04  0.1242E+04
      5.699  0.1199E+03  0.1167E+03  0.1249E+04  0.1248E+04
      5.751  0.1167E+03  0.1224E+03  0.1255E+04  0.1254E+04
      5.803  0.1061E+03  0.1033E+03  0.1260E+04  0.1260E+04
      5.855  0.1355E+03  0.1305E+03  0.1267E+04  0.1267E+04
      5.908  0.7918E+02  0.9169E+02  0.1271E+04  0.1271E+04
      5.960  0.1222E+02  0.1285E+02  0.1272E+04  0.1272E+04
      6.012  0.0000E+00  0.0000E+00  0.1272E+04  0.1272E+04
      6.064  0.0000E+00  0.0000E+00  0.1272E+04  0.1272E+04
      6.116  0.0000E+00  0.0000E+00  0.1272E+04  0.1272E+04
      6.168  0.0000E+00  0.0000E+00  0.1272E+04  0.1272E+04
      6.221  0.0000E+00  0.0000E+00  0.1272E+04  0.1272E+04
      6.273  0.0000E+00  0.0000E+00  0.1272E+04  0.1272E+04
      6.325  0.0000E+00  0.0000E+00  0.1272E+04  0.1272E+04
      6.377  0.0000E+00  0.0000E+00  0.1272E+04  0.1272E+04
      6.429  0.0000E+00  0.0000E+00  0.1272E+04  0.1272E+04
      6.482  0.0000E+00  0.0000E+00  0.1272E+04  0.1272E+04
      6.534  0.0000E+00  0.0000E+00  0.1272E+04  0.1272E+04
      6.586  0.0000E+00  0.0000E+00  0.1272E+04  0.1272E+04
      6.638  0.0000E+00  0.0000E+00  0.1272E+04  0.1272E+04
