       N       E                     dE             d eps       ncg     rms          rms(c)
DAV:   1     0.195955829985E+04    0.19596E+04   -0.20890E+05  9216   0.171E+03
DAV:   2    -0.325764489024E+03   -0.22853E+04   -0.22115E+04 10776   0.211E+02
DAV:   3    -0.541054760081E+03   -0.21529E+03   -0.20600E+03 11616   0.572E+01
DAV:   4    -0.550118806559E+03   -0.90640E+01   -0.87971E+01 11112   0.121E+01
DAV:   5    -0.550492866480E+03   -0.37406E+00   -0.37037E+00 12688   0.243E+00    0.293E+01
DAV:   6    -0.540305708377E+03    0.10187E+02   -0.36945E+01 11048   0.988E+00    0.129E+01
DAV:   7    -0.540403614899E+03   -0.97907E-01   -0.21700E+01 11288   0.816E+00    0.791E+00
DAV:   8    -0.539634811758E+03    0.76880E+00   -0.56382E+00 11824   0.487E+00    0.311E+00
DAV:   9    -0.539364063048E+03    0.27075E+00   -0.16757E+00 11704   0.269E+00    0.151E+00
DAV:  10    -0.539328356048E+03    0.35707E-01   -0.41740E-01 10888   0.111E+00    0.857E-01
DAV:  11    -0.539323570305E+03    0.47857E-02   -0.10096E-01 10848   0.547E-01    0.468E-01
DAV:  12    -0.539323636916E+03   -0.66611E-04   -0.25481E-02 10928   0.305E-01    0.265E-01
DAV:  13    -0.539323211810E+03    0.42511E-03   -0.76428E-03 11112   0.178E-01    0.151E-01
DAV:  14    -0.539323095402E+03    0.11641E-03   -0.21480E-03 10944   0.891E-02    0.874E-02
DAV:  15    -0.539323132257E+03   -0.36856E-04   -0.63483E-04 11600   0.486E-02    0.500E-02
DAV:  16    -0.539323119379E+03    0.12879E-04   -0.24528E-04 11432   0.327E-02    0.183E-02
DAV:  17    -0.539323117907E+03    0.14718E-05   -0.75919E-05 10816   0.162E-02    0.105E-02
DAV:  18    -0.539323121145E+03   -0.32384E-05   -0.18411E-05 10544   0.693E-03    0.950E-03
DAV:  19    -0.539323122372E+03   -0.12265E-05   -0.33450E-06 11032   0.278E-03    0.394E-03
DAV:  20    -0.539323122304E+03    0.67203E-07   -0.72085E-07 10256   0.137E-03
   1 F= -.53932312E+03 E0= -.53932161E+03  d E =-.301756E-02  mag=     1.0000
