 vasp.6.4.3 19Mar24 (build Oct 22 2024 11:23:12) complex                        
  
 executed on             LinuxIFC date 2025.06.08  15:22:14
 running   64 mpi-ranks, on    4 nodes
 distrk:  each k-point on   64 cores,    1 groups
 distr:  one band on NCORE=  16 cores,    4 groups


--------------------------------------------------------------------------------------------------------


 INCAR:
   SYSTEM = Si and Ge interface calculation
   ISTART = 0
   ICHARG = 2
   LWAVE = .FALSE.
   LREAL = AUTO
   ENCUT = 700
   ENAUG = 900
   ADDGRID = .TRUE.
   LMAXMIX = 6
   LASPH = .TRUE.
   LMIXTAU = .TRUE.
   NCORE = 16
   NELM = 100
   NBANDS = 288
   EDIFF = 1d-7
   AMIX = 0.6
   ISMEAR = 0
   SIGMA = 0.01
   NELECT = 480
   ISPIN = 2
   NUPDOWN = 1
   LVTOT = .FALSE.
   LVHAR = .TRUE.

 POTCAR:    PAW_PBE Si 05Jan2001                  
 POTCAR:    PAW_PBE Ge 05Jan2001                  
 -----------------------------------------------------------------------------
|                                                                             |
|           W    W    AA    RRRRR   N    N  II  N    N   GGGG   !!!           |
|           W    W   A  A   R    R  NN   N  II  NN   N  G    G  !!!           |
|           W    W  A    A  R    R  N N  N  II  N N  N  G       !!!           |
|           W WW W  AAAAAA  RRRRR   N  N N  II  N  N N  G  GGG   !            |
|           WW  WW  A    A  R   R   N   NN  II  N   NN  G    G                |
|           W    W  A    A  R    R  N    N  II  N    N   GGGG   !!!           |
|                                                                             |
|     You use a magnetic or noncollinear calculation, but did not specify     |
|     the initial magnetic moment with the MAGMOM tag. Note that a            |
|     default of 8.333e-3 will be used for all atoms. This ferromagnetic      |
|     setup may break the symmetry of the crystal, in particular it may       |
|     rule out finding an antiferromagnetic solution. Thence, we              |
|     recommend setting the initial magnetic moment manually or verifying     |
|     carefully that this magnetic setup is desired.                          |
|                                                                             |
 -----------------------------------------------------------------------------

 POTCAR:    PAW_PBE Si 05Jan2001                  
   VRHFIN =Si: s2p2                                                                                 
   LEXCH  = PE                                                                                      
   EATOM  =   103.0669 eV,    7.5752 Ry                                                             
                                                                                                    
   TITEL  = PAW_PBE Si 05Jan2001                                                                    
   LULTRA =        F    use ultrasoft PP ?                                                          
   IUNSCR =        1    unscreen: 0-lin 1-nonlin 2-no                                               
   RPACOR =    1.500    partial core radius                                                         
   POMASS =   28.085; ZVAL   =    4.000    mass and valenz                                          
   RCORE  =    1.900    outmost cutoff radius                                                       
   RWIGS  =    2.480; RWIGS  =    1.312    wigner-seitz radius (au A)                               
   ENMAX  =  245.345; ENMIN  =  184.009 eV                                                          
   ICORE  =        2    local potential                                                             
   LCOR   =        T    correct aug charges                                                         
   LPAW   =        T    paw PP                                                                      
   EAUG   =  322.069                                                                                
   DEXC   =    0.000                                                                                
   RMAX   =    1.950    core radius for proj-oper                                                   
   RAUG   =    1.300    factor for augmentation sphere                                              
   RDEP   =    1.993    radius for radial grids                                                     
   RDEPT  =    1.837    core radius for aug-charge                                                  
                                                                                                    
   Atomic configuration                                                                             
    6 entries                                                                                       
     n  l   j            E        occ.                                                              
     1  0  0.50     -1785.8828   2.0000                                                             
     2  0  0.50      -139.4969   2.0000                                                             
     2  1  1.50       -95.5546   6.0000                                                             
     3  0  0.50       -10.8127   2.0000                                                             
     3  1  0.50        -4.0811   2.0000                                                             
     3  2  1.50        -4.0817   0.0000                                                             
   Description                                                                                      
     l       E           TYP  RCUT    TYP  RCUT                                                     
     0    -10.8127223     23  1.900                                                                 
     0     -7.6451159     23  1.900                                                                 
     1     -4.0811372     23  1.900                                                                 
     1      2.4879257     23  1.900                                                                 
     2     -4.0817478      7  1.900                                                                 
  local pseudopotential read in
  partial core-charges read in
  partial kinetic energy density read in
  atomic valenz-charges read in
  non local Contribution for L=           0  read in
    real space projection operators read in
  non local Contribution for L=           0  read in
    real space projection operators read in
  non local Contribution for L=           1  read in
    real space projection operators read in
  non local Contribution for L=           1  read in
    real space projection operators read in
    PAW grid and wavefunctions read in
 
   number of l-projection  operators is LMAX  =           4
   number of lm-projection operators is LMMAX =           8
 
 POTCAR:    PAW_PBE Ge 05Jan2001                  
   VRHFIN =Ge: s2p2                                                                                 
   LEXCH  = PE                                                                                      
   EATOM  =   104.9960 eV,    7.7170 Ry                                                             
                                                                                                    
   TITEL  = PAW_PBE Ge 05Jan2001                                                                    
   LULTRA =        F    use ultrasoft PP ?                                                          
   IUNSCR =        1    unscreen: 0-lin 1-nonlin 2-no                                               
   RPACOR =    2.170    partial core radius                                                         
   POMASS =   72.610; ZVAL   =    4.000    mass and valenz                                          
   RCORE  =    2.300    outmost cutoff radius                                                       
   RWIGS  =    2.300; RWIGS  =    1.217    wigner-seitz radius (au A)                               
   ENMAX  =  173.807; ENMIN  =  130.355 eV                                                          
   ICORE  =        3    local potential                                                             
   LCOR   =        T    correct aug charges                                                         
   LPAW   =        T    paw PP                                                                      
   EAUG   =  385.843                                                                                
   DEXC   =    0.000                                                                                
   RMAX   =    2.342    core radius for proj-oper                                                   
   RAUG   =    1.300    factor for augmentation sphere                                              
   RDEP   =    2.318    radius for radial grids                                                     
   RDEPT  =    2.103    core radius for aug-charge                                                  
                                                                                                    
   Atomic configuration                                                                             
   10 entries                                                                                       
     n  l   j            E        occ.                                                              
     1  0  0.50    -10959.8463   2.0000                                                             
     2  0  0.50     -1371.6056   2.0000                                                             
     2  1  1.50     -1198.4791   6.0000                                                             
     3  0  0.50      -168.4733   2.0000                                                             
     3  1  1.50      -115.6019   6.0000                                                             
     3  2  2.50       -29.3106  10.0000                                                             
     4  0  0.50       -11.7309   2.0000                                                             
     4  1  0.50        -3.8952   2.0000                                                             
     4  2  1.50        -4.0817   0.0000                                                             
     4  3  2.50        -4.0817   0.0000                                                             
   Description                                                                                      
     l       E           TYP  RCUT    TYP  RCUT                                                     
     0    -11.7309493     23  2.300                                                                 
     0     -7.4578696     23  2.300                                                                 
     1     -3.8952261     23  2.300                                                                 
     1      6.1178114     23  2.300                                                                 
     2     -4.0817478     23  2.300                                                                 
     3     -1.3605826      7  2.300                                                                 
  local pseudopotential read in
  partial core-charges read in
  partial kinetic energy density read in
  atomic valenz-charges read in
  non local Contribution for L=           0  read in
    real space projection operators read in
  non local Contribution for L=           0  read in
    real space projection operators read in
  non local Contribution for L=           1  read in
    real space projection operators read in
  non local Contribution for L=           1  read in
    real space projection operators read in
  non local Contribution for L=           2  read in
    real space projection operators read in
    PAW grid and wavefunctions read in
 
   number of l-projection  operators is LMAX  =           5
   number of lm-projection operators is LMMAX =          13
 
 Optimization of the real space projectors (new method)

 maximal supplied QI-value         = 19.84
 optimisation between [QCUT,QGAM] = [ 13.49, 26.99] = [ 50.98,203.92] Ry 
 Optimized for a Real-space Cutoff    1.07 Angstroem

   l    n(q)    QCUT    max X(q) W(low)/X(q) W(high)/X(q)  e(spline) 
   0      9    13.493   159.560    0.22E-03    0.15E-03    0.72E-07
   0      9    13.493   115.863    0.21E-03    0.15E-03    0.71E-07
   1      8    13.493    88.339    0.15E-03    0.11E-03    0.13E-06
   1      8    13.493    48.592    0.15E-03    0.10E-03    0.13E-06
 Optimization of the real space projectors (new method)

 maximal supplied QI-value         = 16.25
 optimisation between [QCUT,QGAM] = [ 13.49, 26.98] = [ 50.95,203.80] Ry 
 Optimized for a Real-space Cutoff    1.25 Angstroem

   l    n(q)    QCUT    max X(q) W(low)/X(q) W(high)/X(q)  e(spline) 
   0     10    13.489    65.336    0.91E-04    0.11E-03    0.34E-06
   0     10    13.489    52.220    0.89E-04    0.11E-03    0.34E-06
   1     10    13.489    36.409    0.22E-03    0.27E-03    0.14E-06
   1     10    13.489    21.334    0.21E-03    0.27E-03    0.14E-06
   2      9    13.489     4.673    0.11E-03    0.12E-03    0.19E-06
  PAW_PBE Si 05Jan2001                  :
 energy of atom  1       EATOM= -103.0669
 kinetic energy error for atom=    0.0003 (will be added to EATOM!!)
  PAW_PBE Ge 05Jan2001                  :
 energy of atom  2       EATOM= -104.9960
 kinetic energy error for atom=    0.0001 (will be added to EATOM!!)
 
 
 POSCAR: Si+Ge
  positions in direct lattice
  No initial velocities read in


 exchange-correlation table for PE
   RHO(1)=    0.500       N(1)  =     2000
   RHO(2)=  100.500       N(2)  =     4000
 


--------------------------------------------------------------------------------------------------------


 ion  position               nearest neighbor table
   1  0.130  0.826  0.413-  72 2.35  35 2.35
   2  0.964  0.076  0.000- 119 2.23  64 2.35  21 2.35
   3  0.797  0.426  0.083-  65 2.35  68 2.35  22 2.35  96 2.86
   4  0.630  0.776  0.165-  66 2.35  32 2.35  69 2.35  23 2.35
   5  0.464  0.126  0.248-  61 2.35  33 2.35  24 2.35  70 2.35
   6  0.297  0.476  0.330-  19 2.35  71 2.35  34 2.35 103 2.45
   7  0.464  0.826  0.413-  60 2.35  23 2.35 115 2.84  81 3.03
   8  0.297  0.076  0.000-  70 2.35  27 2.35  77 2.64
   9  0.130  0.426  0.083-  71 2.35  56 2.35  28 2.35  90 2.80
  10  0.964  0.776  0.165-  72 2.35  20 2.35  57 2.35  29 2.35
  11  0.797  0.126  0.248-  67 2.35  30 2.35  21 2.35  58 2.35
  12  0.630  0.476  0.330-  25 2.35  59 2.35  22 2.35  91 2.49
  13  0.797  0.826  0.413-  66 2.35  29 2.35
  14  0.630  0.076  0.000-  58 2.35  33 2.35  83 2.57
  15  0.464  0.426  0.083-  59 2.35  62 2.35  34 2.35 108 2.48
  16  0.297  0.776  0.165-  60 2.35  26 2.35  63 2.35  35 2.35
  17  0.130  0.126  0.248-  55 2.35  27 2.35  36 2.35  64 2.35
  18  0.964  0.476  0.330-  31 2.35  65 2.35  28 2.35
  19  0.214  0.576  0.413-  79 2.29  53 2.35   6 2.35
  20  0.047  0.826  0.000- 114 2.15  95 2.31  10 2.35  45 2.35
  21  0.880  0.176  0.083-  46 2.35  11 2.35   2 2.35
  22  0.714  0.526  0.165-  50 2.35  47 2.35  12 2.35   3 2.35
  23  0.547  0.876  0.248-  51 2.35  48 2.35   7 2.35   4 2.35
  24  0.380  0.226  0.330-  52 2.35   5 2.35  43 2.35
  25  0.547  0.576  0.413-  41 2.35  12 2.35 115 2.69  91 2.90
  26  0.380  0.826  0.000-  84 2.19 101 2.35  16 2.35  51 2.35
  27  0.214  0.176  0.083-  52 2.35  17 2.35   8 2.35
  28  0.047  0.526  0.165-  38 2.35  53 2.35  18 2.35   9 2.35
  29  0.880  0.876  0.248-  39 2.35  54 2.35  13 2.35  10 2.35
  30  0.714  0.226  0.330-  40 2.35  11 2.35  49 2.35
  31  0.880  0.576  0.413-  47 2.35  18 2.35 109 2.62  97 2.94
  32  0.714  0.826  0.000-   4 2.35  39 2.35  78 2.85 120 2.95 107 2.97
  33  0.547  0.176  0.083-  40 2.35   5 2.35  14 2.35
  34  0.380  0.526  0.165-  44 2.35  41 2.35   6 2.35  15 2.35
  35  0.214  0.876  0.248-  45 2.35  42 2.35   1 2.35  16 2.35
  36  0.047  0.226  0.330-  46 2.35  17 2.35  37 2.35
  37  0.130  0.326  0.413- 116 2.26  71 2.35  36 2.35  85 2.40
  38  0.964  0.576  0.000- 102 2.06  28 2.35  57 2.35
  39  0.797  0.926  0.083-  29 2.35  58 2.35  32 2.35
  40  0.630  0.276  0.165-  30 2.35  68 2.35  33 2.35  59 2.35
  41  0.464  0.626  0.248-  25 2.35  69 2.35  34 2.35  60 2.35
  42  0.297  0.976  0.330-  70 2.35  35 2.35  55 2.35
  43  0.464  0.326  0.413-  59 2.35  24 2.35 110 2.90  74 3.00  91 3.02
  44  0.297  0.576  0.000-  34 2.35  63 2.35  90 2.51 118 2.98
  45  0.130  0.926  0.083-  35 2.35  64 2.35  20 2.35
  46  0.964  0.276  0.165-  36 2.35  56 2.35  21 2.35  65 2.35
  47  0.797  0.626  0.248-  31 2.35  22 2.35  57 2.35  66 2.35
  48  0.630  0.976  0.330-  58 2.35  23 2.35  61 2.35
  49  0.797  0.326  0.413-  80 2.22  65 2.35  30 2.35  97 2.37
  50  0.630  0.576  0.000-  22 2.35  69 2.35  96 2.43  76 3.01
  51  0.464  0.926  0.083-  23 2.35  70 2.35  26 2.35
  52  0.297  0.276  0.165-  24 2.35  62 2.35  27 2.35  71 2.35
  53  0.130  0.626  0.248-  19 2.35  63 2.35  28 2.35  72 2.35
  54  0.964  0.976  0.330-  64 2.35  29 2.35  67 2.35
  55  0.214  0.076  0.413-  92 2.13  17 2.35  42 2.35
  56  0.047  0.326  0.000-  46 2.35   9 2.35
  57  0.880  0.676  0.083-  38 2.35  47 2.35  10 2.35  78 2.59
  58  0.714  0.026  0.165-  14 2.35  48 2.35  39 2.35  11 2.35
  59  0.547  0.376  0.248-  15 2.35  43 2.35  12 2.35  40 2.35
  60  0.380  0.726  0.330-  16 2.35   7 2.35  41 2.35 115 2.70
  61  0.547  0.076  0.413-   5 2.35  48 2.35  98 2.56
  62  0.380  0.326  0.000-  52 2.35  15 2.35
  63  0.214  0.676  0.083-  53 2.35  44 2.35  16 2.35
  64  0.047  0.026  0.165-   2 2.35  54 2.35  45 2.35  17 2.35
  65  0.880  0.376  0.248-   3 2.35  49 2.35  18 2.35  46 2.35
  66  0.714  0.726  0.330-   4 2.35  13 2.35  47 2.35  73 2.37
  67  0.880  0.076  0.413-  11 2.35  54 2.35 104 2.49
  68  0.714  0.326  0.000-  40 2.35   3 2.35 100 2.92
  69  0.547  0.676  0.083-  41 2.35  50 2.35   4 2.35 120 2.55
  70  0.380  0.026  0.165-   8 2.35  42 2.35  51 2.35   5 2.35
  71  0.214  0.376  0.248-   9 2.35  37 2.35   6 2.35  52 2.35
  72  0.047  0.726  0.330-  10 2.35   1 2.35  53 2.35 109 2.77
  73  0.710  0.682  0.546-  66 2.37 105 2.48  93 2.48
  74  0.335  0.293  0.610- 103 2.48 106 2.48  94 2.48  43 3.00
  75  0.960  0.904  0.674- 104 2.48 107 2.48  95 2.48
  76  0.585  0.515  0.738-  91 2.46 105 2.48  96 2.48 108 2.48  50 3.01
  77  0.210  0.126  0.803-  92 2.46 106 2.48   8 2.64
  78  0.835  0.738  0.867-  93 2.46 107 2.48  57 2.59  32 2.85
  79  0.210  0.682  0.546-  19 2.29  99 2.48  87 2.48
  80  0.835  0.293  0.610-  49 2.22  97 2.48 100 2.48  88 2.48
  81  0.460  0.904  0.674-  98 2.48 101 2.48  89 2.48   7 3.03
  82  0.085  0.515  0.738-  85 2.46  99 2.48  90 2.48 102 2.48
  83  0.710  0.126  0.803-  86 2.46 100 2.48  14 2.57
  84  0.335  0.738  0.867-  26 2.19  87 2.46 101 2.48
  85  0.085  0.432  0.546-  37 2.40  82 2.46 116 2.48
  86  0.710  0.043  0.610-  83 2.46 117 2.48
  87  0.335  0.654  0.674-  84 2.46 118 2.48 115 2.48  79 2.48
  88  0.960  0.265  0.738- 119 2.48 116 2.48  80 2.48
  89  0.585  0.876  0.803- 120 2.48 117 2.48  81 2.48
  90  0.210  0.488  0.867-  82 2.48 118 2.48  44 2.51   9 2.80
  91  0.585  0.432  0.546-  76 2.46 110 2.48  12 2.49  25 2.90  43 3.02
  92  0.210  0.043  0.610-  55 2.13  77 2.46 111 2.48
  93  0.835  0.654  0.674-  78 2.46 112 2.48 109 2.48  73 2.48
  94  0.460  0.265  0.738- 113 2.48 110 2.48  74 2.48
  95  0.085  0.876  0.803-  20 2.31 114 2.48 111 2.48  75 2.48
  96  0.710  0.488  0.867-  50 2.43  76 2.48 112 2.48   3 2.86
  97  0.835  0.432  0.546-  49 2.37 112 2.46  80 2.48  31 2.94
  98  0.460  0.043  0.610- 113 2.46  81 2.48  61 2.56
  99  0.085  0.654  0.674- 114 2.46  82 2.48  79 2.48 109 2.48
 100  0.710  0.265  0.738-  83 2.48  80 2.48 110 2.48  68 2.92
 101  0.335  0.876  0.803-  26 2.35  84 2.48  81 2.48 111 2.48
 102  0.960  0.488  0.867-  38 2.06 112 2.48  82 2.48
 103  0.335  0.432  0.546-   6 2.45 118 2.46  74 2.48
 104  0.960  0.043  0.610- 119 2.46  75 2.48  67 2.49
 105  0.585  0.654  0.674- 120 2.46  76 2.48  73 2.48 115 2.48
 106  0.210  0.265  0.738-  77 2.48  74 2.48 116 2.48
 107  0.835  0.876  0.803-  78 2.48  75 2.48 117 2.48  32 2.97
 108  0.460  0.488  0.867- 118 2.48  76 2.48  15 2.48
 109  0.960  0.682  0.546-  93 2.48  99 2.48  31 2.62  72 2.77
 110  0.585  0.293  0.610-  91 2.48  94 2.48 100 2.48  43 2.90
 111  0.210  0.904  0.674-  92 2.48  95 2.48 101 2.48
 112  0.835  0.515  0.738-  97 2.46  93 2.48 102 2.48  96 2.48
 113  0.460  0.126  0.803-  98 2.46  94 2.48
 114  0.085  0.738  0.867-  20 2.15  99 2.46  95 2.48
 115  0.460  0.682  0.546-  87 2.48 105 2.48  25 2.69  60 2.70   7 2.84
 116  0.085  0.293  0.610-  37 2.26  85 2.48  88 2.48 106 2.48
 117  0.710  0.904  0.674-  86 2.48  89 2.48 107 2.48
 118  0.335  0.515  0.738- 103 2.46  87 2.48 108 2.48  90 2.48  44 2.98
 119  0.960  0.126  0.803-   2 2.23 104 2.46  88 2.48
 120  0.585  0.738  0.867- 105 2.46  89 2.48  69 2.55  32 2.95
 
  LATTYP: Found a simple orthorhombic cell.
 ALAT       =    10.4023427960
 B/A-ratio  =     1.5662818939
 C/A-ratio  =     1.6510059411
  
  Lattice vectors:
  
 A1 = (   0.0000000000,   0.0000002530,  10.4023427960)
 A2 = (  16.2930011750,   0.0000000000,   0.0000000000)
 A3 = (   0.0000000000,  17.1743297580,   0.0000000000)


Analysis of symmetry for initial positions (statically):
=====================================================================
 Subroutine PRICEL returns:
 Original cell was already a primitive cell.
 

 Routine SETGRP: Setting up the symmetry group for a 
 simple orthorhombic supercell.


 Subroutine GETGRP returns: Found  1 space group operations
 (whereof  1 operations were pure point group operations)
 out of a pool of  8 trial point group operations.


The static configuration has the point symmetry C_1 .


Analysis of symmetry for dynamics (positions and initial velocities):
=====================================================================
 Subroutine PRICEL returns:
 Original cell was already a primitive cell.
 

 Routine SETGRP: Setting up the symmetry group for a 
 simple orthorhombic supercell.


 Subroutine GETGRP returns: Found  1 space group operations
 (whereof  1 operations were pure point group operations)
 out of a pool of  8 trial point group operations.


The dynamic configuration has the point symmetry C_1 .


Analysis of structural, dynamic, and magnetic symmetry:
=====================================================================
 Subroutine PRICEL returns:
 Original cell was already a primitive cell.
 

 Routine SETGRP: Setting up the symmetry group for a 
 simple orthorhombic supercell.


 Subroutine GETGRP returns: Found  1 space group operations
 (whereof  1 operations were pure point group operations)
 out of a pool of  8 trial point group operations.


The overall configuration has the point symmetry C_1 .


 Subroutine INISYM returns: Found  1 space group operations
 (whereof  1 operations are pure point group operations),
 and found     1 'primitive' translations


----------------------------------------------------------------------------------------

                                     Primitive cell                                     

  volume of cell :    2910.7979

  direct lattice vectors                    reciprocal lattice vectors
    16.293001175  0.000000000  0.000000000     0.061376047  0.000000000  0.000000000
     0.000000000 17.174329758  0.000000000     0.000000000  0.058226435 -0.000000001
     0.000000000  0.000000253 10.402342796     0.000000000  0.000000000  0.096132191

  length of vectors
    16.293001175 17.174329758 10.402342796     0.061376047  0.058226435  0.096132191

  position of ions in fractional coordinates (direct lattice)
     0.130378902  0.826204658  0.412752151
     0.963712454  0.076203912  0.000000057
     0.797045708  0.426204026  0.082550481
     0.630379081  0.776204169  0.165100887
     0.463712275  0.126204491  0.247651324
     0.297045529  0.476204634  0.330201805
     0.463712275  0.826204658  0.412752151
     0.297045797  0.076203912  0.000000057
     0.130379081  0.426204026  0.082550481
     0.963712394  0.776204169  0.165100887
     0.797045588  0.126204491  0.247651324
     0.630378842  0.476204634  0.330201805
     0.797045588  0.826204658  0.412752151
     0.630379140  0.076203912  0.000000057
     0.463712424  0.426204026  0.082550481
     0.297045767  0.776204169  0.165100887
     0.130378976  0.126204491  0.247651324
     0.963712215  0.476204634  0.330201805
     0.213712215  0.576204777  0.412752092
     0.047045767  0.826204002  0.000000000
     0.880379081  0.176204205  0.082550466
     0.713712335  0.526204467  0.165100798
     0.547045588  0.876204610  0.247651264
     0.380378962  0.226204634  0.330201626
     0.547045588  0.576204777  0.412752092
     0.380379081  0.826204002  0.000000000
     0.213712379  0.176204205  0.082550466
     0.047045693  0.526204467  0.165100798
     0.880378962  0.876204610  0.247651264
     0.713712335  0.226204634  0.330201626
     0.880378902  0.576204777  0.412752092
     0.713712394  0.826204002  0.000000000
     0.547045708  0.176204205  0.082550466
     0.380378991  0.526204467  0.165100798
     0.213712230  0.876204610  0.247651264
     0.047045581  0.226204634  0.330201626
     0.130378902  0.326204777  0.412752151
     0.963712394  0.576204002  0.000000023
     0.797045708  0.926204145  0.082550444
     0.630379021  0.276204228  0.165100798
     0.463712275  0.626204491  0.247651324
     0.297045648  0.976204634  0.330201626
     0.463712275  0.326204777  0.412752151
     0.297045767  0.576204002  0.000000023
     0.130379051  0.926204145  0.082550444
     0.963712394  0.276204228  0.165100798
     0.797045588  0.626204491  0.247651324
     0.630378962  0.976204634  0.330201626
     0.797045588  0.326204777  0.412752151
     0.630379140  0.576204002  0.000000023
     0.463712394  0.926204145  0.082550444
     0.297045738  0.276204228  0.165100798
     0.130378976  0.626204491  0.247651324
     0.963712335  0.976204634  0.330201626
     0.213712215  0.076204777  0.412752062
     0.047045767  0.326203912  0.000000057
     0.880379081  0.676204026  0.082550451
     0.713712394  0.026204228  0.165100813
     0.547045588  0.376204491  0.247651264
     0.380378842  0.726204753  0.330201626
     0.547045588  0.076204777  0.412752062
     0.380379111  0.326203912  0.000000057
     0.213712409  0.676204026  0.082550451
     0.047045726  0.026204228  0.165100813
     0.880378962  0.376204491  0.247651264
     0.713712215  0.726204753  0.330201626
     0.880378962  0.076204777  0.412752062
     0.713712454  0.326203912  0.000000057
     0.547045767  0.676204026  0.082550451
     0.380379081  0.026204228  0.165100813
     0.213712290  0.376204491  0.247651264
     0.047045540  0.726204753  0.330201626
     0.709533989  0.681954145  0.546128869
     0.334534019  0.293065071  0.610227704
     0.959534049  0.904176235  0.674326539
     0.584534109  0.515287399  0.738425493
     0.209534168  0.126398325  0.802524328
     0.834533989  0.737509251  0.866623282
     0.209534049  0.681954145  0.546128869
     0.834534109  0.293065071  0.610227704
     0.459534049  0.904176176  0.674326539
     0.084534168  0.515287399  0.738425493
     0.709534228  0.126398325  0.802524328
     0.334534109  0.737509251  0.866623282
     0.084533930  0.431954026  0.546128869
     0.709534049  0.043065071  0.610227823
     0.334534079  0.654176235  0.674326658
     0.959534168  0.265287399  0.738425493
     0.584534287  0.876398444  0.802524447
     0.209533930  0.487509251  0.866623282
     0.584533989  0.431954026  0.546128869
     0.209534049  0.043065071  0.610227704
     0.834534049  0.654176116  0.674326539
     0.459534109  0.265287280  0.738425493
     0.084534168  0.876398325  0.802524328
     0.709533989  0.487509251  0.866623282
     0.834533989  0.431954026  0.546128869
     0.459533989  0.043065071  0.610227704
     0.084534049  0.654176116  0.674326539
     0.709534109  0.265287280  0.738425493
     0.334534228  0.876398385  0.802524328
     0.959533989  0.487509251  0.866623282
     0.334533989  0.431954026  0.546128869
     0.959534049  0.043065071  0.610227704
     0.584534049  0.654176235  0.674326539
     0.209534168  0.265287280  0.738425493
     0.834534228  0.876398385  0.802524328
     0.459534109  0.487509251  0.866623282
     0.959533930  0.681954145  0.546128869
     0.584533989  0.293065071  0.610227704
     0.209533930  0.904176235  0.674326539
     0.834534109  0.515287161  0.738425493
     0.459534228  0.126398325  0.802524328
     0.084533930  0.737509251  0.866623282
     0.459533989  0.681954145  0.546128869
     0.084534049  0.293065071  0.610227704
     0.709534109  0.904176235  0.674326658
     0.334534168  0.515287399  0.738425493
     0.959534228  0.126398325  0.802524328
     0.584533989  0.737509251  0.866623282

  ion indices of the primitive-cell ions
   primitive index   ion index
                 1           1
                 2           2
                 3           3
                 4           4
                 5           5
                 6           6
                 7           7
                 8           8
                 9           9
                10          10
                11          11
                12          12
                13          13
                14          14
                15          15
                16          16
                17          17
                18          18
                19          19
                20          20
                21          21
                22          22
                23          23
                24          24
                25          25
                26          26
                27          27
                28          28
                29          29
                30          30
                31          31
                32          32
                33          33
                34          34
                35          35
                36          36
                37          37
                38          38
                39          39
                40          40
                41          41
                42          42
                43          43
                44          44
                45          45
                46          46
                47          47
                48          48
                49          49
                50          50
                51          51
                52          52
                53          53
                54          54
                55          55
                56          56
                57          57
                58          58
                59          59
                60          60
                61          61
                62          62
                63          63
                64          64
                65          65
                66          66
                67          67
                68          68
                69          69
                70          70
                71          71
                72          72
                73          73
                74          74
                75          75
                76          76
                77          77
                78          78
                79          79
                80          80
                81          81
                82          82
                83          83
                84          84
                85          85
                86          86
                87          87
                88          88
                89          89
                90          90
                91          91
                92          92
                93          93
                94          94
                95          95
                96          96
                97          97
                98          98
                99          99
               100         100
               101         101
               102         102
               103         103
               104         104
               105         105
               106         106
               107         107
               108         108
               109         109
               110         110
               111         111
               112         112
               113         113
               114         114
               115         115
               116         116
               117         117
               118         118
               119         119
               120         120

----------------------------------------------------------------------------------------

 
 
 KPOINTS: Automatic KPOINTS generated             

Automatic generation of k-mesh.
 Grid dimensions read from file:
 generate k-points for:    2    2    3

 Generating k-lattice:

  Cartesian coordinates                     Fractional coordinates (reciprocal lattice)
     0.030688023  0.000000000  0.000000000     0.500000000  0.000000000  0.000000000
     0.000000000  0.029113218 -0.000000001     0.000000000  0.500000000  0.000000000
     0.000000000  0.000000000  0.032044064     0.000000000  0.000000000  0.333333333

  Length of vectors
     0.030688023  0.029113218  0.032044064

  Shift w.r.t. Gamma in fractional coordinates (k-lattice)
     0.000000000  0.000000000  0.000000000

 
 Subroutine IBZKPT returns following result:
 ===========================================
 
 Found      8 irreducible k-points:
 
 Following reciprocal coordinates:
            Coordinates               Weight
  0.000000  0.000000  0.000000      1.000000
  0.500000  0.000000  0.000000      1.000000
  0.000000  0.500000  0.000000      1.000000
  0.500000  0.500000  0.000000      1.000000
  0.000000  0.000000  0.333333      2.000000
  0.500000  0.000000  0.333333      2.000000
  0.000000  0.500000  0.333333      2.000000
  0.500000  0.500000  0.333333      2.000000
 
 Following cartesian coordinates:
            Coordinates               Weight
  0.000000  0.000000  0.000000      1.000000
  0.030688  0.000000  0.000000      1.000000
  0.000000  0.029113 -0.000000      1.000000
  0.030688  0.029113 -0.000000      1.000000
  0.000000  0.000000  0.032044      2.000000
  0.030688  0.000000  0.032044      2.000000
  0.000000  0.029113  0.032044      2.000000
  0.030688  0.029113  0.032044      2.000000
 


--------------------------------------------------------------------------------------------------------




 Dimension of arrays:
   k-points           NKPTS =      8   k-points in BZ     NKDIM =      8   number of bands    NBANDS=    288
   number of dos      NEDOS =    301   number of ions     NIONS =    120
   non local maximal  LDIM  =      5   non local SUM 2l+1 LMDIM =     13
   total plane-waves  NPLWV = 846720
   max r-space proj   IRMAX =   2407   max aug-charges    IRDMAX= 126664
   dimension x,y,z NGX =   108 NGY =  112 NGZ =   70
   dimension x,y,z NGXF=   216 NGYF=  224 NGZF=  140
   support grid    NGXF=   432 NGYF=  448 NGZF=  280
   ions per type =              72  48
   NGX,Y,Z   is equivalent  to a cutoff of  11.02, 10.84, 11.19 a.u.
   NGXF,Y,Z  is equivalent  to a cutoff of  22.04, 21.68, 22.37 a.u.

 SYSTEM =  Si and Ge interface calculation         
 POSCAR =  Si+Ge                                   

 Startparameter for this run:
   NWRITE =      2    write-flag & timer
   PREC   = normal    normal or accurate (medium, high low for compatibility)
   ISTART =      0    job   : 0-new  1-cont  2-samecut
   ICHARG =      2    charge: 1-file 2-atom 10-const
   ISPIN  =      2    spin polarized calculation?
   LNONCOLLINEAR =      F non collinear calculations
   LSORBIT =      F    spin-orbit coupling
   INIWAV =      1    electr: 0-lowe 1-rand  2-diag
   LASPH  =      T    aspherical Exc in radial PAW
 Electronic Relaxation 1
   ENCUT  =  700.0 eV  51.45 Ry    7.17 a.u.  35.15 37.05 22.44*2*pi/ulx,y,z
   ENINI  =  700.0     initial cutoff
   ENAUG  =  900.0 eV  augmentation charge cutoff
   NELM   =    100;   NELMIN=  2; NELMDL= -5     # of ELM steps 
   EDIFF  = 0.1E-06   stopping-criterion for ELM
   LREAL  =      T    real-space projection
   NLSPLINE    = F    spline interpolate recip. space projectors
   LCOMPAT=      F    compatible to vasp.4.4
   GGA_COMPAT  = T    GGA compatible to vasp.4.4-vasp.4.6
   LMAXPAW     = -100 max onsite density
   LMAXMIX     =    6 max onsite mixed and CHGCAR
   VOSKOWN=      0    Vosko Wilk Nusair interpolation
   ROPT   =   -0.00050  -0.00050
 Ionic relaxation
   EDIFFG = 0.1E-05   stopping-criterion for IOM
   NSW    =      0    number of steps for IOM
   NBLOCK =      1;   KBLOCK =      1    inner block; outer block 
   IBRION =     -1    ionic relax: 0-MD 1-quasi-New 2-CG
   NFREE  =      0    steps in history (QN), initial steepest desc. (CG)
   ISIF   =      2    stress and relaxation
   IWAVPR =     10    prediction:  0-non 1-charg 2-wave 3-comb
   ISYM   =      2    0-nonsym 1-usesym 2-fastsym
   LCORR  =      T    Harris-Foulkes like correction to forces

   POTIM  = 0.5000    time-step for ionic-motion
   TEIN   =    0.0    initial temperature
   TEBEG  =    0.0;   TEEND  =   0.0 temperature during run
   SMASS  =  -3.00    Nose mass-parameter (am)
   estimated Nose-frequenzy (Omega)   =  0.10E-29 period in steps = 0.13E+47 mass=  -0.607E-26a.u.
   SCALEE = 1.0000    scale energy and forces
   NPACO  =    256;   APACO  = 10.0  distance and # of slots for P.C.
   PSTRESS=    0.0 pullay stress

  Mass of Ions in am
   POMASS =  28.09 72.61
  Ionic Valenz
   ZVAL   =   4.00  4.00
  Atomic Wigner-Seitz radii
   RWIGS  =  -1.00 -1.00
  virtual crystal weights 
   VCA    =   1.00  1.00
   NELECT =     480.0000    total number of electrons
   NUPDOWN=       1.0000    fix difference up-down

 DOS related values:
   EMIN   =  10.00;   EMAX   =-10.00  energy-range for DOS
   EFERMI =   0.00;   METHOD = LEGACY      
   ISMEAR =     0;   SIGMA  =   0.01  broadening in eV -4-tet -1-fermi 0-gaus

 Electronic relaxation 2 (details)
   IALGO  =     38    algorithm
   LDIAG  =      T    sub-space diagonalisation (order eigenvalues)
   LSUBROT=      F    optimize rotation matrix (better conditioning)
   TURBO    =      0    0=normal 1=particle mesh
   IRESTART =      0    0=no restart 2=restart with 2 vectors
   NREBOOT  =      0    no. of reboots
   NMIN     =      0    reboot dimension
   EREF     =   0.00    reference energy to select bands
   IMIX   =      4    mixing-type and parameters
     AMIX     =   0.60;   BMIX     =  1.00
     AMIX_MAG =   2.40;   BMIX_MAG =  1.00
     AMIN     =   0.10
     WC   =   100.;   INIMIX=   1;  MIXPRE=   1;  MAXMIX= -45

 Intra band minimization:
   WEIMIN = 0.0000     energy-eigenvalue tresh-hold
   EBREAK =  0.87E-10  absolut break condition
   DEPER  =   0.30     relativ break condition  

   TIME   =   0.40     timestep for ELM

  volume/ion in A,a.u.               =      24.26       163.69
  Fermi-wavevector in a.u.,A,eV,Ry     =   0.897741  1.696485 10.965473  0.805940
  Thomas-Fermi vector in A             =   2.020363
 
 Write flags
   LWAVE        =      F    write WAVECAR
   LDOWNSAMPLE  =      F    k-point downsampling of WAVECAR
   LCHARG       =      T    write CHGCAR
   LVTOT        =      F    write LOCPOT, total local potential
   LVHAR        =      T    write LOCPOT, Hartree potential only
   WRT_POTENTIAL=  hartree ionic  ! write potential to hdf5 file
   LELF         =      F    write electronic localiz. function (ELF)
   LORBIT       =      0    0 simple, 1 ext, 2 COOP (PROOUT), +10 PAW based schemes


 Dipole corrections
   LMONO      =      F    monopole corrections only (constant potential shift)
   LDIPOL     =      F    correct potential (dipole corrections)
   IDIPOL     =      0    1-x, 2-y, 3-z, 4-all directions 
   EPSILON    =  1.0000000 bulk dielectric constant
   LVACPOTAV  =      F  vacuum potentials using an averaging scheme for the charge density
   VACPOTFLAT =  0.1000000 required flatness to determine vacuum potential
 Exchange correlation treatment:
   GGA     = PE    functional components
   XC_C    = 1    coefficients multiplying the functional components
   LIBXC   =     F    Libxc                    
   VOSKOWN =     0    Vosko Wilk Nusair interpolation
   LHFCALC =     F    Hartree Fock is set to
   LHFONE  =     F    Hartree Fock one center treatment
   AEXX    =    0.0000 exact exchange contribution

 Parameters of functionals:
   PE:
     No parameter
 
 Van der Waals corrections
   IVDW    =     0    specifies the selected vdW correction

 Linear response parameters
   LEPSILON=     F    determine dielectric tensor
   LRPA    =     F    only Hartree local field effects (RPA)
   LNABLA  =     F    use nabla operator in PAW spheres
   LVEL    =     F    velocity operator in full k-point grid
   CSHIFT  =0.1000    complex shift for real part using Kramers Kronig
   OMEGAMAX=  -1.0    maximum frequency
   DEG_THRESHOLD= 0.2000000E-02 threshold for treating states as degnerate
   RTIME   =   -0.100 relaxation time in fs
  (WPLASMAI=    0.000 imaginary part of plasma frequency in eV, 0.658/RTIME)
   DFIELD  = 0.0000000 0.0000000 0.0000000 field for delta impulse in time
 
  Optional k-point grid parameters
   LKPOINTS_OPT  =     F    use optional k-point grid
   KPOINTS_OPT_MODE=     1    mode for optional k-point grid
 
 Orbital magnetization related:
   ORBITALMAG=     F  switch on orbital magnetization
   LCHIMAG   =     F  perturbation theory with respect to B field
   DQ        =  0.001000  dq finite difference perturbation B field
   LLRAUG    =     F  two centre corrections for induced B field
   LBONE     =     F  B-component reconstruction in AE one-centre
   LVGVCALC  =     T  calculate vGv susceptibility
   LVGVAPPL  =     F  apply vGv susceptibility instead of pGv for G=0

 Random number generation:
   RANDOM_GENERATOR = DEFAULT
   PCG_SEED         = not used


--------------------------------------------------------------------------------------------------------


 Static calculation
 charge density and potential will be updated during run
 spin polarized calculation
 Variant of blocked Davidson
 Davidson routine will perform the subspace rotation
 perform sub-space diagonalisation
    after iterative eigenvector-optimisation
 modified Broyden-mixing scheme, WC =      100.0
 initial mixing is a Kerker type mixing with AMIX =  0.6000 and BMIX =      1.0000
 Hartree-type preconditioning will be used
 using additional bands           48
 real space projection scheme for non local part
 use partial core corrections
 calculate Harris-corrections to forces 
   (improved forces if not selfconsistent)
 use gradient corrections 
 use of overlap-Matrix (Vanderbilt PP)
 Gauss-broadening in eV      SIGMA  =   0.01


--------------------------------------------------------------------------------------------------------


  energy-cutoff  :      700.00
  volume of cell :     2910.80
      direct lattice vectors                 reciprocal lattice vectors
    16.293001175  0.000000000  0.000000000     0.061376047  0.000000000  0.000000000
     0.000000000 17.174329758  0.000000000     0.000000000  0.058226435 -0.000000001
     0.000000000  0.000000253 10.402342796     0.000000000  0.000000000  0.096132191

  length of vectors
    16.293001175 17.174329758 10.402342796     0.061376047  0.058226435  0.096132191


 
 k-points in units of 2pi/SCALE and weight: Automatic KPOINTS generated             
   0.00000000  0.00000000  0.00000000       0.083
   0.03068802  0.00000000  0.00000000       0.083
   0.00000000  0.02911322 -0.00000000       0.083
   0.03068802  0.02911322 -0.00000000       0.083
   0.00000000  0.00000000  0.03204406       0.167
   0.03068802  0.00000000  0.03204406       0.167
   0.00000000  0.02911322  0.03204406       0.167
   0.03068802  0.02911322  0.03204406       0.167
 
 k-points in reciprocal lattice and weights: Automatic KPOINTS generated             
   0.00000000  0.00000000  0.00000000       0.083
   0.50000000  0.00000000  0.00000000       0.083
   0.00000000  0.50000000  0.00000000       0.083
   0.50000000  0.50000000  0.00000000       0.083
   0.00000000  0.00000000  0.33333333       0.167
   0.50000000  0.00000000  0.33333333       0.167
   0.00000000  0.50000000  0.33333333       0.167
   0.50000000  0.50000000  0.33333333       0.167
 
 position of ions in fractional coordinates (direct lattice) 
   0.13037890  0.82620466  0.41275215
   0.96371245  0.07620391  0.00000006
   0.79704571  0.42620403  0.08255048
   0.63037908  0.77620417  0.16510089
   0.46371227  0.12620449  0.24765132
   0.29704553  0.47620463  0.33020181
   0.46371227  0.82620466  0.41275215
   0.29704580  0.07620391  0.00000006
   0.13037908  0.42620403  0.08255048
   0.96371239  0.77620417  0.16510089
   0.79704559  0.12620449  0.24765132
   0.63037884  0.47620463  0.33020181
   0.79704559  0.82620466  0.41275215
   0.63037914  0.07620391  0.00000006
   0.46371242  0.42620403  0.08255048
   0.29704577  0.77620417  0.16510089
   0.13037898  0.12620449  0.24765132
   0.96371222  0.47620463  0.33020181
   0.21371222  0.57620478  0.41275209
   0.04704577  0.82620400  0.00000000
   0.88037908  0.17620420  0.08255047
   0.71371233  0.52620447  0.16510080
   0.54704559  0.87620461  0.24765126
   0.38037896  0.22620463  0.33020163
   0.54704559  0.57620478  0.41275209
   0.38037908  0.82620400  0.00000000
   0.21371238  0.17620420  0.08255047
   0.04704569  0.52620447  0.16510080
   0.88037896  0.87620461  0.24765126
   0.71371233  0.22620463  0.33020163
   0.88037890  0.57620478  0.41275209
   0.71371239  0.82620400  0.00000000
   0.54704571  0.17620420  0.08255047
   0.38037899  0.52620447  0.16510080
   0.21371223  0.87620461  0.24765126
   0.04704558  0.22620463  0.33020163
   0.13037890  0.32620478  0.41275215
   0.96371239  0.57620400  0.00000002
   0.79704571  0.92620414  0.08255044
   0.63037902  0.27620423  0.16510080
   0.46371227  0.62620449  0.24765132
   0.29704565  0.97620463  0.33020163
   0.46371227  0.32620478  0.41275215
   0.29704577  0.57620400  0.00000002
   0.13037905  0.92620414  0.08255044
   0.96371239  0.27620423  0.16510080
   0.79704559  0.62620449  0.24765132
   0.63037896  0.97620463  0.33020163
   0.79704559  0.32620478  0.41275215
   0.63037914  0.57620400  0.00000002
   0.46371239  0.92620414  0.08255044
   0.29704574  0.27620423  0.16510080
   0.13037898  0.62620449  0.24765132
   0.96371233  0.97620463  0.33020163
   0.21371222  0.07620478  0.41275206
   0.04704577  0.32620391  0.00000006
   0.88037908  0.67620403  0.08255045
   0.71371239  0.02620423  0.16510081
   0.54704559  0.37620449  0.24765126
   0.38037884  0.72620475  0.33020163
   0.54704559  0.07620478  0.41275206
   0.38037911  0.32620391  0.00000006
   0.21371241  0.67620403  0.08255045
   0.04704573  0.02620423  0.16510081
   0.88037896  0.37620449  0.24765126
   0.71371222  0.72620475  0.33020163
   0.88037896  0.07620478  0.41275206
   0.71371245  0.32620391  0.00000006
   0.54704577  0.67620403  0.08255045
   0.38037908  0.02620423  0.16510081
   0.21371229  0.37620449  0.24765126
   0.04704554  0.72620475  0.33020163
   0.70953399  0.68195414  0.54612887
   0.33453402  0.29306507  0.61022770
   0.95953405  0.90417624  0.67432654
   0.58453411  0.51528740  0.73842549
   0.20953417  0.12639832  0.80252433
   0.83453399  0.73750925  0.86662328
   0.20953405  0.68195414  0.54612887
   0.83453411  0.29306507  0.61022770
   0.45953405  0.90417618  0.67432654
   0.08453417  0.51528740  0.73842549
   0.70953423  0.12639832  0.80252433
   0.33453411  0.73750925  0.86662328
   0.08453393  0.43195403  0.54612887
   0.70953405  0.04306507  0.61022782
   0.33453408  0.65417624  0.67432666
   0.95953417  0.26528740  0.73842549
   0.58453429  0.87639844  0.80252445
   0.20953393  0.48750925  0.86662328
   0.58453399  0.43195403  0.54612887
   0.20953405  0.04306507  0.61022770
   0.83453405  0.65417612  0.67432654
   0.45953411  0.26528728  0.73842549
   0.08453417  0.87639832  0.80252433
   0.70953399  0.48750925  0.86662328
   0.83453399  0.43195403  0.54612887
   0.45953399  0.04306507  0.61022770
   0.08453405  0.65417612  0.67432654
   0.70953411  0.26528728  0.73842549
   0.33453423  0.87639839  0.80252433
   0.95953399  0.48750925  0.86662328
   0.33453399  0.43195403  0.54612887
   0.95953405  0.04306507  0.61022770
   0.58453405  0.65417624  0.67432654
   0.20953417  0.26528728  0.73842549
   0.83453423  0.87639839  0.80252433
   0.45953411  0.48750925  0.86662328
   0.95953393  0.68195414  0.54612887
   0.58453399  0.29306507  0.61022770
   0.20953393  0.90417624  0.67432654
   0.83453411  0.51528716  0.73842549
   0.45953423  0.12639832  0.80252433
   0.08453393  0.73750925  0.86662328
   0.45953399  0.68195414  0.54612887
   0.08453405  0.29306507  0.61022770
   0.70953411  0.90417624  0.67432666
   0.33453417  0.51528740  0.73842549
   0.95953423  0.12639832  0.80252433
   0.58453399  0.73750925  0.86662328
 
 position of ions in cartesian coordinates  (Angst):
   2.12426360 14.18951135  4.29358936
  15.70176815  1.30875111  0.00000059
  12.98626666  7.31976851  0.85871840
  10.27076711 13.33078640  1.71743602
   7.55526464  2.16747761  2.57615397
   4.83976315  8.17849550  3.43487237
   7.55526464 14.18951135  4.29358936
   4.83976752  1.30875111  0.00000059
   2.12426652  7.31976851  0.85871840
  15.70176717 13.33078640  1.71743602
  12.98626470  2.16747761  2.57615397
  10.27076321  8.17849550  3.43487237
  12.98626470 14.18951135  4.29358936
  10.27076807  1.30875111  0.00000059
   7.55526707  7.31976851  0.85871840
   4.83976703 13.33078640  1.71743602
   2.12426481  2.16747761  2.57615397
  15.70176425  8.17849550  3.43487237
   3.48201337  9.89593095  4.29358875
   0.76651674 14.18949998  0.00000000
  14.34401740  3.02618914  0.85871825
  11.62851591  9.03720908  1.71743510
   8.91301441 15.04822697  2.57615334
   6.19751487  3.88491306  3.43487051
   8.91301441  9.89593095  4.29358875
   6.19751681 14.18949998  0.00000000
   3.48201604  3.02618914  0.85871825
   0.76651553  9.03720908  1.71743510
  14.34401546 15.04822697  2.57615334
  11.62851591  3.88491306  3.43487051
  14.34401448  9.89593095  4.29358875
  11.62851687 14.18949998  0.00000000
   8.91301636  3.02618914  0.85871825
   6.19751535  9.03720908  1.71743510
   3.48201361 15.04822697  2.57615334
   0.76651371  3.88491306  3.43487051
   2.12426360  5.60234851  4.29358936
  15.70176717  9.89591754  0.00000024
  12.98626666 15.90693543  0.85871802
  10.27076613  4.74362253  1.71743510
   7.55526464 10.75464249  2.57615397
   4.83976509 16.76566038  3.43487051
   7.55526464  5.60234851  4.29358936
   4.83976703  9.89591754  0.00000024
   2.12426603 15.90693543  0.85871802
  15.70176717  4.74362253  1.71743510
  12.98626470 10.75464249  2.57615397
  10.27076517 16.76566038  3.43487051
  12.98626470  5.60234851  4.29358936
  10.27076807  9.89591754  0.00000024
   7.55526658 15.90693543  0.85871802
   4.83976656  4.74362253  1.71743510
   2.12426481 10.75464249  2.57615397
  15.70176621 16.76566038  3.43487051
   3.48201337  1.30876607  4.29358844
   0.76651674  5.60233355  0.00000059
  14.34401740 11.61335095  0.85871809
  11.62851687  0.45004009  1.71743525
   8.91301441  6.46106005  2.57615334
   6.19751292 12.47207998  3.43487051
   8.91301441  1.30876607  4.29358844
   6.19751730  5.60233355  0.00000059
   3.48201653 11.61335095  0.85871809
   0.76651607  0.45004009  1.71743525
  14.34401546  6.46106005  2.57615334
  11.62851396 12.47207998  3.43487051
  14.34401546  1.30876607  4.29358844
  11.62851785  5.60233355  0.00000059
   8.91301732 11.61335095  0.85871809
   6.19751681  0.45004009  1.71743525
   3.48201459  6.46106005  2.57615334
   0.76651304 12.47207998  3.43487051
  11.56043812 11.71210550  5.68101971
   5.45056316  5.03319632  6.34779776
  15.63368939 15.52862099  7.01457582
   9.52381492  8.84971590  7.68135511
   3.41394045  2.17080672  8.34813316
  13.59706326 12.66622730  9.01491245
   3.41393851 11.71210550  5.68101971
  13.59706522  5.03319632  6.34779776
   7.48718880 15.52861998  7.01457582
   1.37731530  8.84971590  7.68135511
  11.56044201  2.17080672  8.34813316
   5.45056463 12.66622730  9.01491245
   1.37731142  7.41852102  5.68101971
  11.56043909  0.73961388  6.34779900
   5.45056414 11.23503855  7.01457705
  15.63369133  4.55613346  7.68135511
   9.52381782 15.05155608  8.34813440
   3.41393657  8.37264486  9.01491245
   9.52381297  7.41852102  5.68101971
   3.41393851  0.73961388  6.34779776
  13.59706424 11.23503651  7.01457582
   7.48718978  4.55613141  7.68135511
   1.37731530 15.05155404  8.34813316
  11.56043812  8.37264486  9.01491245
  13.59706326  7.41852102  5.68101971
   7.48718782  0.73961388  6.34779776
   1.37731336 11.23503651  7.01457582
  11.56044007  4.55613141  7.68135511
   5.45056657 15.05155507  8.34813316
  15.63368841  8.37264486  9.01491245
   5.45056268  7.41852102  5.68101971
  15.63368939  0.73961388  6.34779776
   9.52381395 11.23503855  7.01457582
   3.41394045  4.55613141  7.68135511
  13.59706716 15.05155507  8.34813316
   7.48718978  8.37264486  9.01491245
  15.63368745 11.71210550  5.68101971
   9.52381297  5.03319632  6.34779776
   3.41393657 15.52862099  7.01457582
  13.59706522  8.84971181  7.68135511
   7.48719172  2.17080672  8.34813316
   1.37731142 12.66622730  9.01491245
   7.48718782 11.71210550  5.68101971
   1.37731336  5.03319632  6.34779776
  11.56044007 15.52862099  7.01457705
   5.45056559  8.84971590  7.68135511
  15.63369230  2.17080672  8.34813316
   9.52381297 12.66622730  9.01491245
 


--------------------------------------------------------------------------------------------------------


 k-point     1 :   0.0000 0.0000 0.0000  plane waves:  122369
 k-point     2 :   0.5000 0.0000 0.0000  plane waves:  122546
 k-point     3 :   0.0000 0.5000 0.0000  plane waves:  122390
 k-point     4 :   0.5000 0.5000 0.0000  plane waves:  122480
 k-point     5 :   0.0000 0.0000 0.3333  plane waves:  122341
 k-point     6 :   0.5000 0.0000 0.3333  plane waves:  122338
 k-point     7 :   0.0000 0.5000 0.3333  plane waves:  122410
 k-point     8 :   0.5000 0.5000 0.3333  plane waves:  122416

 maximum and minimum number of plane-waves per node :      7748     7603

 maximum number of plane-waves:    122546
 maximum index in each direction: 
   IXMAX=   35   IYMAX=   37   IZMAX=   22
   IXMIN=  -35   IYMIN=  -37   IZMIN=  -22


 real space projection operators:
  total allocation   :      17762.34 KBytes
  max/ min on nodes  :       1190.02        960.08


 parallel 3D FFT for wavefunctions:
    minimum data exchange during FFTs selected (reduces bandwidth)
 parallel 3D FFT for charge:
    minimum data exchange during FFTs selected (reduces bandwidth)


 total amount of memory used by VASP MPI-rank0   211389. kBytes
=======================================================================

   base      :      30000. kBytes
   nonlr-proj:       6255. kBytes
   fftplans  :      17777. kBytes
   grid      :      14565. kBytes
   one-center:        129. kBytes
   wavefun   :     142663. kBytes
 
     INWAV:  cpu time      0.0001: real time      0.0004
 Broyden mixing: mesh for mixing (old mesh)
   NGX = 71   NGY = 75   NGZ = 45
  (NGX  =216   NGY  =224   NGZ  =140)
  gives a total of 239625 points

 initial charge density was supplied:
 charge density of overlapping atoms calculated
 number of electron     480.0000000 magnetization       1.0000000
 keeping initial charge density in first step


--------------------------------------------------------------------------------------------------------


 Maximum index for non-local projection operator          209
 Maximum index for augmentation-charges         2951 (set IRDMAX)


--------------------------------------------------------------------------------------------------------


 First call to EWALD:  gamma=   0.124
 Maximum number of real-space cells 2x 2x 4
 Maximum number of reciprocal cells 3x 3x 2

    FEWALD:  cpu time      0.0031: real time      0.0031


--------------------------------------- Ionic step        1  -------------------------------------------




--------------------------------------- Iteration      1(   1)  ---------------------------------------


    POTLOK:  cpu time      0.2056: real time      0.2074
    SETDIJ:  cpu time      1.0209: real time      1.0259
     EDDAV:  cpu time     25.5426: real time     25.7636
       DOS:  cpu time      0.0019: real time      0.0019
    --------------------------------------------
      LOOP:  cpu time     26.7712: real time     26.9989

 eigenvalue-minimisations  :  9216
 total energy-change (2. order) : 0.1959558E+04  (-0.2088954E+05)
 number of electron     480.0000000 magnetization       1.0000000
 augmentation part      480.0000000 magnetization       1.0000000

 Free energy of the ion-electron system (eV)
  ---------------------------------------------------
  alpha Z        PSCENC =       478.14092750
  Ewald energy   TEWEN  =    -12150.18913113
  -Hartree energ DENC   =     -1430.66836370
  -exchange      EXHF   =         0.00000000
  -V(xc)+E(xc)   XCENC  =     -1053.21879320
  PAW double counting   =     10575.88222728    -8613.76247617
  entropy T*S    EENTRO =        -0.00182104
  eigenvalues    EBANDS =      1692.77515282
  atomic energy  EATOM  =     12460.60057749
  Solvation  Ediel_sol  =         0.00000000
  ---------------------------------------------------
  free energy    TOTEN  =      1959.55829985 eV

  energy without entropy =     1959.56012090  energy(sigma->0) =     1959.55921037


--------------------------------------------------------------------------------------------------------




--------------------------------------- Iteration      1(   2)  ---------------------------------------


     EDDAV:  cpu time     28.6793: real time     28.9261
       DOS:  cpu time      0.0019: real time      0.0019
    --------------------------------------------
      LOOP:  cpu time     28.6811: real time     28.9279

 eigenvalue-minimisations  : 10776
 total energy-change (2. order) :-0.2285323E+04  (-0.2211530E+04)
 number of electron     480.0000000 magnetization       1.0000000
 augmentation part      480.0000000 magnetization       1.0000000

 Free energy of the ion-electron system (eV)
  ---------------------------------------------------
  alpha Z        PSCENC =       478.14092750
  Ewald energy   TEWEN  =    -12150.18913113
  -Hartree energ DENC   =     -1430.66836370
  -exchange      EXHF   =         0.00000000
  -V(xc)+E(xc)   XCENC  =     -1053.21879320
  PAW double counting   =     10575.88222728    -8613.76247617
  entropy T*S    EENTRO =        -0.00194403
  eigenvalues    EBANDS =      -592.54751307
  atomic energy  EATOM  =     12460.60057749
  Solvation  Ediel_sol  =         0.00000000
  ---------------------------------------------------
  free energy    TOTEN  =      -325.76448902 eV

  energy without entropy =     -325.76254499  energy(sigma->0) =     -325.76351701


--------------------------------------------------------------------------------------------------------




--------------------------------------- Iteration      1(   3)  ---------------------------------------


     EDDAV:  cpu time     30.4727: real time     30.7313
       DOS:  cpu time      0.0016: real time      0.0016
    --------------------------------------------
      LOOP:  cpu time     30.4743: real time     30.7329

 eigenvalue-minimisations  : 11616
 total energy-change (2. order) :-0.2152903E+03  (-0.2060025E+03)
 number of electron     480.0000000 magnetization       1.0000000
 augmentation part      480.0000000 magnetization       1.0000000

 Free energy of the ion-electron system (eV)
  ---------------------------------------------------
  alpha Z        PSCENC =       478.14092750
  Ewald energy   TEWEN  =    -12150.18913113
  -Hartree energ DENC   =     -1430.66836370
  -exchange      EXHF   =         0.00000000
  -V(xc)+E(xc)   XCENC  =     -1053.21879320
  PAW double counting   =     10575.88222728    -8613.76247617
  entropy T*S    EENTRO =        -0.00171739
  eigenvalues    EBANDS =      -807.83801077
  atomic energy  EATOM  =     12460.60057749
  Solvation  Ediel_sol  =         0.00000000
  ---------------------------------------------------
  free energy    TOTEN  =      -541.05476008 eV

  energy without entropy =     -541.05304269  energy(sigma->0) =     -541.05390139


--------------------------------------------------------------------------------------------------------




--------------------------------------- Iteration      1(   4)  ---------------------------------------


     EDDAV:  cpu time     29.4340: real time     29.6815
       DOS:  cpu time      0.0015: real time      0.0015
    --------------------------------------------
      LOOP:  cpu time     29.4356: real time     29.6830

 eigenvalue-minimisations  : 11112
 total energy-change (2. order) :-0.9064046E+01  (-0.8797130E+01)
 number of electron     480.0000000 magnetization       1.0000000
 augmentation part      480.0000000 magnetization       1.0000000

 Free energy of the ion-electron system (eV)
  ---------------------------------------------------
  alpha Z        PSCENC =       478.14092750
  Ewald energy   TEWEN  =    -12150.18913113
  -Hartree energ DENC   =     -1430.66836370
  -exchange      EXHF   =         0.00000000
  -V(xc)+E(xc)   XCENC  =     -1053.21879320
  PAW double counting   =     10575.88222728    -8613.76247617
  entropy T*S    EENTRO =        -0.00307235
  eigenvalues    EBANDS =      -816.90070228
  atomic energy  EATOM  =     12460.60057749
  Solvation  Ediel_sol  =         0.00000000
  ---------------------------------------------------
  free energy    TOTEN  =      -550.11880656 eV

  energy without entropy =     -550.11573421  energy(sigma->0) =     -550.11727038


--------------------------------------------------------------------------------------------------------




--------------------------------------- Iteration      1(   5)  ---------------------------------------


     EDDAV:  cpu time     32.7365: real time     33.0157
       DOS:  cpu time      0.0017: real time      0.0017
    CHARGE:  cpu time      1.2876: real time      1.2986
    MIXING:  cpu time      0.0067: real time      0.0068
    --------------------------------------------
      LOOP:  cpu time     34.0325: real time     34.3228

 eigenvalue-minimisations  : 12688
 total energy-change (2. order) :-0.3740599E+00  (-0.3703678E+00)
 number of electron     479.9999997 magnetization       1.0000000
 augmentation part      -49.2466217 magnetization      -0.0581835

 Broyden mixing:
  rms(total) = 0.29302E+01    rms(broyden)= 0.29302E+01
  rms(prec ) = 0.32086E+01
  weight for this iteration     100.00

 Free energy of the ion-electron system (eV)
  ---------------------------------------------------
  alpha Z        PSCENC =       478.14092750
  Ewald energy   TEWEN  =    -12150.18913113
  -Hartree energ DENC   =     -1430.66836370
  -exchange      EXHF   =         0.00000000
  -V(xc)+E(xc)   XCENC  =     -1053.21879320
  PAW double counting   =     10575.88222728    -8613.76247617
  entropy T*S    EENTRO =        -0.00310106
  eigenvalues    EBANDS =      -817.27473350
  atomic energy  EATOM  =     12460.60057749
  Solvation  Ediel_sol  =         0.00000000
  ---------------------------------------------------
  free energy    TOTEN  =      -550.49286648 eV

  energy without entropy =     -550.48976542  energy(sigma->0) =     -550.49131595


--------------------------------------------------------------------------------------------------------




--------------------------------------- Iteration      1(   6)  ---------------------------------------


    POTLOK:  cpu time      0.1926: real time      0.1944
    SETDIJ:  cpu time      0.9987: real time      1.0038
     EDDAV:  cpu time     29.3059: real time     29.5532
       DOS:  cpu time      0.0016: real time      0.0016
    CHARGE:  cpu time      1.2930: real time      1.3030
    MIXING:  cpu time      0.0066: real time      0.0066
    --------------------------------------------
      LOOP:  cpu time     31.7983: real time     32.0625

 eigenvalue-minimisations  : 11048
 total energy-change (2. order) : 0.1018716E+02  (-0.3694487E+01)
 number of electron     479.9999997 magnetization       1.0000000
 augmentation part      -49.2400870 magnetization      -0.0474598

 Broyden mixing:
  rms(total) = 0.12860E+01    rms(broyden)= 0.12860E+01
  rms(prec ) = 0.14736E+01
  weight for this iteration     100.00

 eigenvalues of (default mixing * dielectric matrix)
  average eigenvalue GAMMA=   1.5367
  1.5367

 Free energy of the ion-electron system (eV)
  ---------------------------------------------------
  alpha Z        PSCENC =       478.14092750
  Ewald energy   TEWEN  =    -12150.18913113
  -Hartree energ DENC   =     -1563.86715922
  -exchange      EXHF   =         0.00000000
  -V(xc)+E(xc)   XCENC  =     -1036.96549707
  PAW double counting   =     20718.99156966   -18763.99866951
  entropy T*S    EENTRO =        -0.00319205
  eigenvalues    EBANDS =      -683.01513404
  atomic energy  EATOM  =     12460.60057749
  Solvation  Ediel_sol  =         0.00000000
  ---------------------------------------------------
  free energy    TOTEN  =      -540.30570838 eV

  energy without entropy =     -540.30251633  energy(sigma->0) =     -540.30411235


--------------------------------------------------------------------------------------------------------




--------------------------------------- Iteration      1(   7)  ---------------------------------------


    POTLOK:  cpu time      0.1924: real time      0.1938
    SETDIJ:  cpu time      1.0047: real time      1.0098
     EDDAV:  cpu time     29.8611: real time     30.1186
       DOS:  cpu time      0.0016: real time      0.0016
    CHARGE:  cpu time      1.2984: real time      1.3088
    MIXING:  cpu time      0.0058: real time      0.0058
    --------------------------------------------
      LOOP:  cpu time     32.3639: real time     32.6385

 eigenvalue-minimisations  : 11288
 total energy-change (2. order) :-0.9790652E-01  (-0.2170013E+01)
 number of electron     479.9999997 magnetization       1.0000000
 augmentation part      -49.0885155 magnetization      -0.0542175

 Broyden mixing:
  rms(total) = 0.79072E+00    rms(broyden)= 0.79072E+00
  rms(prec ) = 0.10950E+01
  weight for this iteration     100.00

 eigenvalues of (default mixing * dielectric matrix)
  average eigenvalue GAMMA=   1.1499
  1.7880  0.5117

 Free energy of the ion-electron system (eV)
  ---------------------------------------------------
  alpha Z        PSCENC =       478.14092750
  Ewald energy   TEWEN  =    -12150.18913113
  -Hartree energ DENC   =     -1589.75196078
  -exchange      EXHF   =         0.00000000
  -V(xc)+E(xc)   XCENC  =     -1029.59595958
  PAW double counting   =     27821.59542731   -25869.58320944
  entropy T*S    EENTRO =        -0.00241645
  eigenvalues    EBANDS =      -661.61786982
  atomic energy  EATOM  =     12460.60057749
  Solvation  Ediel_sol  =         0.00000000
  ---------------------------------------------------
  free energy    TOTEN  =      -540.40361490 eV

  energy without entropy =     -540.40119845  energy(sigma->0) =     -540.40240667


--------------------------------------------------------------------------------------------------------




--------------------------------------- Iteration      1(   8)  ---------------------------------------


    POTLOK:  cpu time      0.1904: real time      0.1919
    SETDIJ:  cpu time      0.9982: real time      1.0040
     EDDAV:  cpu time     31.0384: real time     31.3249
       DOS:  cpu time      0.0017: real time      0.0017
    CHARGE:  cpu time      1.2963: real time      1.3065
    MIXING:  cpu time      0.0065: real time      0.0065
    --------------------------------------------
      LOOP:  cpu time     33.5313: real time     33.8355

 eigenvalue-minimisations  : 11824
 total energy-change (2. order) : 0.7688031E+00  (-0.5638248E+00)
 number of electron     479.9999997 magnetization       1.0000000
 augmentation part      -48.9569334 magnetization      -0.0543278

 Broyden mixing:
  rms(total) = 0.31128E+00    rms(broyden)= 0.31128E+00
  rms(prec ) = 0.56076E+00
  weight for this iteration     100.00

 eigenvalues of (default mixing * dielectric matrix)
  average eigenvalue GAMMA=   1.0176
  1.8142  0.6193  0.6193

 Free energy of the ion-electron system (eV)
  ---------------------------------------------------
  alpha Z        PSCENC =       478.14092750
  Ewald energy   TEWEN  =    -12150.18913113
  -Hartree energ DENC   =     -1616.00467614
  -exchange      EXHF   =         0.00000000
  -V(xc)+E(xc)   XCENC  =     -1026.16728168
  PAW double counting   =     32810.15759774   -30859.60022733
  entropy T*S    EENTRO =        -0.00292423
  eigenvalues    EBANDS =      -636.56967397
  atomic energy  EATOM  =     12460.60057749
  Solvation  Ediel_sol  =         0.00000000
  ---------------------------------------------------
  free energy    TOTEN  =      -539.63481176 eV

  energy without entropy =     -539.63188752  energy(sigma->0) =     -539.63334964


--------------------------------------------------------------------------------------------------------




--------------------------------------- Iteration      1(   9)  ---------------------------------------


    POTLOK:  cpu time      0.1908: real time      0.1923
    SETDIJ:  cpu time      0.9970: real time      1.0021
     EDDAV:  cpu time     30.8281: real time     31.0991
       DOS:  cpu time      0.0016: real time      0.0016
    CHARGE:  cpu time      1.2944: real time      1.3048
    MIXING:  cpu time      0.0065: real time      0.0065
    --------------------------------------------
      LOOP:  cpu time     33.3184: real time     33.6065

 eigenvalue-minimisations  : 11704
 total energy-change (2. order) : 0.2707487E+00  (-0.1675731E+00)
 number of electron     479.9999997 magnetization       1.0000000
 augmentation part      -49.0027276 magnetization      -0.0531394

 Broyden mixing:
  rms(total) = 0.15139E+00    rms(broyden)= 0.15139E+00
  rms(prec ) = 0.22216E+00
  weight for this iteration     100.00

 eigenvalues of (default mixing * dielectric matrix)
  average eigenvalue GAMMA=   0.9827
  1.7400  1.1484  0.6739  0.3686

 Free energy of the ion-electron system (eV)
  ---------------------------------------------------
  alpha Z        PSCENC =       478.14092750
  Ewald energy   TEWEN  =    -12150.18913113
  -Hartree energ DENC   =     -1614.56535009
  -exchange      EXHF   =         0.00000000
  -V(xc)+E(xc)   XCENC  =     -1025.76253661
  PAW double counting   =     33977.38332275   -32027.03013816
  entropy T*S    EENTRO =        -0.00275005
  eigenvalues    EBANDS =      -637.93898474
  atomic energy  EATOM  =     12460.60057749
  Solvation  Ediel_sol  =         0.00000000
  ---------------------------------------------------
  free energy    TOTEN  =      -539.36406305 eV

  energy without entropy =     -539.36131300  energy(sigma->0) =     -539.36268802


--------------------------------------------------------------------------------------------------------




--------------------------------------- Iteration      1(  10)  ---------------------------------------


    POTLOK:  cpu time      0.1907: real time      0.1923
    SETDIJ:  cpu time      1.0006: real time      1.0057
     EDDAV:  cpu time     29.0054: real time     29.2595
       DOS:  cpu time      0.0016: real time      0.0016
    CHARGE:  cpu time      1.2925: real time      1.3029
    MIXING:  cpu time      0.0068: real time      0.0068
    --------------------------------------------
      LOOP:  cpu time     31.4975: real time     31.7687

 eigenvalue-minimisations  : 10888
 total energy-change (2. order) : 0.3570700E-01  (-0.4173986E-01)
 number of electron     479.9999997 magnetization       1.0000000
 augmentation part      -49.0619533 magnetization      -0.0540736

 Broyden mixing:
  rms(total) = 0.85702E-01    rms(broyden)= 0.85702E-01
  rms(prec ) = 0.10441E+00
  weight for this iteration     100.00

 eigenvalues of (default mixing * dielectric matrix)
  average eigenvalue GAMMA=   0.9746
  1.5678  1.5678  0.7940  0.5791  0.3644

 Free energy of the ion-electron system (eV)
  ---------------------------------------------------
  alpha Z        PSCENC =       478.14092750
  Ewald energy   TEWEN  =    -12150.18913113
  -Hartree energ DENC   =     -1610.05229804
  -exchange      EXHF   =         0.00000000
  -V(xc)+E(xc)   XCENC  =     -1026.21787778
  PAW double counting   =     34282.66245200   -32332.18853768
  entropy T*S    EENTRO =        -0.00297810
  eigenvalues    EBANDS =      -642.08149029
  atomic energy  EATOM  =     12460.60057749
  Solvation  Ediel_sol  =         0.00000000
  ---------------------------------------------------
  free energy    TOTEN  =      -539.32835605 eV

  energy without entropy =     -539.32537795  energy(sigma->0) =     -539.32686700


--------------------------------------------------------------------------------------------------------




--------------------------------------- Iteration      1(  11)  ---------------------------------------


    POTLOK:  cpu time      0.1920: real time      0.1936
    SETDIJ:  cpu time      0.9980: real time      1.0033
     EDDAV:  cpu time     28.8054: real time     29.0607
       DOS:  cpu time      0.0016: real time      0.0016
    CHARGE:  cpu time      1.2872: real time      1.2977
    MIXING:  cpu time      0.0074: real time      0.0074
    --------------------------------------------
      LOOP:  cpu time     31.2914: real time     31.5643

 eigenvalue-minimisations  : 10848
 total energy-change (2. order) : 0.4785744E-02  (-0.1009643E-01)
 number of electron     479.9999997 magnetization       1.0000000
 augmentation part      -49.0891517 magnetization      -0.0538634

 Broyden mixing:
  rms(total) = 0.46795E-01    rms(broyden)= 0.46795E-01
  rms(prec ) = 0.58268E-01
  weight for this iteration     100.00

 eigenvalues of (default mixing * dielectric matrix)
  average eigenvalue GAMMA=   0.9886
  1.6528  1.6528  1.0982  0.3739  0.5769  0.5769

 Free energy of the ion-electron system (eV)
  ---------------------------------------------------
  alpha Z        PSCENC =       478.14092750
  Ewald energy   TEWEN  =    -12150.18913113
  -Hartree energ DENC   =     -1607.35846995
  -exchange      EXHF   =         0.00000000
  -V(xc)+E(xc)   XCENC  =     -1026.48513434
  PAW double counting   =     34353.58359224   -32403.03470163
  entropy T*S    EENTRO =        -0.00314767
  eigenvalues    EBANDS =      -644.57808282
  atomic energy  EATOM  =     12460.60057749
  Solvation  Ediel_sol  =         0.00000000
  ---------------------------------------------------
  free energy    TOTEN  =      -539.32357030 eV

  energy without entropy =     -539.32042264  energy(sigma->0) =     -539.32199647


--------------------------------------------------------------------------------------------------------




--------------------------------------- Iteration      1(  12)  ---------------------------------------


    POTLOK:  cpu time      0.1881: real time      0.1912
    SETDIJ:  cpu time      0.9962: real time      1.0013
     EDDAV:  cpu time     28.9639: real time     29.2112
       DOS:  cpu time      0.0016: real time      0.0016
    CHARGE:  cpu time      1.2861: real time      1.2957
    MIXING:  cpu time      0.0074: real time      0.0074
    --------------------------------------------
      LOOP:  cpu time     31.4432: real time     31.7084

 eigenvalue-minimisations  : 10928
 total energy-change (2. order) :-0.6661130E-04  (-0.2548113E-02)
 number of electron     479.9999997 magnetization       1.0000000
 augmentation part      -49.0882581 magnetization      -0.0540878

 Broyden mixing:
  rms(total) = 0.26461E-01    rms(broyden)= 0.26461E-01
  rms(prec ) = 0.36136E-01
  weight for this iteration     100.00

 eigenvalues of (default mixing * dielectric matrix)
  average eigenvalue GAMMA=   0.9921
  1.6289  1.6289  1.5056  0.6696  0.6696  0.3790  0.4628

 Free energy of the ion-electron system (eV)
  ---------------------------------------------------
  alpha Z        PSCENC =       478.14092750
  Ewald energy   TEWEN  =    -12150.18913113
  -Hartree energ DENC   =     -1606.96956009
  -exchange      EXHF   =         0.00000000
  -V(xc)+E(xc)   XCENC  =     -1026.55281150
  PAW double counting   =     34415.01988176   -32464.46227832
  entropy T*S    EENTRO =        -0.00301702
  eigenvalues    EBANDS =      -644.90822560
  atomic energy  EATOM  =     12460.60057749
  Solvation  Ediel_sol  =         0.00000000
  ---------------------------------------------------
  free energy    TOTEN  =      -539.32363692 eV

  energy without entropy =     -539.32061990  energy(sigma->0) =     -539.32212841


--------------------------------------------------------------------------------------------------------




--------------------------------------- Iteration      1(  13)  ---------------------------------------


    POTLOK:  cpu time      0.1900: real time      0.1913
    SETDIJ:  cpu time      0.9990: real time      1.0041
     EDDAV:  cpu time     29.2971: real time     29.5545
       DOS:  cpu time      0.0016: real time      0.0016
    CHARGE:  cpu time      1.2833: real time      1.2938
    MIXING:  cpu time      0.0072: real time      0.0072
    --------------------------------------------
      LOOP:  cpu time     31.7780: real time     32.0525

 eigenvalue-minimisations  : 11112
 total energy-change (2. order) : 0.4251064E-03  (-0.7642753E-03)
 number of electron     479.9999997 magnetization       1.0000000
 augmentation part      -49.0849869 magnetization      -0.0540393

 Broyden mixing:
  rms(total) = 0.15139E-01    rms(broyden)= 0.15139E-01
  rms(prec ) = 0.19305E-01
  weight for this iteration     100.00

 eigenvalues of (default mixing * dielectric matrix)
  average eigenvalue GAMMA=   1.0059
  1.7734  1.7734  1.6271  0.7484  0.7484  0.5673  0.3675  0.4416

 Free energy of the ion-electron system (eV)
  ---------------------------------------------------
  alpha Z        PSCENC =       478.14092750
  Ewald energy   TEWEN  =    -12150.18913113
  -Hartree energ DENC   =     -1607.31511179
  -exchange      EXHF   =         0.00000000
  -V(xc)+E(xc)   XCENC  =     -1026.53724416
  PAW double counting   =     34422.40192624   -32471.85857779
  entropy T*S    EENTRO =        -0.00305542
  eigenvalues    EBANDS =      -644.56352274
  atomic energy  EATOM  =     12460.60057749
  Solvation  Ediel_sol  =         0.00000000
  ---------------------------------------------------
  free energy    TOTEN  =      -539.32321181 eV

  energy without entropy =     -539.32015639  energy(sigma->0) =     -539.32168410


--------------------------------------------------------------------------------------------------------




--------------------------------------- Iteration      1(  14)  ---------------------------------------


    POTLOK:  cpu time      0.1880: real time      0.1907
    SETDIJ:  cpu time      0.9979: real time      1.0039
     EDDAV:  cpu time     28.9509: real time     29.2253
       DOS:  cpu time      0.0016: real time      0.0016
    CHARGE:  cpu time      1.2850: real time      1.2956
    MIXING:  cpu time      0.0092: real time      0.0093
    --------------------------------------------
      LOOP:  cpu time     31.4327: real time     31.7264

 eigenvalue-minimisations  : 10944
 total energy-change (2. order) : 0.1164077E-03  (-0.2147952E-03)
 number of electron     479.9999997 magnetization       1.0000000
[...]
   0.178E+02 -.142E+02 0.268E+02   -.158E+02 0.134E+02 -.248E+02   -.202E+01 0.115E+01 -.249E+01   -.920E-03 -.133E-03 -.203E-04
   -.113E+01 -.703E+01 0.901E+01   0.859E+00 0.660E+01 -.828E+01   0.152E+00 0.168E-01 -.874E+00   -.290E-03 0.264E-03 -.994E-04
   -.169E+01 0.211E+02 0.425E+01   0.188E+01 -.209E+02 -.470E+01   0.257E+00 -.124E+00 0.395E+00   0.478E-03 -.146E-03 0.497E-04
   0.172E+02 -.189E+02 -.176E+02   -.148E+02 0.203E+02 0.165E+02   -.198E+01 -.114E+01 0.856E+00   0.743E-03 -.293E-03 0.162E-03
   0.772E+01 -.159E+02 -.399E+02   -.746E+01 0.141E+02 0.383E+02   0.645E-01 0.139E+01 0.230E+01   0.738E-03 0.320E-03 -.356E-04
   -.505E+00 0.345E+02 0.440E+02   0.965E+00 -.339E+02 -.420E+02   -.835E-01 -.390E+00 -.291E+01   0.830E-03 0.196E-03 -.182E-03
   0.206E+02 -.936E+01 0.186E+02   -.193E+02 0.940E+01 -.170E+02   -.971E+00 0.129E+00 -.239E+01   0.346E-03 -.311E-03 -.169E-03
   -.754E+00 -.674E+01 0.900E+01   0.291E+00 0.656E+01 -.828E+01   0.432E+00 -.228E+00 -.601E+00   -.886E-03 0.176E-03 0.701E-04
   -.185E+00 0.207E+02 0.205E+01   0.449E+00 -.206E+02 -.214E+01   0.287E-01 0.495E-01 -.255E-01   -.812E-03 -.109E-03 0.875E-04
   0.133E+02 -.163E+02 -.278E+02   -.114E+02 0.174E+02 0.258E+02   -.242E+01 -.840E+00 0.242E+01   -.366E-03 -.163E-04 0.144E-03
   0.553E+01 -.173E+02 -.172E+02   -.589E+01 0.179E+02 0.169E+02   -.205E+00 -.615E+00 0.518E+00   0.756E-03 -.303E-03 0.131E-03
   0.778E+01 0.374E+02 -.908E+01   -.805E+01 -.380E+02 0.904E+01   0.135E+00 0.189E+00 -.697E+00   -.785E-03 0.276E-03 -.929E-04
   0.987E-01 -.119E+02 0.190E+02   -.341E+00 0.111E+02 -.193E+02   0.189E+00 0.473E+00 -.251E+00   0.228E-03 -.135E-04 0.431E-04
   0.252E+01 0.185E+02 0.369E+01   -.206E+01 -.188E+02 -.388E+01   -.608E+00 0.280E+00 0.104E+00   0.521E-03 -.228E-03 -.675E-04
   0.101E+02 0.108E+02 0.515E+01   -.103E+02 -.109E+02 -.487E+01   0.565E+00 -.251E+00 0.714E+00   -.103E-02 0.205E-03 0.934E-05
   0.768E+00 -.879E+01 0.137E+02   -.187E+00 0.920E+01 -.135E+02   -.110E+01 -.117E+00 0.137E+01   0.626E-03 -.251E-03 -.109E-03
   -.524E+01 -.417E+02 -.139E+02   0.540E+01 0.425E+02 0.130E+02   0.962E-01 0.890E+00 0.926E+00   -.866E-03 -.134E-03 0.828E-04
   -.106E+02 0.440E+02 -.292E+02   0.109E+02 -.445E+02 0.287E+02   0.696E+00 -.610E+00 0.246E+01   0.733E-03 0.262E-03 0.906E-04
   -.813E-01 -.164E+02 0.153E+02   0.296E+00 0.165E+02 -.153E+02   -.350E+00 -.551E+00 -.121E+01   -.270E-03 -.319E-03 -.255E-04
   -.194E+01 0.144E+02 0.434E+01   0.169E+01 -.136E+02 -.375E+01   0.198E+00 -.433E+00 -.304E+00   -.525E-03 -.330E-03 -.527E-04
   -.100E+02 0.865E+01 0.320E+01   0.107E+02 -.937E+01 -.304E+01   -.721E+00 0.236E+00 0.801E+00   0.115E-02 0.433E-03 0.515E-05
   0.381E+01 0.545E+01 0.239E+02   -.423E+01 -.581E+01 -.238E+02   -.352E+00 -.221E+01 -.115E+01   -.493E-03 -.617E-04 -.206E-03
   0.673E+01 -.477E+01 -.133E+02   -.650E+01 0.533E+01 0.122E+02   -.798E+00 0.824E+00 -.359E+00   -.456E-03 -.184E-03 0.213E-03
   -.276E+01 -.132E+02 0.449E+01   0.287E+01 0.138E+02 -.575E+01   0.141E+00 -.313E+00 0.184E+00   0.104E-02 0.505E-04 -.585E-04
   -.201E+01 -.152E+02 -.274E-01   0.208E+01 0.154E+02 -.113E+00   -.576E-01 -.113E+00 0.226E+00   -.529E-03 -.230E-03 -.603E-04
   0.337E+01 0.128E+02 -.140E+02   -.320E+01 -.124E+02 0.149E+02   0.944E-01 -.854E-01 -.349E-02   0.214E-03 0.213E-03 0.296E-04
   0.433E+01 -.387E+02 0.710E+01   -.405E+01 0.392E+02 -.689E+01   0.122E+00 -.243E+00 0.670E+00   0.456E-03 -.365E-03 -.107E-03
   0.561E+01 0.343E+02 0.944E+01   -.552E+01 -.348E+02 -.889E+01   -.134E+00 -.257E+00 0.784E+00   -.922E-03 -.321E-03 -.173E-03
   -.301E+01 0.175E+02 -.225E+02   0.347E+01 -.175E+02 0.225E+02   -.519E+00 0.721E-01 -.490E+00   0.476E-03 -.131E-04 0.157E-03
   0.341E+01 -.682E+01 -.221E+02   -.332E+01 0.666E+01 0.223E+02   -.253E+00 -.537E+00 0.222E+01   -.939E-03 0.190E-03 -.956E-04
   0.241E+01 -.167E+02 -.672E+01   -.237E+01 0.164E+02 0.687E+01   -.361E+00 0.389E+00 -.292E+00   0.518E-03 -.246E-03 -.115E-04
   -.300E+01 0.152E+02 -.198E+02   0.325E+01 -.155E+02 0.197E+02   -.550E+00 0.748E+00 0.782E+00   -.166E-03 0.569E-03 -.933E-04
   -.637E+01 -.451E+02 0.268E+02   0.610E+01 0.456E+02 -.272E+02   0.417E+00 0.992E+00 -.994E+00   -.507E-03 0.126E-03 0.107E-04
   -.645E+01 0.297E+02 0.179E+02   0.620E+01 -.303E+02 -.176E+02   0.201E+00 0.133E-01 0.885E-01   0.726E-03 -.169E-03 -.182E-03
   0.247E+01 -.590E+00 -.193E+02   -.186E+01 0.904E+00 0.191E+02   -.370E+00 0.135E+01 0.516E-01   0.550E-03 -.398E-04 0.143E-03
   0.105E+02 -.999E+01 -.328E+01   -.113E+02 0.105E+02 0.309E+01   0.949E+00 -.319E+00 -.783E+00   -.422E-03 -.398E-04 -.105E-03
   0.137E+01 -.139E+02 -.450E+01   -.108E+01 0.130E+02 0.349E+01   -.247E+00 0.631E+00 0.995E+00   -.516E-03 -.201E-03 0.332E-04
   0.101E+01 0.162E+02 -.131E+02   -.131E+01 -.164E+02 0.134E+02   0.410E+00 0.516E+00 0.114E+01   0.927E-03 0.562E-03 -.330E-06
   0.105E+02 -.447E+02 0.234E+02   -.106E+02 0.455E+02 -.229E+02   -.450E+00 0.282E+00 -.120E+01   -.741E-03 0.330E-05 -.931E-04
   0.524E+01 0.504E+02 0.202E+02   -.538E+01 -.514E+02 -.199E+02   -.317E+00 -.318E+01 -.313E+01   0.135E-03 -.239E-03 -.128E-03
   -.547E+01 0.122E+02 -.165E+02   0.491E+01 -.125E+02 0.164E+02   0.118E+01 -.352E+00 -.877E+00   -.569E-03 -.810E-04 -.564E-05
   -.115E+02 -.118E+02 -.748E+01   0.117E+02 0.119E+02 0.747E+01   -.455E+00 0.159E+00 -.624E+00   0.341E-03 0.204E-03 0.438E-04
   -.184E+01 -.187E+02 -.311E+01   0.136E+01 0.189E+02 0.338E+01   0.686E+00 -.228E+00 -.275E+00   0.539E-03 -.272E-03 0.287E-05
   -.868E+00 0.125E+02 -.198E+02   0.125E+01 -.118E+02 0.203E+02   -.254E+00 -.280E+00 0.128E+00   -.951E-03 0.254E-03 -.787E-04
   -.819E+01 -.383E+02 0.106E+02   0.853E+01 0.390E+02 -.105E+02   -.392E-01 -.104E+00 0.719E+00   0.810E-03 -.900E-04 -.522E-04
   -.427E+01 0.180E+02 0.141E+02   0.466E+01 -.189E+02 -.139E+02   0.136E+00 0.704E+00 0.184E+00   0.836E-04 -.121E-03 -.149E-03
   -.240E+01 -.333E+02 -.783E+01   0.224E+01 0.339E+02 0.738E+01   0.907E-01 -.339E+00 -.101E+01   0.826E-04 -.150E-03 0.330E-05
   -.672E+01 0.393E+02 -.898E+01   0.631E+01 -.396E+02 0.859E+01   -.276E+00 0.632E-01 -.466E+00   0.522E-03 0.538E-03 -.573E-04
   -.267E+01 -.128E+02 0.140E+02   0.253E+01 0.123E+02 -.148E+02   0.111E-01 0.171E+00 0.504E-01   -.864E-03 0.285E-04 -.287E-04
   0.262E+01 0.151E+02 -.451E+00   -.276E+01 -.153E+02 0.287E+00   0.525E-01 0.195E+00 0.161E+00   0.542E-03 -.224E-03 -.225E-04
   0.166E+01 0.132E+02 -.475E+01   -.168E+01 -.136E+02 0.602E+01   -.261E+00 0.275E+00 -.122E+00   -.355E-03 0.377E-03 0.636E-04
   -.102E+02 0.124E+02 0.198E+02   0.995E+01 -.129E+02 -.190E+02   0.160E+01 -.255E+01 -.170E+01   -.577E-03 -.101E-03 -.148E-03
   0.197E+01 -.229E+02 -.175E+02   -.176E+01 0.232E+02 0.172E+02   0.174E+00 -.208E+00 -.373E+00   0.154E-04 -.290E-03 0.228E-03
   0.938E+01 0.423E+02 -.278E+02   -.909E+01 -.426E+02 0.282E+02   -.583E+00 -.101E+01 0.138E+01   -.478E-03 0.131E-03 0.686E-05
   0.209E+01 -.149E+02 0.205E+02   -.249E+01 0.150E+02 -.206E+02   0.503E+00 -.678E+00 -.476E+00   0.898E-03 -.314E-03 -.542E-04
   -.324E+01 0.172E+02 0.796E+01   0.312E+01 -.171E+02 -.808E+01   0.334E+00 -.268E+00 0.182E+00   -.551E-03 -.292E-03 -.171E-03
   -.137E+01 0.425E+01 0.181E+02   0.135E+01 -.439E+01 -.181E+02   0.626E-01 0.485E+00 -.982E+00   0.229E-03 0.214E-03 0.172E-03
   0.524E+01 -.156E+02 0.195E+02   -.549E+01 0.155E+02 -.195E+02   0.218E+00 0.709E-01 0.830E+00   0.477E-03 -.289E-03 -.217E-03
 -----------------------------------------------------------------------------------------------
   0.304E+01 -.593E+01 0.921E+00   0.218E-12 -.231E-13 -.380E-12   -.298E+01 0.613E+01 -.856E+00   -.927E-04 -.126E-02 0.247E-03
 
 
 POSITION                                       TOTAL-FORCE (eV/Angst)
 -----------------------------------------------------------------------------------
      2.12426     14.18951      4.29359         0.381226     -0.011868      0.898039
     15.70177      1.30875      0.00000        -0.353629     -0.300131      1.406196
     12.98627      7.31977      0.85872        -0.138388     -0.041444     -0.197196
     10.27077     13.33079      1.71744        -0.175991     -0.330954      0.339934
      7.55526      2.16748      2.57615         0.136082      0.152013     -0.038964
      4.83976      8.17850      3.43487        -0.098895      0.225703      0.508790
      7.55526     14.18951      4.29359        -0.432712     -0.059774      0.885213
      4.83977      1.30875      0.00000        -0.447030      0.453781     -1.032264
      2.12427      7.31977      0.85872         0.320274     -0.003385     -0.681930
     15.70177     13.33079      1.71744        -0.346049     -0.102085      0.231928
     12.98626      2.16748      2.57615         0.072435      0.479309     -0.015354
     10.27076      8.17850      3.43487        -0.109965     -0.074700      0.503028
     12.98626     14.18951      4.29359        -0.448653      0.420254      0.558781
     10.27077      1.30875      0.00000        -0.194192      0.353571     -0.759468
      7.55527      7.31977      0.85872        -0.488493     -0.026918     -0.373547
      4.83977     13.33079      1.71744        -0.547773     -0.046037      0.127751
      2.12426      2.16748      2.57615         0.158493      0.382964      0.179483
     15.70176      8.17850      3.43487         0.364067     -0.202596      0.766182
      3.48201      9.89593      4.29359        -0.372704     -0.961055     -1.064022
      0.76652     14.18950      0.00000        -1.304769      1.400970      3.324852
     14.34402      3.02619      0.85872        -0.124709      0.031424     -0.192751
     11.62852      9.03721      1.71744         0.190099     -0.299987      0.176262
      8.91301     15.04823      2.57615         0.085888      0.107084      0.133882
      6.19751      3.88491      3.43487        -0.451044      0.083975      0.616763
      8.91301      9.89593      4.29359        -0.234539      0.341104      0.114601
      6.19752     14.18950      0.00000         1.137087      1.261169      2.144709
      3.48202      3.02619      0.85872        -0.091799      0.148314     -0.203425
      0.76652      9.03721      1.71744         0.249596      0.190781     -0.231228
     14.34402     15.04823      2.57615         0.180678      0.072668     -0.046992
     11.62852      3.88491      3.43487        -0.785189      0.021615      0.110992
     14.34401      9.89593      4.29359         0.526585     -0.482552      0.434376
     11.62852     14.18950      0.00000        -0.200862     -0.760764     -0.680336
      8.91302      3.02619      0.85872        -0.321399     -0.018776     -0.313392
      6.19752      9.03721      1.71744         0.002431     -0.251869      0.004933
      3.48201     15.04823      2.57615         0.172207     -0.035433      0.128260
      0.76651      3.88491      3.43487        -0.526662      0.088218      0.147399
      2.12426      5.60235      4.29359         0.768557     -0.039125     -2.147052
     15.70177      9.89592      0.00000         0.357856      3.540542      3.668354
     12.98627     15.90694      0.85872         0.373456     -0.028475     -0.798008
     10.27077      4.74362      1.71744        -0.031579     -0.134012     -0.146213
      7.55526     10.75464      2.57615        -0.260666      0.312918     -0.212342
      4.83977     16.76566      3.43487         0.130710     -0.073232      0.159377
      7.55526      5.60235      4.29359         0.227118      0.498689      0.722049
      4.83977      9.89592      0.00000        -0.261287      0.644484     -0.111985
      2.12427     15.90694      0.85872         0.493830      0.066724     -0.324309
     15.70177      4.74362      1.71744        -0.137086     -0.007757     -0.166072
     12.98626     10.75464      2.57615        -0.148260      0.165198      0.033433
     10.27077     16.76566      3.43487         0.293514     -0.141363      0.222038
     12.98626      5.60235      4.29359        -0.914800     -0.071215     -2.389046
     10.27077      9.89592      0.00000         0.093343      0.074280      0.465712
      7.55527     15.90694      0.85872         0.774796     -0.045063     -0.239165
      4.83977      4.74362      1.71744        -0.187871     -0.101248      0.008731
      2.12426     10.75464      2.57615        -0.275109     -0.245655      0.204747
     15.70177     16.76566      3.43487         0.043448     -0.220778      0.174913
      3.48201      1.30877      4.29359         0.384056      0.591219     -2.980086
      0.76652      5.60233      0.00000        -0.217090     -0.200571     -0.735711
     14.34402     11.61335      0.85872         0.039586      0.196618     -0.921444
     11.62852      0.45004      1.71744        -0.094702     -0.164402      0.042801
      8.91301      6.46106      2.57615         0.297043      0.340246     -0.349422
      6.19751     12.47208      3.43487        -0.040083      0.108567      0.011538
      8.91301      1.30877      4.29359         0.207958     -0.197171      0.733994
      6.19752      5.60233      0.00000         0.681663     -0.355949     -0.620453
      3.48202     11.61335      0.85872        -0.059092      0.397423     -0.570460
      0.76652      0.45004      1.71744        -0.118900     -0.406966     -0.144103
     14.34402      6.46106      2.57615         0.442073      0.037463     -0.057833
     11.62851     12.47208      3.43487         0.423548      0.257069     -0.232679
     14.34402      1.30877      4.29359         0.325883     -0.412376      0.721069
     11.62852      5.60233      0.00000         0.377428      0.154984     -0.872604
      8.91302     11.61335      0.85872         0.247259      0.163022     -0.779518
      6.19752      0.45004      1.71744        -0.032153     -0.403005      0.123534
      3.48201      6.46106      2.57615         0.290836      0.177590     -0.116441
      0.76651     12.47208      3.43487        -0.488625      0.173941      0.478625
     11.56044     11.71211      5.68102        -0.558147     -0.012803      0.183731
      5.45056      5.03320      6.34780        -0.135134     -0.405801     -0.740112
     15.63369     15.52862      7.01458        -0.053232     -0.326885     -0.572794
      9.52381      8.84972      7.68136        -0.138774      0.013526     -0.094140
      3.41394      2.17081      8.34813         0.288248     -0.341379      0.993692
     13.59706     12.66623      9.01491        -0.513812      0.286689      1.560073
      3.41394     11.71211      5.68102         0.246461      1.685918      0.044472
     13.59707      5.03320      6.34780         0.937996     -1.071647      1.965816
      7.48719     15.52862      7.01458        -0.135831     -0.421667     -1.240389
      1.37732      8.84972      7.68136        -0.055141      0.316700      0.288555
     11.56044      2.17081      8.34813        -0.079056     -0.478111      0.954416
      5.45056     12.66623      9.01491        -0.776246     -2.572830     -1.036071
      1.37731      7.41852      5.68102        -0.574970      1.377555     -1.411254
     11.56044      0.73961      6.34780         0.253888      0.241771     -1.070681
      5.45056     11.23504      7.01458         0.020321      0.167455      0.085595
     15.63369      4.55613      7.68136         0.266961      0.258783      0.925511
      9.52382     15.05156      8.34813         0.403494      0.228451      0.872113
      3.41394      8.37264      9.01491        -0.043885     -0.695451      1.329417
      9.52381      7.41852      5.68102        -0.061621      0.107551     -0.562333
      3.41394      0.73961      6.34780        -0.169810     -0.698127      2.464635
     13.59706     11.23504      7.01458        -0.321498      0.095792     -0.142566
      7.48719      4.55613      7.68136        -0.299076      0.437172      0.745634
      1.37732     15.05155      8.34813         0.147501      1.489914     -1.378539
     11.56044      8.37264      9.01491        -0.039726     -0.599251      0.414270
     13.59706      7.41852      5.68102         0.240097      1.661818     -0.176273
      7.48719      0.73961      6.34780         0.181527      0.232279     -0.976002
      1.37731     11.23504      7.01458         0.037845     -0.262388     -0.009407
     11.56044      4.55613      7.68136         0.110986      0.345042      1.436889
      5.45057     15.05156      8.34813        -0.545533      1.045874     -0.731013
     15.63369      8.37264      9.01491        -0.451091     -4.151652     -2.749687
      5.45056      7.41852      5.68102         0.614742     -0.698977     -0.950228
     15.63369      0.73961      6.34780        -0.237208      0.318236     -0.632752
      9.52381     11.23504      7.01458         0.211602     -0.028148     -0.005324
      3.41394      4.55613      7.68136         0.123869      0.384501      0.531658
     13.59707     15.05156      8.34813         0.300125      0.601368      0.806101
      7.48719      8.37264      9.01491         0.520434     -0.210571      0.435395
     15.63369     11.71211      5.68102        -0.069036      0.206549     -1.469983
      9.52381      5.03320      6.34780        -0.684507     -0.197978     -0.856563
      3.41394     15.52862      7.01458        -0.130221     -0.315294     -0.775200
     13.59707      8.84971      7.68136        -0.088565     -0.033124     -0.003953
      7.48719      2.17081      8.34813        -0.281921     -0.170312      1.148387
      1.37731     12.66623      9.01491         1.318686     -3.076541     -0.803683
      7.48719     11.71211      5.68102         0.387101      0.176426     -0.641855
      1.37731      5.03320      6.34780        -0.285210     -1.290329      1.813082
     11.56044     15.52862      7.01458         0.110381     -0.573771     -0.570185
      5.45057      8.84972      7.68136         0.215383     -0.216751      0.056760
     15.63369      2.17081      8.34813         0.035227      0.347189     -1.020308
      9.52381     12.66623      9.01491        -0.031986     -0.033976      0.797643
 -----------------------------------------------------------------------------------
    total drift:                                0.058089      0.200541      0.065428


--------------------------------------------------------------------------------------------------------



  FREE ENERGIE OF THE ION-ELECTRON SYSTEM (eV)
  ---------------------------------------------------
  free  energy   TOTEN  =      -539.32312230 eV

  energy  without entropy=     -539.32010474  energy(sigma->0) =     -539.32161352
 


--------------------------------------------------------------------------------------------------------


    POTLOK:  cpu time      1.1889: real time      1.1952


--------------------------------------------------------------------------------------------------------


     LOOP+:  cpu time    667.5731: real time    674.3473
    4ORBIT:  cpu time      0.0000: real time      0.0000

 total amount of memory used by VASP MPI-rank0   211389. kBytes
=======================================================================

   base      :      30000. kBytes
   nonlr-proj:       6255. kBytes
   fftplans  :      17777. kBytes
   grid      :      14565. kBytes
   one-center:        129. kBytes
   wavefun   :     142663. kBytes
 
  
  
 General timing and accounting informations for this job:
 ========================================================
  
                  Total CPU time used (sec):      740.075
                            User time (sec):      703.978
                          System time (sec):       36.096
                         Elapsed time (sec):      749.732
  
                   Maximum memory used (kb):      464296.
                   Average memory used (kb):          N/A
  
                          Minor page faults:       141189
                          Major page faults:           42
                 Voluntary context switches:         2100
