  48  48   0   0
  0.2323126E+02  0.1265123E-08  0.1265123E-08  0.1161174E-08  0.5000000E-15
  1.000000000000000E-004
  CAR 
 Si and Ge interface calculation         
      6.70135116    -12.12481056  301      3.46496537      1.00000000
    -12.125  0.0000E+00  0.0000E+00  0.0000E+00  0.0000E+00
    -12.062  0.0000E+00  0.0000E+00  0.0000E+00  0.0000E+00
    -11.999  0.0000E+00  0.0000E+00  0.0000E+00  0.0000E+00
    -11.937  0.0000E+00  0.0000E+00  0.0000E+00  0.0000E+00
    -11.874  0.0000E+00  0.0000E+00  0.0000E+00  0.0000E+00
    -11.811  0.0000E+00  0.0000E+00  0.0000E+00  0.0000E+00
    -11.748  0.0000E+00  0.0000E+00  0.0000E+00  0.0000E+00
    -11.686  0.0000E+00  0.0000E+00  0.0000E+00  0.0000E+00
    -11.623  0.0000E+00  0.0000E+00  0.0000E+00  0.0000E+00
    -11.560  0.0000E+00  0.0000E+00  0.0000E+00  0.0000E+00
    -11.497  0.0000E+00  0.0000E+00  0.0000E+00  0.0000E+00
    -11.435  0.0000E+00  0.0000E+00  0.0000E+00  0.0000E+00
    -11.372  0.0000E+00  0.0000E+00  0.0000E+00  0.0000E+00
    -11.309  0.3613E-07  0.5160E-14  0.2267E-08  0.3238E-15
    -11.246  0.7960E+01  0.6430E+01  0.4995E+00  0.4035E+00
    -11.184  0.1144E+01  0.1539E+01  0.5718E+00  0.5001E+00
    -11.121  0.1479E+02  0.1593E+02  0.1500E+01  0.1500E+01
    -11.058  0.0000E+00  0.0000E+00  0.1500E+01  0.1500E+01
    -10.995  0.0000E+00  0.0000E+00  0.1500E+01  0.1500E+01
    -10.932  0.1308E+00  0.2580E-04  0.1508E+01  0.1500E+01
    -10.870  0.1580E+02  0.1594E+02  0.2500E+01  0.2500E+01
    -10.807  0.0000E+00  0.0000E+00  0.2500E+01  0.2500E+01
    -10.744  0.0000E+00  0.0000E+00  0.2500E+01  0.2500E+01
    -10.681  0.0000E+00  0.0000E+00  0.2500E+01  0.2500E+01
    -10.619  0.1010E+00  0.1556E-04  0.2506E+01  0.2500E+01
    -10.556  0.1583E+02  0.1593E+02  0.3500E+01  0.3500E+01
    -10.493  0.4560E-10  0.0000E+00  0.3500E+01  0.3500E+01
    -10.430  0.7820E+01  0.3394E+01  0.3991E+01  0.3713E+01
    -10.368  0.1474E+00  0.4573E+01  0.4000E+01  0.4000E+01
    -10.305  0.0000E+00  0.0000E+00  0.4000E+01  0.4000E+01
    -10.242  0.0000E+00  0.0000E+00  0.4000E+01  0.4000E+01
    -10.179  0.0000E+00  0.0000E+00  0.4000E+01  0.4000E+01
    -10.117  0.0000E+00  0.0000E+00  0.4000E+01  0.4000E+01
    -10.054  0.0000E+00  0.0000E+00  0.4000E+01  0.4000E+01
     -9.991  0.0000E+00  0.0000E+00  0.4000E+01  0.4000E+01
     -9.928  0.6026E-04  0.0000E+00  0.4000E+01  0.4000E+01
     -9.866  0.7967E+01  0.1170E+00  0.4500E+01  0.4007E+01
     -9.803  0.1958E-05  0.7851E+01  0.4500E+01  0.4500E+01
     -9.740  0.1593E+02  0.2644E-01  0.5499E+01  0.4502E+01
     -9.677  0.0000E+00  0.1591E+02  0.5500E+01  0.5500E+01
     -9.615  0.0000E+00  0.0000E+00  0.5500E+01  0.5500E+01
     -9.552  0.0000E+00  0.0000E+00  0.5500E+01  0.5500E+01
     -9.489  0.0000E+00  0.0000E+00  0.5500E+01  0.5500E+01
     -9.426  0.2186E-08  0.0000E+00  0.5500E+01  0.5500E+01
     -9.364  0.1565E+02  0.8298E-03  0.6482E+01  0.5500E+01
     -9.301  0.2662E+00  0.1593E+02  0.6500E+01  0.6500E+01
     -9.238  0.0000E+00  0.0000E+00  0.6500E+01  0.6500E+01
     -9.175  0.0000E+00  0.0000E+00  0.6500E+01  0.6500E+01
     -9.113  0.0000E+00  0.0000E+00  0.6500E+01  0.6500E+01
     -9.050  0.0000E+00  0.0000E+00  0.6500E+01  0.6500E+01
     -8.987  0.0000E+00  0.0000E+00  0.6500E+01  0.6500E+01
     -8.924  0.0000E+00  0.0000E+00  0.6500E+01  0.6500E+01
     -8.862  0.3686E-15  0.0000E+00  0.6500E+01  0.6500E+01
     -8.799  0.7987E+01  0.3669E+00  0.7001E+01  0.6523E+01
     -8.736  0.1563E+02  0.2126E+02  0.7982E+01  0.7857E+01
     -8.673  0.4879E+01  0.3508E+01  0.8289E+01  0.8079E+01
     -8.611  0.1370E+02  0.1323E+02  0.9148E+01  0.8909E+01
     -8.548  0.5828E+01  0.8804E+01  0.9514E+01  0.9462E+01
     -8.485  0.3977E+01  0.3302E+01  0.9763E+01  0.9669E+01
     -8.422  0.8601E+01  0.8477E+01  0.1030E+02  0.1020E+02
     -8.360  0.1003E+02  0.5407E+01  0.1093E+02  0.1054E+02
     -8.297  0.1148E+02  0.1494E+02  0.1165E+02  0.1148E+02
     -8.234  0.9591E+01  0.1171E+02  0.1225E+02  0.1221E+02
     -8.171  0.1223E+02  0.1179E+02  0.1302E+02  0.1295E+02
     -8.109  0.1044E+02  0.8283E+01  0.1368E+02  0.1347E+02
     -8.046  0.6885E+01  0.8381E+01  0.1411E+02  0.1400E+02
     -7.983  0.6017E+01  0.6169E+01  0.1449E+02  0.1439E+02
     -7.920  0.2295E+01  0.3776E+01  0.1463E+02  0.1462E+02
     -7.858  0.3867E+01  0.3700E+01  0.1487E+02  0.1486E+02
     -7.795  0.9209E+01  0.5508E+01  0.1545E+02  0.1520E+02
     -7.732  0.1596E+02  0.1855E+02  0.1645E+02  0.1637E+02
     -7.669  0.1867E+02  0.1793E+02  0.1763E+02  0.1749E+02
     -7.607  0.1056E+02  0.9957E+01  0.1829E+02  0.1812E+02
     -7.544  0.9508E+01  0.1114E+02  0.1889E+02  0.1882E+02
     -7.481  0.7272E+01  0.5174E+01  0.1934E+02  0.1914E+02
     -7.418  0.1672E+02  0.1735E+02  0.2039E+02  0.2023E+02
     -7.356  0.1288E+02  0.1379E+02  0.2120E+02  0.2110E+02
     -7.293  0.1620E+02  0.1678E+02  0.2222E+02  0.2215E+02
     -7.230  0.1604E+02  0.1321E+02  0.2322E+02  0.2298E+02
     -7.167  0.1117E+02  0.1424E+02  0.2393E+02  0.2387E+02
     -7.105  0.2301E+02  0.2101E+02  0.2537E+02  0.2519E+02
     -7.042  0.7845E+01  0.9815E+01  0.2586E+02  0.2581E+02
     -6.979  0.2076E+02  0.1316E+02  0.2717E+02  0.2663E+02
     -6.916  0.2007E+02  0.2423E+02  0.2843E+02  0.2815E+02
     -6.853  0.1420E+02  0.1467E+02  0.2932E+02  0.2907E+02
     -6.791  0.1506E+02  0.1703E+02  0.3026E+02  0.3014E+02
     -6.728  0.1448E+02  0.1510E+02  0.3117E+02  0.3109E+02
     -6.665  0.9369E+01  0.7162E+01  0.3176E+02  0.3154E+02
     -6.602  0.8453E+01  0.1119E+02  0.3229E+02  0.3224E+02
     -6.540  0.1165E+02  0.9961E+01  0.3302E+02  0.3287E+02
     -6.477  0.1384E+02  0.1357E+02  0.3389E+02  0.3372E+02
     -6.414  0.7587E+01  0.9430E+01  0.3437E+02  0.3431E+02
     -6.351  0.9356E+01  0.8467E+01  0.3496E+02  0.3484E+02
     -6.289  0.6958E+01  0.6748E+01  0.3539E+02  0.3527E+02
     -6.226  0.7725E+01  0.8309E+01  0.3588E+02  0.3579E+02
     -6.163  0.2627E+02  0.1534E+02  0.3753E+02  0.3675E+02
     -6.100  0.2139E+02  0.2972E+02  0.3887E+02  0.3862E+02
     -6.038  0.1483E+02  0.1401E+02  0.3980E+02  0.3950E+02
     -5.975  0.1774E+02  0.1849E+02  0.4091E+02  0.4066E+02
     -5.912  0.1332E+02  0.1395E+02  0.4175E+02  0.4153E+02
     -5.849  0.1744E+02  0.1766E+02  0.4285E+02  0.4264E+02
     -5.787  0.5722E+01  0.5601E+01  0.4320E+02  0.4299E+02
     -5.724  0.5849E+01  0.7914E+01  0.4357E+02  0.4349E+02
     -5.661  0.3206E+01  0.3493E+01  0.4377E+02  0.4371E+02
     -5.598  0.1317E+02  0.9935E+01  0.4460E+02  0.4433E+02
     -5.536  0.1107E+02  0.1363E+02  0.4529E+02  0.4519E+02
     -5.473  0.9760E+01  0.9625E+01  0.4591E+02  0.4579E+02
     -5.410  0.1242E+02  0.8971E+01  0.4669E+02  0.4636E+02
     -5.347  0.1457E+02  0.1630E+02  0.4760E+02  0.4738E+02
     -5.285  0.1572E+02  0.1389E+02  0.4859E+02  0.4825E+02
     -5.222  0.7876E+01  0.9711E+01  0.4908E+02  0.4886E+02
     -5.159  0.1180E+02  0.1260E+02  0.4982E+02  0.4965E+02
     -5.096  0.8528E+01  0.6924E+01  0.5036E+02  0.5009E+02
     -5.034  0.1293E+02  0.1407E+02  0.5117E+02  0.5097E+02
     -4.971  0.1459E+02  0.1460E+02  0.5209E+02  0.5189E+02
     -4.908  0.2072E+02  0.1639E+02  0.5339E+02  0.5291E+02
     -4.845  0.1403E+02  0.1904E+02  0.5427E+02  0.5411E+02
     -4.783  0.1652E+02  0.1169E+02  0.5530E+02  0.5484E+02
     -4.720  0.1726E+02  0.1848E+02  0.5639E+02  0.5600E+02
     -4.657  0.8419E+01  0.1377E+02  0.5692E+02  0.5687E+02
     -4.594  0.4830E+01  0.3768E+01  0.5722E+02  0.5710E+02
     -4.532  0.1879E+02  0.1423E+02  0.5840E+02  0.5800E+02
     -4.469  0.1304E+02  0.1642E+02  0.5922E+02  0.5903E+02
     -4.406  0.1601E+02  0.1813E+02  0.6022E+02  0.6016E+02
     -4.343  0.7938E+01  0.3723E+01  0.6072E+02  0.6040E+02
     -4.281  0.1545E+02  0.1475E+02  0.6169E+02  0.6132E+02
     -4.218  0.1161E+02  0.1499E+02  0.6242E+02  0.6226E+02
     -4.155  0.1124E+02  0.6912E+01  0.6312E+02  0.6270E+02
     -4.092  0.1883E+02  0.1820E+02  0.6431E+02  0.6384E+02
     -4.030  0.1117E+02  0.1624E+02  0.6501E+02  0.6486E+02
     -3.967  0.1002E+02  0.1078E+02  0.6564E+02  0.6554E+02
     -3.904  0.1510E+02  0.9795E+01  0.6658E+02  0.6615E+02
     -3.841  0.2088E+02  0.2245E+02  0.6789E+02  0.6756E+02
     -3.779  0.1234E+02  0.1706E+02  0.6867E+02  0.6863E+02
     -3.716  0.1125E+02  0.8659E+01  0.6938E+02  0.6917E+02
     -3.653  0.1707E+02  0.1642E+02  0.7045E+02  0.7020E+02
     -3.590  0.2490E+02  0.2293E+02  0.7201E+02  0.7164E+02
     -3.528  0.1439E+02  0.1847E+02  0.7291E+02  0.7280E+02
     -3.465  0.1137E+02  0.7138E+01  0.7363E+02  0.7325E+02
     -3.402  0.9448E+01  0.1335E+02  0.7422E+02  0.7409E+02
     -3.339  0.1148E+02  0.9224E+01  0.7494E+02  0.7467E+02
     -3.277  0.8650E+01  0.1082E+02  0.7548E+02  0.7535E+02
     -3.214  0.1137E+02  0.1096E+02  0.7620E+02  0.7604E+02
     -3.151  0.9367E+01  0.1055E+02  0.7679E+02  0.7670E+02
     -3.088  0.1136E+02  0.9222E+01  0.7750E+02  0.7728E+02
     -3.025  0.8812E+01  0.9408E+01  0.7805E+02  0.7787E+02
     -2.963  0.1041E+02  0.1040E+02  0.7870E+02  0.7852E+02
     -2.900  0.7844E+01  0.6895E+01  0.7920E+02  0.7895E+02
     -2.837  0.1095E+02  0.1170E+02  0.7988E+02  0.7969E+02
     -2.774  0.1215E+02  0.1279E+02  0.8065E+02  0.8049E+02
     -2.712  0.1033E+02  0.9156E+01  0.8130E+02  0.8106E+02
     -2.649  0.1409E+02  0.1479E+02  0.8218E+02  0.8199E+02
     -2.586  0.1593E+02  0.1261E+02  0.8318E+02  0.8278E+02
     -2.523  0.7197E+01  0.1328E+02  0.8363E+02  0.8362E+02
     -2.461  0.6107E+01  0.4374E+01  0.8402E+02  0.8389E+02
     -2.398  0.1182E+02  0.1053E+02  0.8476E+02  0.8455E+02
     -2.335  0.1112E+02  0.1270E+02  0.8546E+02  0.8535E+02
     -2.272  0.1048E+02  0.9508E+01  0.8611E+02  0.8595E+02
     -2.210  0.1096E+02  0.9196E+01  0.8680E+02  0.8653E+02
     -2.147  0.1181E+02  0.1131E+02  0.8754E+02  0.8724E+02
     -2.084  0.3961E+01  0.8166E+01  0.8779E+02  0.8775E+02
     -2.021  0.7459E+01  0.5211E+01  0.8826E+02  0.8807E+02
     -1.959  0.1228E+02  0.1232E+02  0.8903E+02  0.8885E+02
     -1.896  0.1672E+02  0.1662E+02  0.9008E+02  0.8989E+02
     -1.833  0.5916E+01  0.4794E+01  0.9045E+02  0.9019E+02
     -1.770  0.2874E+01  0.4923E+01  0.9063E+02  0.9050E+02
     -1.708  0.7722E+01  0.6274E+01  0.9112E+02  0.9090E+02
     -1.645  0.8175E+01  0.8500E+01  0.9163E+02  0.9143E+02
     -1.582  0.2266E+02  0.1834E+02  0.9305E+02  0.9258E+02
     -1.519  0.1249E+02  0.1880E+02  0.9384E+02  0.9376E+02
     -1.457  0.1406E+01  0.2500E+01  0.9392E+02  0.9392E+02
     -1.394  0.1201E+02  0.7962E+01  0.9468E+02  0.9442E+02
     -1.331  0.1055E+02  0.1192E+02  0.9534E+02  0.9516E+02
     -1.268  0.7771E+01  0.8676E+01  0.9583E+02  0.9571E+02
     -1.206  0.5706E+01  0.6121E+01  0.9619E+02  0.9609E+02
     -1.143  0.8938E+01  0.6430E+01  0.9675E+02  0.9650E+02
     -1.080  0.8774E+01  0.1037E+02  0.9730E+02  0.9715E+02
     -1.017  0.1208E+02  0.8667E+01  0.9806E+02  0.9769E+02
     -0.955  0.1672E+02  0.1841E+02  0.9911E+02  0.9885E+02
     -0.892  0.1253E+02  0.1331E+02  0.9989E+02  0.9968E+02
     -0.829  0.7042E+01  0.7791E+01  0.1003E+03  0.1002E+03
     -0.766  0.1117E+02  0.9149E+01  0.1010E+03  0.1007E+03
     -0.704  0.1365E+02  0.1254E+02  0.1019E+03  0.1015E+03
     -0.641  0.1550E+02  0.1736E+02  0.1029E+03  0.1026E+03
     -0.578  0.2436E+02  0.2467E+02  0.1044E+03  0.1042E+03
     -0.515  0.1552E+02  0.1342E+02  0.1054E+03  0.1050E+03
     -0.453  0.2599E+02  0.2209E+02  0.1070E+03  0.1064E+03
     -0.390  0.2645E+02  0.3191E+02  0.1087E+03  0.1084E+03
     -0.327  0.2902E+02  0.2185E+02  0.1105E+03  0.1098E+03
     -0.264  0.1619E+02  0.2482E+02  0.1115E+03  0.1113E+03
     -0.202  0.2417E+02  0.1863E+02  0.1130E+03  0.1125E+03
     -0.139  0.2982E+02  0.3177E+02  0.1149E+03  0.1145E+03
     -0.076  0.2535E+02  0.2587E+02  0.1165E+03  0.1161E+03
     -0.013  0.2450E+02  0.2279E+02  0.1180E+03  0.1176E+03
      0.049  0.2186E+02  0.2366E+02  0.1194E+03  0.1190E+03
      0.112  0.2258E+02  0.2207E+02  0.1208E+03  0.1204E+03
      0.175  0.2629E+02  0.2373E+02  0.1225E+03  0.1219E+03
      0.238  0.3023E+02  0.2977E+02  0.1244E+03  0.1238E+03
      0.300  0.2714E+02  0.3131E+02  0.1261E+03  0.1257E+03
      0.363  0.1891E+02  0.1714E+02  0.1272E+03  0.1268E+03
      0.426  0.3299E+02  0.2775E+02  0.1293E+03  0.1286E+03
      0.489  0.2876E+02  0.3144E+02  0.1311E+03  0.1305E+03
      0.551  0.2786E+02  0.2896E+02  0.1329E+03  0.1324E+03
      0.614  0.2630E+02  0.3298E+02  0.1345E+03  0.1344E+03
      0.677  0.1709E+02  0.1455E+02  0.1356E+03  0.1353E+03
      0.740  0.2135E+02  0.2190E+02  0.1369E+03  0.1367E+03
      0.802  0.2445E+02  0.2422E+02  0.1385E+03  0.1382E+03
      0.865  0.2099E+02  0.1934E+02  0.1398E+03  0.1394E+03
      0.928  0.2362E+02  0.2385E+02  0.1413E+03  0.1409E+03
      0.991  0.2694E+02  0.2492E+02  0.1430E+03  0.1425E+03
      1.054  0.2871E+02  0.2908E+02  0.1448E+03  0.1443E+03
      1.116  0.1783E+02  0.2346E+02  0.1459E+03  0.1458E+03
      1.179  0.3823E+02  0.2614E+02  0.1483E+03  0.1474E+03
      1.242  0.2151E+02  0.2972E+02  0.1496E+03  0.1493E+03
      1.305  0.2969E+02  0.2461E+02  0.1515E+03  0.1509E+03
      1.367  0.1882E+02  0.2409E+02  0.1527E+03  0.1524E+03
      1.430  0.3399E+02  0.3036E+02  0.1548E+03  0.1543E+03
      1.493  0.2338E+02  0.2498E+02  0.1563E+03  0.1558E+03
      1.556  0.2960E+02  0.3106E+02  0.1581E+03  0.1578E+03
      1.618  0.2181E+02  0.1884E+02  0.1595E+03  0.1590E+03
      1.681  0.1724E+02  0.1866E+02  0.1606E+03  0.1601E+03
      1.744  0.2531E+02  0.2509E+02  0.1622E+03  0.1617E+03
      1.807  0.2706E+02  0.2754E+02  0.1639E+03  0.1634E+03
      1.869  0.2130E+02  0.2120E+02  0.1652E+03  0.1648E+03
      1.932  0.1216E+02  0.1354E+02  0.1660E+03  0.1656E+03
      1.995  0.1945E+02  0.1824E+02  0.1672E+03  0.1668E+03
      2.058  0.2061E+02  0.2156E+02  0.1685E+03  0.1681E+03
      2.120  0.1242E+02  0.1177E+02  0.1693E+03  0.1689E+03
      2.183  0.1910E+02  0.2153E+02  0.1705E+03  0.1702E+03
      2.246  0.2997E+02  0.2475E+02  0.1723E+03  0.1718E+03
      2.309  0.1936E+02  0.2232E+02  0.1736E+03  0.1732E+03
      2.371  0.1039E+02  0.1389E+02  0.1742E+03  0.1740E+03
      2.434  0.1641E+02  0.1411E+02  0.1752E+03  0.1749E+03
      2.497  0.1864E+02  0.1720E+02  0.1764E+03  0.1760E+03
      2.560  0.2028E+02  0.2106E+02  0.1777E+03  0.1773E+03
      2.622  0.1291E+02  0.1746E+02  0.1785E+03  0.1784E+03
      2.685  0.1706E+02  0.9059E+01  0.1796E+03  0.1790E+03
      2.748  0.1811E+02  0.1692E+02  0.1807E+03  0.1801E+03
      2.811  0.1343E+02  0.1700E+02  0.1816E+03  0.1811E+03
      2.873  0.1877E+02  0.1551E+02  0.1827E+03  0.1821E+03
      2.936  0.1768E+02  0.1813E+02  0.1838E+03  0.1832E+03
      2.999  0.1797E+02  0.2062E+02  0.1850E+03  0.1845E+03
      3.062  0.1161E+02  0.1172E+02  0.1857E+03  0.1853E+03
      3.124  0.1734E+02  0.1442E+02  0.1868E+03  0.1862E+03
      3.187  0.1938E+02  0.1664E+02  0.1880E+03  0.1872E+03
      3.250  0.1556E+02  0.2179E+02  0.1890E+03  0.1886E+03
      3.313  0.8062E+01  0.8354E+01  0.1895E+03  0.1891E+03
      3.375  0.1294E+02  0.1407E+02  0.1903E+03  0.1900E+03
      3.438  0.1481E+02  0.9928E+01  0.1912E+03  0.1906E+03
      3.501  0.1826E+02  0.1526E+02  0.1924E+03  0.1916E+03
      3.564  0.2194E+02  0.1842E+02  0.1937E+03  0.1927E+03
      3.626  0.9492E+01  0.1873E+02  0.1943E+03  0.1939E+03
      3.689  0.1955E+02  0.1432E+02  0.1956E+03  0.1948E+03
      3.752  0.1943E+02  0.2452E+02  0.1968E+03  0.1963E+03
      3.815  0.8317E+01  0.1345E+02  0.1973E+03  0.1972E+03
      3.877  0.1430E+02  0.1005E+02  0.1982E+03  0.1978E+03
      3.940  0.2299E+02  0.2210E+02  0.1997E+03  0.1992E+03
      4.003  0.2086E+02  0.1889E+02  0.2010E+03  0.2004E+03
      4.066  0.2383E+02  0.1851E+02  0.2025E+03  0.2016E+03
      4.128  0.1265E+02  0.2237E+02  0.2033E+03  0.2030E+03
      4.191  0.9692E+01  0.1086E+02  0.2039E+03  0.2036E+03
      4.254  0.1888E+02  0.1544E+02  0.2050E+03  0.2046E+03
      4.317  0.2931E+02  0.2197E+02  0.2069E+03  0.2060E+03
      4.379  0.1819E+02  0.2530E+02  0.2080E+03  0.2076E+03
      4.442  0.1329E+02  0.1729E+02  0.2089E+03  0.2087E+03
      4.505  0.1605E+02  0.1162E+02  0.2099E+03  0.2094E+03
      4.568  0.3048E+02  0.2108E+02  0.2118E+03  0.2107E+03
      4.630  0.1723E+02  0.2835E+02  0.2129E+03  0.2125E+03
      4.693  0.2138E+02  0.1745E+02  0.2142E+03  0.2136E+03
      4.756  0.2394E+02  0.2355E+02  0.2157E+03  0.2151E+03
      4.819  0.2437E+02  0.2663E+02  0.2172E+03  0.2167E+03
      4.881  0.2416E+02  0.2510E+02  0.2188E+03  0.2183E+03
      4.944  0.7099E+01  0.1153E+02  0.2192E+03  0.2190E+03
      5.007  0.2402E+02  0.1937E+02  0.2207E+03  0.2203E+03
      5.070  0.1944E+02  0.1930E+02  0.2219E+03  0.2215E+03
      5.133  0.2284E+02  0.2394E+02  0.2234E+03  0.2230E+03
      5.195  0.2980E+02  0.2496E+02  0.2252E+03  0.2245E+03
      5.258  0.2491E+02  0.2880E+02  0.2268E+03  0.2263E+03
      5.321  0.2294E+02  0.2672E+02  0.2282E+03  0.2280E+03
      5.384  0.8580E+01  0.9857E+01  0.2288E+03  0.2286E+03
      5.446  0.1573E+02  0.1398E+02  0.2298E+03  0.2295E+03
      5.509  0.1408E+02  0.1405E+02  0.2306E+03  0.2304E+03
      5.572  0.9621E+01  0.1007E+02  0.2312E+03  0.2310E+03
      5.635  0.7074E+01  0.8943E+01  0.2317E+03  0.2316E+03
      5.697  0.2222E+01  0.3894E+01  0.2318E+03  0.2318E+03
      5.760  0.2328E-03  0.1775E-10  0.2318E+03  0.2318E+03
      5.823  0.2655E+01  0.1311E+01  0.2320E+03  0.2319E+03
      5.886  0.0000E+00  0.1345E+01  0.2320E+03  0.2320E+03
      5.948  0.0000E+00  0.0000E+00  0.2320E+03  0.2320E+03
      6.011  0.0000E+00  0.0000E+00  0.2320E+03  0.2320E+03
      6.074  0.0000E+00  0.0000E+00  0.2320E+03  0.2320E+03
      6.137  0.0000E+00  0.0000E+00  0.2320E+03  0.2320E+03
      6.199  0.0000E+00  0.0000E+00  0.2320E+03  0.2320E+03
      6.262  0.0000E+00  0.0000E+00  0.2320E+03  0.2320E+03
      6.325  0.0000E+00  0.0000E+00  0.2320E+03  0.2320E+03
      6.388  0.0000E+00  0.0000E+00  0.2320E+03  0.2320E+03
      6.450  0.0000E+00  0.0000E+00  0.2320E+03  0.2320E+03
      6.513  0.0000E+00  0.0000E+00  0.2320E+03  0.2320E+03
      6.576  0.0000E+00  0.0000E+00  0.2320E+03  0.2320E+03
      6.639  0.0000E+00  0.0000E+00  0.2320E+03  0.2320E+03
      6.701  0.0000E+00  0.0000E+00  0.2320E+03  0.2320E+03
