 264 264   0   0
  0.2774202E+02  0.1958175E-08  0.1958175E-08  0.1910025E-08  0.5000000E-15
  1.000000000000000E-004
  CAR 
 Si and Ge interface calculation         
      6.64746042     -9.18081491  301      4.05096946      1.00000000
     -9.181  0.0000E+00  0.0000E+00  0.0000E+00  0.0000E+00
     -9.128  0.0000E+00  0.0000E+00  0.0000E+00  0.0000E+00
     -9.075  0.0000E+00  0.0000E+00  0.0000E+00  0.0000E+00
     -9.023  0.0000E+00  0.0000E+00  0.0000E+00  0.0000E+00
     -8.970  0.0000E+00  0.0000E+00  0.0000E+00  0.0000E+00
     -8.917  0.0000E+00  0.0000E+00  0.0000E+00  0.0000E+00
     -8.864  0.0000E+00  0.0000E+00  0.0000E+00  0.0000E+00
     -8.811  0.0000E+00  0.0000E+00  0.0000E+00  0.0000E+00
     -8.759  0.0000E+00  0.0000E+00  0.0000E+00  0.0000E+00
     -8.706  0.0000E+00  0.0000E+00  0.0000E+00  0.0000E+00
     -8.653  0.0000E+00  0.0000E+00  0.0000E+00  0.0000E+00
     -8.600  0.0000E+00  0.0000E+00  0.0000E+00  0.0000E+00
     -8.548  0.0000E+00  0.0000E+00  0.0000E+00  0.0000E+00
     -8.495  0.9636E-05  0.2911E-05  0.5084E-06  0.1536E-06
     -8.442  0.1969E+02  0.1803E+02  0.1039E+01  0.9514E+00
     -8.389  0.1822E+02  0.1987E+02  0.2000E+01  0.2000E+01
     -8.337  0.0000E+00  0.0000E+00  0.2000E+01  0.2000E+01
     -8.284  0.7801E-05  0.2520E-05  0.2000E+01  0.2000E+01
     -8.231  0.1889E+02  0.1862E+02  0.2997E+01  0.2982E+01
     -8.178  0.9762E+01  0.9945E+01  0.3512E+01  0.3507E+01
     -8.126  0.1872E+02  0.1880E+02  0.4499E+01  0.4499E+01
     -8.073  0.9534E+01  0.9489E+01  0.5002E+01  0.4999E+01
     -8.020  0.1891E+02  0.1896E+02  0.6000E+01  0.6000E+01
     -7.967  0.1788E+02  0.1687E+02  0.6943E+01  0.6890E+01
     -7.915  0.2950E+02  0.3050E+02  0.8500E+01  0.8500E+01
     -7.862  0.4541E+01  0.3717E+01  0.8739E+01  0.8696E+01
     -7.809  0.1468E+02  0.1528E+02  0.9514E+01  0.9502E+01
     -7.756  0.1869E+02  0.1892E+02  0.1050E+02  0.1050E+02
     -7.704  0.1871E+02  0.1819E+02  0.1149E+02  0.1146E+02
     -7.651  0.3695E+02  0.3700E+02  0.1344E+02  0.1341E+02
     -7.598  0.8716E+01  0.8297E+01  0.1390E+02  0.1385E+02
     -7.545  0.3037E+02  0.3123E+02  0.1550E+02  0.1550E+02
     -7.492  0.1552E+02  0.1461E+02  0.1632E+02  0.1627E+02
     -7.440  0.1400E+02  0.1455E+02  0.1706E+02  0.1704E+02
     -7.387  0.8523E+01  0.8851E+01  0.1751E+02  0.1750E+02
     -7.334  0.3501E+02  0.3339E+02  0.1935E+02  0.1926E+02
     -7.281  0.2237E+02  0.2380E+02  0.2053E+02  0.2052E+02
     -7.229  0.2578E+02  0.2527E+02  0.2189E+02  0.2185E+02
     -7.176  0.2206E+02  0.2103E+02  0.2306E+02  0.2296E+02
     -7.123  0.2806E+02  0.2956E+02  0.2454E+02  0.2452E+02
     -7.070  0.2798E+02  0.2804E+02  0.2601E+02  0.2600E+02
     -7.018  0.4360E+02  0.4179E+02  0.2831E+02  0.2821E+02
     -6.965  0.2046E+02  0.2161E+02  0.2939E+02  0.2935E+02
     -6.912  0.4713E+02  0.4709E+02  0.3188E+02  0.3183E+02
     -6.859  0.2866E+02  0.2697E+02  0.3339E+02  0.3325E+02
     -6.807  0.4590E+02  0.4699E+02  0.3581E+02  0.3573E+02
     -6.754  0.3446E+02  0.3513E+02  0.3763E+02  0.3759E+02
     -6.701  0.5227E+02  0.5221E+02  0.4039E+02  0.4034E+02
     -6.648  0.2942E+02  0.2955E+02  0.4194E+02  0.4190E+02
     -6.596  0.5411E+02  0.5313E+02  0.4480E+02  0.4470E+02
     -6.543  0.3285E+02  0.3393E+02  0.4653E+02  0.4649E+02
     -6.490  0.3086E+02  0.3014E+02  0.4816E+02  0.4808E+02
     -6.437  0.4465E+02  0.4595E+02  0.5051E+02  0.5051E+02
     -6.384  0.5966E+02  0.5673E+02  0.5366E+02  0.5350E+02
     -6.332  0.6572E+02  0.6554E+02  0.5713E+02  0.5696E+02
     -6.279  0.4046E+02  0.4229E+02  0.5926E+02  0.5919E+02
     -6.226  0.4549E+02  0.4561E+02  0.6166E+02  0.6160E+02
     -6.173  0.4777E+02  0.4464E+02  0.6419E+02  0.6395E+02
     -6.121  0.7898E+02  0.7852E+02  0.6835E+02  0.6810E+02
     -6.068  0.8151E+02  0.8489E+02  0.7265E+02  0.7257E+02
     -6.015  0.7671E+02  0.7608E+02  0.7670E+02  0.7659E+02
     -5.962  0.6191E+02  0.6203E+02  0.7997E+02  0.7986E+02
     -5.910  0.5956E+02  0.5987E+02  0.8311E+02  0.8302E+02
     -5.857  0.5072E+02  0.4977E+02  0.8578E+02  0.8565E+02
     -5.804  0.8330E+02  0.8247E+02  0.9018E+02  0.9000E+02
     -5.751  0.7576E+02  0.7585E+02  0.9418E+02  0.9400E+02
     -5.699  0.8561E+02  0.8574E+02  0.9869E+02  0.9852E+02
     -5.646  0.9181E+02  0.9041E+02  0.1035E+03  0.1033E+03
     -5.593  0.7286E+02  0.7416E+02  0.1074E+03  0.1072E+03
     -5.540  0.6187E+02  0.6199E+02  0.1106E+03  0.1105E+03
     -5.488  0.7086E+02  0.7111E+02  0.1144E+03  0.1142E+03
     -5.435  0.6805E+02  0.6647E+02  0.1180E+03  0.1177E+03
     -5.382  0.8073E+02  0.8133E+02  0.1222E+03  0.1220E+03
     -5.329  0.9225E+02  0.9351E+02  0.1271E+03  0.1270E+03
     -5.277  0.7012E+02  0.7050E+02  0.1308E+03  0.1307E+03
     -5.224  0.8162E+02  0.8127E+02  0.1351E+03  0.1350E+03
     -5.171  0.5316E+02  0.5214E+02  0.1379E+03  0.1377E+03
     -5.118  0.8142E+02  0.8166E+02  0.1422E+03  0.1420E+03
     -5.065  0.7485E+02  0.7488E+02  0.1462E+03  0.1460E+03
     -5.013  0.7250E+02  0.7247E+02  0.1500E+03  0.1498E+03
     -4.960  0.7069E+02  0.6954E+02  0.1537E+03  0.1535E+03
     -4.907  0.7277E+02  0.7432E+02  0.1576E+03  0.1574E+03
     -4.854  0.9447E+02  0.9236E+02  0.1625E+03  0.1623E+03
     -4.802  0.9263E+02  0.9278E+02  0.1674E+03  0.1672E+03
     -4.749  0.1042E+03  0.1025E+03  0.1729E+03  0.1726E+03
     -4.696  0.1188E+03  0.1194E+03  0.1792E+03  0.1789E+03
     -4.643  0.9404E+02  0.9743E+02  0.1842E+03  0.1840E+03
     -4.591  0.8547E+02  0.8453E+02  0.1887E+03  0.1885E+03
     -4.538  0.9552E+02  0.9337E+02  0.1937E+03  0.1934E+03
     -4.485  0.9881E+02  0.9883E+02  0.1989E+03  0.1986E+03
     -4.432  0.1032E+03  0.1036E+03  0.2044E+03  0.2041E+03
     -4.380  0.8760E+02  0.8876E+02  0.2090E+03  0.2088E+03
     -4.327  0.6973E+02  0.6931E+02  0.2127E+03  0.2124E+03
     -4.274  0.7061E+02  0.7009E+02  0.2164E+03  0.2161E+03
     -4.221  0.8302E+02  0.8219E+02  0.2208E+03  0.2204E+03
     -4.169  0.9639E+02  0.9660E+02  0.2258E+03  0.2255E+03
     -4.116  0.9183E+02  0.9431E+02  0.2307E+03  0.2305E+03
     -4.063  0.6828E+02  0.6658E+02  0.2343E+03  0.2340E+03
     -4.010  0.7938E+02  0.8331E+02  0.2385E+03  0.2384E+03
     -3.957  0.5141E+02  0.5016E+02  0.2412E+03  0.2411E+03
     -3.905  0.3678E+02  0.3566E+02  0.2431E+03  0.2430E+03
     -3.852  0.5861E+02  0.5770E+02  0.2462E+03  0.2460E+03
     -3.799  0.4991E+02  0.5288E+02  0.2489E+03  0.2488E+03
     -3.746  0.6094E+02  0.5691E+02  0.2521E+03  0.2518E+03
     -3.694  0.6935E+02  0.6718E+02  0.2557E+03  0.2553E+03
     -3.641  0.6902E+02  0.6977E+02  0.2594E+03  0.2590E+03
     -3.588  0.8009E+02  0.8190E+02  0.2636E+03  0.2633E+03
     -3.535  0.5064E+02  0.5144E+02  0.2663E+03  0.2661E+03
     -3.483  0.7345E+02  0.7329E+02  0.2702E+03  0.2699E+03
     -3.430  0.7829E+02  0.7984E+02  0.2743E+03  0.2741E+03
     -3.377  0.6102E+02  0.5907E+02  0.2775E+03  0.2772E+03
     -3.324  0.9357E+02  0.9323E+02  0.2824E+03  0.2822E+03
     -3.272  0.8116E+02  0.8059E+02  0.2867E+03  0.2864E+03
     -3.219  0.7100E+02  0.7186E+02  0.2905E+03  0.2902E+03
     -3.166  0.7561E+02  0.7349E+02  0.2945E+03  0.2941E+03
     -3.113  0.7289E+02  0.7608E+02  0.2983E+03  0.2981E+03
     -3.061  0.7519E+02  0.7158E+02  0.3023E+03  0.3019E+03
     -3.008  0.6000E+02  0.6227E+02  0.3054E+03  0.3052E+03
     -2.955  0.7979E+02  0.7893E+02  0.3096E+03  0.3093E+03
     -2.902  0.1168E+03  0.1153E+03  0.3158E+03  0.3154E+03
     -2.850  0.7328E+02  0.7470E+02  0.3197E+03  0.3194E+03
     -2.797  0.9748E+02  0.9787E+02  0.3248E+03  0.3245E+03
     -2.744  0.1148E+03  0.1145E+03  0.3309E+03  0.3306E+03
     -2.691  0.9330E+02  0.9342E+02  0.3358E+03  0.3355E+03
     -2.638  0.8938E+02  0.8840E+02  0.3405E+03  0.3402E+03
     -2.586  0.1241E+03  0.1224E+03  0.3471E+03  0.3466E+03
     -2.533  0.1035E+03  0.1034E+03  0.3525E+03  0.3521E+03
     -2.480  0.1241E+03  0.1267E+03  0.3591E+03  0.3588E+03
     -2.427  0.9080E+02  0.9278E+02  0.3639E+03  0.3636E+03
     -2.375  0.9795E+02  0.9682E+02  0.3690E+03  0.3688E+03
     -2.322  0.9228E+02  0.9170E+02  0.3739E+03  0.3736E+03
     -2.269  0.1052E+03  0.1034E+03  0.3794E+03  0.3790E+03
     -2.216  0.8096E+02  0.8530E+02  0.3837E+03  0.3835E+03
     -2.164  0.1958E+02  0.2255E+02  0.3848E+03  0.3847E+03
     -2.111  0.5939E+02  0.5482E+02  0.3879E+03  0.3876E+03
     -2.058  0.7768E+02  0.7882E+02  0.3920E+03  0.3918E+03
     -2.005  0.7858E+02  0.7594E+02  0.3961E+03  0.3958E+03
     -1.953  0.9085E+02  0.9345E+02  0.4009E+03  0.4007E+03
     -1.900  0.9627E+02  0.9506E+02  0.4060E+03  0.4057E+03
     -1.847  0.7436E+02  0.7608E+02  0.4099E+03  0.4098E+03
     -1.794  0.7071E+02  0.6957E+02  0.4137E+03  0.4134E+03
     -1.742  0.9741E+02  0.9308E+02  0.4188E+03  0.4183E+03
     -1.689  0.1070E+03  0.1124E+03  0.4244E+03  0.4243E+03
     -1.636  0.8796E+02  0.8736E+02  0.4291E+03  0.4289E+03
     -1.583  0.9227E+02  0.8855E+02  0.4340E+03  0.4336E+03
     -1.530  0.6219E+02  0.6805E+02  0.4372E+03  0.4371E+03
     -1.478  0.6350E+02  0.6235E+02  0.4406E+03  0.4404E+03
     -1.425  0.4038E+02  0.3893E+02  0.4427E+03  0.4425E+03
     -1.372  0.7002E+02  0.7058E+02  0.4464E+03  0.4462E+03
     -1.319  0.7009E+02  0.7168E+02  0.4501E+03  0.4500E+03
     -1.267  0.3211E+02  0.3135E+02  0.4518E+03  0.4516E+03
     -1.214  0.7024E+02  0.6959E+02  0.4555E+03  0.4553E+03
     -1.161  0.5312E+02  0.5074E+02  0.4583E+03  0.4580E+03
     -1.108  0.5813E+02  0.6185E+02  0.4614E+03  0.4613E+03
     -1.056  0.4696E+02  0.4749E+02  0.4639E+03  0.4638E+03
     -1.003  0.5093E+02  0.5158E+02  0.4665E+03  0.4665E+03
     -0.950  0.2971E+02  0.2936E+02  0.4681E+03  0.4680E+03
     -0.897  0.5237E+02  0.5010E+02  0.4709E+03  0.4707E+03
     -0.845  0.7755E+02  0.7535E+02  0.4750E+03  0.4747E+03
     -0.792  0.5778E+02  0.5954E+02  0.4780E+03  0.4778E+03
     -0.739  0.4272E+02  0.4319E+02  0.4803E+03  0.4801E+03
     -0.686  0.8211E+02  0.8086E+02  0.4846E+03  0.4843E+03
     -0.634  0.5325E+02  0.5611E+02  0.4874E+03  0.4873E+03
     -0.581  0.2963E+02  0.3033E+02  0.4890E+03  0.4889E+03
     -0.528  0.2224E+02  0.2191E+02  0.4901E+03  0.4901E+03
     -0.475  0.2455E+02  0.2475E+02  0.4914E+03  0.4914E+03
     -0.423  0.2793E+02  0.2701E+02  0.4929E+03  0.4928E+03
     -0.370  0.5386E+02  0.5341E+02  0.4958E+03  0.4956E+03
     -0.317  0.7210E+02  0.7127E+02  0.4996E+03  0.4994E+03
     -0.264  0.7286E+02  0.7183E+02  0.5034E+03  0.5032E+03
     -0.211  0.8903E+02  0.8819E+02  0.5081E+03  0.5078E+03
     -0.159  0.1087E+03  0.1103E+03  0.5138E+03  0.5136E+03
     -0.106  0.1076E+03  0.1057E+03  0.5195E+03  0.5192E+03
     -0.053  0.1018E+03  0.1007E+03  0.5249E+03  0.5245E+03
     -0.000  0.1114E+03  0.1143E+03  0.5308E+03  0.5305E+03
      0.052  0.1364E+03  0.1351E+03  0.5380E+03  0.5377E+03
      0.105  0.1332E+03  0.1321E+03  0.5450E+03  0.5446E+03
      0.158  0.8780E+02  0.8994E+02  0.5496E+03  0.5494E+03
      0.211  0.8630E+02  0.8567E+02  0.5542E+03  0.5539E+03
      0.263  0.7273E+02  0.7288E+02  0.5580E+03  0.5578E+03
      0.316  0.9764E+02  0.9675E+02  0.5632E+03  0.5629E+03
      0.369  0.8228E+02  0.8404E+02  0.5675E+03  0.5673E+03
      0.422  0.1135E+03  0.1128E+03  0.5735E+03  0.5732E+03
      0.474  0.8652E+02  0.8829E+02  0.5781E+03  0.5779E+03
      0.527  0.1024E+03  0.9991E+02  0.5835E+03  0.5832E+03
      0.580  0.1304E+03  0.1323E+03  0.5903E+03  0.5902E+03
      0.633  0.1078E+03  0.1070E+03  0.5960E+03  0.5958E+03
      0.685  0.1451E+03  0.1417E+03  0.6037E+03  0.6033E+03
      0.738  0.1375E+03  0.1382E+03  0.6109E+03  0.6106E+03
      0.791  0.1362E+03  0.1383E+03  0.6181E+03  0.6179E+03
      0.844  0.9010E+02  0.8921E+02  0.6229E+03  0.6226E+03
      0.897  0.1215E+03  0.1222E+03  0.6293E+03  0.6290E+03
      0.949  0.1149E+03  0.1137E+03  0.6354E+03  0.6350E+03
      1.002  0.9769E+02  0.9843E+02  0.6405E+03  0.6402E+03
      1.055  0.1407E+03  0.1376E+03  0.6479E+03  0.6475E+03
      1.108  0.1667E+03  0.1691E+03  0.6567E+03  0.6564E+03
      1.160  0.1846E+03  0.1816E+03  0.6665E+03  0.6660E+03
      1.213  0.1841E+03  0.1835E+03  0.6762E+03  0.6757E+03
      1.266  0.1475E+03  0.1502E+03  0.6840E+03  0.6836E+03
      1.319  0.2066E+03  0.2038E+03  0.6949E+03  0.6943E+03
      1.371  0.1771E+03  0.1801E+03  0.7042E+03  0.7038E+03
      1.424  0.1441E+03  0.1471E+03  0.7118E+03  0.7116E+03
      1.477  0.1473E+03  0.1406E+03  0.7196E+03  0.7190E+03
      1.530  0.2148E+03  0.2142E+03  0.7309E+03  0.7303E+03
      1.582  0.1836E+03  0.1838E+03  0.7406E+03  0.7400E+03
      1.635  0.2003E+03  0.2016E+03  0.7512E+03  0.7507E+03
      1.688  0.1686E+03  0.1692E+03  0.7601E+03  0.7596E+03
      1.741  0.1966E+03  0.1951E+03  0.7704E+03  0.7699E+03
      1.793  0.1773E+03  0.1786E+03  0.7798E+03  0.7793E+03
      1.846  0.1645E+03  0.1644E+03  0.7885E+03  0.7880E+03
      1.899  0.1609E+03  0.1580E+03  0.7970E+03  0.7963E+03
      1.952  0.2200E+03  0.2184E+03  0.8086E+03  0.8078E+03
      2.004  0.1609E+03  0.1672E+03  0.8171E+03  0.8167E+03
      2.057  0.1789E+03  0.1755E+03  0.8265E+03  0.8259E+03
      2.110  0.1902E+03  0.1871E+03  0.8365E+03  0.8358E+03
      2.163  0.2069E+03  0.2123E+03  0.8475E+03  0.8470E+03
      2.216  0.1185E+03  0.1194E+03  0.8537E+03  0.8533E+03
      2.268  0.1692E+03  0.1668E+03  0.8626E+03  0.8621E+03
      2.321  0.1510E+03  0.1510E+03  0.8706E+03  0.8701E+03
      2.374  0.1874E+03  0.1844E+03  0.8805E+03  0.8798E+03
      2.427  0.1830E+03  0.1895E+03  0.8901E+03  0.8898E+03
      2.479  0.1262E+03  0.1240E+03  0.8968E+03  0.8963E+03
      2.532  0.1414E+03  0.1466E+03  0.9043E+03  0.9041E+03
      2.585  0.1184E+03  0.1114E+03  0.9105E+03  0.9099E+03
      2.638  0.1451E+03  0.1447E+03  0.9182E+03  0.9176E+03
      2.690  0.1283E+03  0.1297E+03  0.9249E+03  0.9244E+03
      2.743  0.1486E+03  0.1473E+03  0.9328E+03  0.9322E+03
      2.796  0.1383E+03  0.1419E+03  0.9401E+03  0.9397E+03
      2.849  0.1327E+03  0.1264E+03  0.9471E+03  0.9463E+03
      2.901  0.1600E+03  0.1587E+03  0.9555E+03  0.9547E+03
      2.954  0.1037E+03  0.1077E+03  0.9610E+03  0.9604E+03
      3.007  0.1206E+03  0.1172E+03  0.9673E+03  0.9666E+03
      3.060  0.1345E+03  0.1396E+03  0.9744E+03  0.9739E+03
      3.112  0.1188E+03  0.1198E+03  0.9807E+03  0.9803E+03
      3.165  0.1075E+03  0.1081E+03  0.9864E+03  0.9860E+03
      3.218  0.1261E+03  0.1251E+03  0.9930E+03  0.9926E+03
      3.271  0.9665E+02  0.9542E+02  0.9981E+03  0.9976E+03
      3.324  0.1072E+03  0.1054E+03  0.1004E+04  0.1003E+04
      3.376  0.9953E+02  0.1022E+03  0.1009E+04  0.1009E+04
      3.429  0.5329E+02  0.5451E+02  0.1012E+04  0.1011E+04
      3.482  0.1054E+03  0.1018E+03  0.1017E+04  0.1017E+04
      3.535  0.8920E+02  0.8882E+02  0.1022E+04  0.1021E+04
      3.587  0.8655E+02  0.8875E+02  0.1027E+04  0.1026E+04
      3.640  0.8363E+02  0.8363E+02  0.1031E+04  0.1031E+04
      3.693  0.7256E+02  0.7443E+02  0.1035E+04  0.1035E+04
      3.746  0.4493E+02  0.4635E+02  0.1037E+04  0.1037E+04
      3.798  0.6901E+02  0.6506E+02  0.1041E+04  0.1040E+04
      3.851  0.3500E+02  0.3887E+02  0.1043E+04  0.1042E+04
      3.904  0.4136E+02  0.3800E+02  0.1045E+04  0.1044E+04
      3.957  0.6018E+02  0.5601E+02  0.1048E+04  0.1047E+04
      4.009  0.7907E+02  0.8017E+02  0.1052E+04  0.1052E+04
      4.062  0.9378E+02  0.8556E+02  0.1057E+04  0.1056E+04
      4.115  0.1268E+03  0.1338E+03  0.1064E+04  0.1063E+04
      4.168  0.8218E+02  0.7939E+02  0.1068E+04  0.1067E+04
      4.220  0.8240E+02  0.7833E+02  0.1073E+04  0.1072E+04
      4.273  0.9753E+02  0.1017E+03  0.1078E+04  0.1077E+04
      4.326  0.1202E+03  0.1111E+03  0.1084E+04  0.1083E+04
      4.379  0.1322E+03  0.1412E+03  0.1091E+04  0.1090E+04
      4.432  0.1172E+03  0.1187E+03  0.1097E+04  0.1096E+04
      4.484  0.1211E+03  0.1183E+03  0.1104E+04  0.1103E+04
      4.537  0.8905E+02  0.9583E+02  0.1108E+04  0.1108E+04
      4.590  0.9199E+02  0.8900E+02  0.1113E+04  0.1112E+04
      4.643  0.1223E+03  0.1227E+03  0.1120E+04  0.1119E+04
      4.695  0.1155E+03  0.1119E+03  0.1126E+04  0.1125E+04
      4.748  0.1087E+03  0.1111E+03  0.1132E+04  0.1131E+04
      4.801  0.1248E+03  0.1262E+03  0.1138E+04  0.1137E+04
      4.854  0.1012E+03  0.1016E+03  0.1143E+04  0.1143E+04
      4.906  0.1407E+03  0.1395E+03  0.1151E+04  0.1150E+04
      4.959  0.1162E+03  0.1128E+03  0.1157E+04  0.1156E+04
      5.012  0.1184E+03  0.1191E+03  0.1163E+04  0.1162E+04
      5.065  0.1372E+03  0.1406E+03  0.1170E+04  0.1170E+04
      5.117  0.9930E+02  0.1033E+03  0.1176E+04  0.1175E+04
      5.170  0.1053E+03  0.1039E+03  0.1181E+04  0.1181E+04
      5.223  0.9536E+02  0.9695E+02  0.1186E+04  0.1186E+04
      5.276  0.1052E+03  0.1053E+03  0.1192E+04  0.1191E+04
      5.328  0.1186E+03  0.1143E+03  0.1198E+04  0.1197E+04
      5.381  0.1269E+03  0.1297E+03  0.1205E+04  0.1204E+04
      5.434  0.1395E+03  0.1417E+03  0.1212E+04  0.1212E+04
      5.487  0.1442E+03  0.1402E+03  0.1220E+04  0.1219E+04
      5.539  0.1694E+03  0.1681E+03  0.1229E+04  0.1228E+04
      5.592  0.1501E+03  0.1539E+03  0.1237E+04  0.1236E+04
      5.645  0.1393E+03  0.1396E+03  0.1244E+04  0.1243E+04
      5.698  0.1131E+03  0.1110E+03  0.1250E+04  0.1249E+04
      5.751  0.1148E+03  0.1156E+03  0.1256E+04  0.1255E+04
      5.803  0.1211E+03  0.1228E+03  0.1262E+04  0.1262E+04
      5.856  0.9742E+02  0.1028E+03  0.1268E+04  0.1267E+04
      5.909  0.7808E+02  0.7985E+02  0.1272E+04  0.1272E+04
      5.962  0.6591E+01  0.9204E+01  0.1272E+04  0.1272E+04
      6.014  0.0000E+00  0.0000E+00  0.1272E+04  0.1272E+04
      6.067  0.0000E+00  0.0000E+00  0.1272E+04  0.1272E+04
      6.120  0.0000E+00  0.0000E+00  0.1272E+04  0.1272E+04
      6.173  0.0000E+00  0.0000E+00  0.1272E+04  0.1272E+04
      6.225  0.0000E+00  0.0000E+00  0.1272E+04  0.1272E+04
      6.278  0.0000E+00  0.0000E+00  0.1272E+04  0.1272E+04
      6.331  0.0000E+00  0.0000E+00  0.1272E+04  0.1272E+04
      6.384  0.0000E+00  0.0000E+00  0.1272E+04  0.1272E+04
      6.436  0.0000E+00  0.0000E+00  0.1272E+04  0.1272E+04
      6.489  0.0000E+00  0.0000E+00  0.1272E+04  0.1272E+04
      6.542  0.0000E+00  0.0000E+00  0.1272E+04  0.1272E+04
      6.595  0.0000E+00  0.0000E+00  0.1272E+04  0.1272E+04
      6.647  0.0000E+00  0.0000E+00  0.1272E+04  0.1272E+04
