Si and Ge interface calculation         
           1
    16.293001    0.000000    0.000000
     0.000000   16.293001    0.000000
     0.000000    0.000000   10.122643
   Si   Ge
   108    48
Direct configuration=     1
   0.00000000  0.99406773  0.00000000
   0.00000000  0.82740104  0.26826000
   0.00000000  0.66073430  0.53652006
   0.33333334  0.99406773  0.00000000
   0.33333334  0.82740104  0.26826000
   0.33333334  0.66073430  0.53652006
   0.66666669  0.99406773  0.00000000
   0.66666669  0.82740104  0.26826000
   0.66666669  0.66073430  0.53652006
   0.00000000  0.32740104  0.00000000
   0.00000000  0.16073437  0.26826000
   0.00000000  0.99406767  0.53652006
   0.33333334  0.32740104  0.00000000
   0.33333334  0.16073437  0.26826000
   0.33333334  0.99406767  0.53652006
   0.66666669  0.32740104  0.00000000
   0.66666669  0.16073437  0.26826000
   0.66666669  0.99406767  0.53652006
   0.00000000  0.66073442  0.00000000
   0.00000000  0.49406770  0.26826000
   0.00000000  0.32740104  0.53652006
   0.33333334  0.66073442  0.00000000
   0.33333334  0.49406770  0.26826000
   0.33333334  0.32740104  0.53652006
   0.66666669  0.66073442  0.00000000
   0.66666669  0.49406770  0.26826000
   0.66666669  0.32740104  0.53652006
   0.08333334  0.07740105  0.13413002
   0.08333334  0.91073436  0.40238997
   0.08333334  0.74406767  0.67065006
   0.41666669  0.07740105  0.13413002
   0.41666669  0.91073436  0.40238997
   0.41666669  0.74406767  0.67065006
   0.75000000  0.07740105  0.13413002
   0.75000000  0.91073436  0.40238997
   0.75000000  0.74406767  0.67065006
   0.08333334  0.41073436  0.13413002
   0.08333334  0.24406767  0.40238997
   0.08333334  0.07740098  0.67065006
   0.41666669  0.41073436  0.13413002
   0.41666669  0.24406767  0.40238997
   0.41666669  0.07740098  0.67065006
   0.75000000  0.41073436  0.13413002
   0.75000000  0.24406767  0.40238997
   0.75000000  0.07740098  0.67065006
   0.08333334  0.74406773  0.13413002
   0.08333334  0.57740104  0.40238997
   0.08333334  0.41073436  0.67065006
   0.41666669  0.74406773  0.13413002
   0.41666669  0.57740104  0.40238997
   0.41666669  0.41073436  0.67065006
   0.75000000  0.74406773  0.13413002
   0.75000000  0.57740104  0.40238997
   0.75000000  0.41073436  0.67065006
   0.16666667  0.16073438  0.00000000
   0.16666667  0.99406767  0.26826000
   0.16666667  0.82740098  0.53652006
   0.50000000  0.16073438  0.00000000
   0.50000000  0.99406767  0.26826000
   0.50000000  0.82740098  0.53652006
   0.83333337  0.16073438  0.00000000
   0.83333337  0.99406767  0.26826000
   0.83333337  0.82740098  0.53652006
   0.16666667  0.49406770  0.00000000
   0.16666667  0.32740104  0.26826000
   0.16666667  0.16073431  0.53652006
   0.50000000  0.49406770  0.00000000
   0.50000000  0.32740104  0.26826000
   0.50000000  0.16073431  0.53652006
   0.83333337  0.49406770  0.00000000
   0.83333337  0.32740104  0.26826000
   0.83333337  0.16073431  0.53652006
   0.16666667  0.82740104  0.00000000
   0.16666667  0.66073436  0.26826000
   0.16666667  0.49406764  0.53652006
   0.50000000  0.82740104  0.00000000
   0.50000000  0.66073436  0.26826000
   0.50000000  0.49406764  0.53652006
   0.83333337  0.82740104  0.00000000
   0.83333337  0.66073436  0.26826000
   0.83333337  0.49406764  0.53652006
   0.25000000  0.24406771  0.13413002
   0.25000000  0.07740103  0.40238997
   0.25000000  0.91073436  0.67065006
   0.58333337  0.24406771  0.13413002
   0.58333337  0.07740103  0.40238997
   0.58333337  0.91073436  0.67065006
   0.91666669  0.24406771  0.13413002
   0.91666669  0.07740103  0.40238997
   0.91666669  0.91073436  0.67065006
   0.25000000  0.57740116  0.13413002
   0.25000000  0.41073445  0.40238997
   0.25000000  0.24406774  0.67065006
   0.58333337  0.57740116  0.13413002
   0.58333337  0.41073445  0.40238997
   0.58333337  0.24406774  0.67065006
   0.91666669  0.57740116  0.13413002
   0.91666669  0.41073445  0.40238997
   0.91666669  0.24406774  0.67065006
   0.25000000  0.91073436  0.13413002
   0.25000000  0.74406767  0.40238997
   0.25000000  0.57740104  0.67065006
   0.58333337  0.91073436  0.13413002
   0.58333337  0.74406767  0.40238997
   0.58333337  0.57740104  0.67065006
   0.91666669  0.91073436  0.13413002
   0.91666669  0.74406767  0.40238997
   0.91666669  0.57740104  0.67065006
   0.91002428  0.41323766  0.67065000
   0.52113533  0.03823768  0.73652005
   0.13224643  0.66323775  0.80239010
   0.74335742  0.28823775  0.86826015
   0.35446846  0.91323781  0.93413007
   0.96557927  0.53823757  0.00000000
   0.91002428  0.91323769  0.67065000
   0.52113533  0.53823769  0.73652005
   0.13224638  0.16323775  0.80239010
   0.74335742  0.78823781  0.86825991
   0.35446846  0.41323781  0.93413007
   0.96557927  0.03823769  0.00000000
   0.66002417  0.78823763  0.67065000
   0.27113521  0.41323763  0.73652005
   0.88224632  0.03823768  0.80239010
   0.49335730  0.66323769  0.86826015
   0.10446840  0.28823775  0.93413007
   0.71557927  0.91323757  0.00000012
   0.66002423  0.28823766  0.67065000
   0.27113524  0.91323769  0.73652005
   0.88224632  0.53823769  0.80239010
   0.49335736  0.16323775  0.86826015
   0.10446835  0.78823769  0.93413007
   0.71557939  0.41323769  0.00000012
   0.66002417  0.53823769  0.67065000
   0.27113524  0.16323768  0.73652005
   0.88224632  0.78823769  0.80239010
   0.49335736  0.41323769  0.86826015
   0.10446840  0.03823781  0.93413007
   0.71557927  0.66323757  0.00000012
   0.66002423  0.03823769  0.67065000
   0.27113521  0.66323769  0.73652005
   0.88224632  0.28823775  0.80239010
   0.49335730  0.91323769  0.86826015
   0.10446840  0.53823781  0.93413007
   0.71557927  0.16323757  0.00000012
   0.91002428  0.66323763  0.67065000
   0.52113533  0.28823763  0.73652005
   0.13224643  0.91323769  0.80239010
   0.74335742  0.53823769  0.86825991
   0.35446846  0.16323775  0.93413007
   0.96557951  0.78823769  0.00000012
   0.91002428  0.16323771  0.67065000
   0.52113533  0.78823769  0.73652005
   0.13224638  0.41323769  0.80239010
   0.74335742  0.03823769  0.86825991
   0.35446846  0.66323781  0.93413007
   0.96557927  0.28823757  0.00000000
