       N       E                     dE             d eps       ncg     rms          rms(c)
DAV:   1     0.358572984136E+04    0.35857E+04   -0.27833E+05 16704   0.178E+03
DAV:   2     0.580293683542E+03   -0.30054E+04   -0.28926E+04 19880   0.245E+02
DAV:   3     0.246959928762E+03   -0.33333E+03   -0.31992E+03 22944   0.693E+01
DAV:   4     0.222652077676E+03   -0.24308E+02   -0.23706E+02 24760   0.200E+01
DAV:   5     0.221798860086E+03   -0.85322E+00   -0.84086E+00 23200   0.353E+00    0.220E+02
DAV:   6     0.338295319846E+03    0.11650E+03   -0.11696E+03 21104   0.673E+01    0.763E+01
DAV:   7     0.325875543458E+03   -0.12420E+02   -0.69416E+02 20888   0.569E+01    0.618E+01
DAV:   8     0.383378625077E+03    0.57503E+02   -0.28572E+02 20220   0.322E+01    0.268E+01
DAV:   9     0.381411891449E+03   -0.19667E+01   -0.11904E+02 19808   0.156E+01    0.166E+01
DAV:  10     0.381410292857E+03   -0.15986E-02   -0.26606E+01 19736   0.738E+00    0.140E+01
DAV:  11     0.381264288010E+03   -0.14600E+00   -0.32841E+00 20552   0.254E+00    0.142E+01
DAV:  12     0.381223978409E+03   -0.40310E-01   -0.37687E-01 20736   0.111E+00    0.118E+01
DAV:  13     0.381170703116E+03   -0.53275E-01   -0.29373E+00 20768   0.260E+00    0.664E+00
DAV:  14     0.381247462572E+03    0.76759E-01   -0.26361E+00 19936   0.237E+00    0.114E+01
DAV:  15     0.381533855842E+03    0.28639E+00   -0.59181E-01 20040   0.120E+00    0.701E+00
DAV:  16     0.381609586834E+03    0.75731E-01   -0.32632E-01 21016   0.660E-01    0.431E+00
DAV:  17     0.381607693100E+03   -0.18937E-02   -0.64046E-02 20064   0.355E-01    0.392E+00
DAV:  18     0.381652512475E+03    0.44819E-01   -0.13412E-01 20816   0.514E-01    0.103E+00
DAV:  19     0.381647289364E+03   -0.52231E-02   -0.73052E-02 21720   0.332E-01    0.464E-01
DAV:  20     0.381647001716E+03   -0.28765E-03   -0.52280E-03 20560   0.114E-01    0.565E-01
DAV:  21     0.381647454436E+03    0.45272E-03   -0.10754E-03 19888   0.526E-02    0.369E-01
DAV:  22     0.381647379143E+03   -0.75294E-04   -0.39886E-03 20392   0.850E-02    0.263E-01
DAV:  23     0.381647559995E+03    0.18085E-03   -0.11551E-03 19296   0.516E-02    0.119E-01
DAV:  24     0.381647597963E+03    0.37968E-04   -0.32025E-04 20792   0.211E-02    0.508E-02
DAV:  25     0.381647596522E+03   -0.14411E-05   -0.57410E-05 21480   0.104E-02    0.384E-02
DAV:  26     0.381647597690E+03    0.11680E-05   -0.24862E-05 20976   0.679E-03    0.277E-02
DAV:  27     0.381647599334E+03    0.16437E-05   -0.99448E-06 19088   0.494E-03    0.117E-02
DAV:  28     0.381647599429E+03    0.94835E-07   -0.29443E-06 21816   0.210E-03    0.872E-03
DAV:  29     0.381647599760E+03    0.33167E-06   -0.48349E-07 16896   0.103E-03    0.657E-03
DAV:  30     0.381647600143E+03    0.38229E-06   -0.39418E-07 15336   0.807E-04    0.515E-03
DAV:  31     0.381647600015E+03   -0.12799E-06   -0.28129E-07 12856   0.797E-04    0.304E-03
DAV:  32     0.381647599916E+03   -0.98749E-07   -0.19329E-07  9696   0.633E-04
   1 F= 0.38164760E+03 E0= 0.38164962E+03  d E =-.404203E-02  mag=     1.0000
