 144 144   0   0
  0.2800222E+02  0.1086200E-08  0.1629300E-08  0.2278474E-08  0.5000000E-15
  1.000000000000000E-004
  CAR 
 Si and Ge interface calculation         
      6.80370903     -8.36786830  301      4.06497043      1.00000000
     -8.368  0.0000E+00  0.0000E+00  0.0000E+00  0.0000E+00
     -8.317  0.0000E+00  0.0000E+00  0.0000E+00  0.0000E+00
     -8.267  0.0000E+00  0.0000E+00  0.0000E+00  0.0000E+00
     -8.216  0.0000E+00  0.0000E+00  0.0000E+00  0.0000E+00
     -8.166  0.0000E+00  0.0000E+00  0.0000E+00  0.0000E+00
     -8.115  0.0000E+00  0.0000E+00  0.0000E+00  0.0000E+00
     -8.064  0.0000E+00  0.0000E+00  0.0000E+00  0.0000E+00
     -8.014  0.0000E+00  0.0000E+00  0.0000E+00  0.0000E+00
     -7.963  0.0000E+00  0.0000E+00  0.0000E+00  0.0000E+00
     -7.913  0.0000E+00  0.0000E+00  0.0000E+00  0.0000E+00
     -7.862  0.0000E+00  0.0000E+00  0.0000E+00  0.0000E+00
     -7.812  0.0000E+00  0.0000E+00  0.0000E+00  0.0000E+00
     -7.761  0.0000E+00  0.0000E+00  0.0000E+00  0.0000E+00
     -7.710  0.1758E-04  0.8260E-06  0.8888E-06  0.4177E-07
     -7.660  0.6561E+01  0.6439E+01  0.3318E+00  0.3257E+00
     -7.609  0.3066E-01  0.1518E+00  0.3333E+00  0.3333E+00
     -7.559  0.1588E+02  0.1012E+02  0.1137E+01  0.8453E+00
     -7.508  0.1048E+02  0.1624E+02  0.1667E+01  0.1667E+01
     -7.458  0.2484E+01  0.9017E+00  0.1792E+01  0.1712E+01
     -7.407  0.2388E+02  0.2546E+02  0.3000E+01  0.3000E+01
     -7.356  0.0000E+00  0.6074E-03  0.3000E+01  0.3000E+01
     -7.306  0.0000E+00  0.0000E+00  0.3000E+01  0.3000E+01
     -7.255  0.5062E-04  0.2336E-05  0.3000E+01  0.3000E+01
     -7.205  0.1863E+02  0.1510E+02  0.3942E+01  0.3764E+01
     -7.154  0.7739E+01  0.1126E+02  0.4333E+01  0.4333E+01
     -7.104  0.2594E+02  0.2331E+02  0.5645E+01  0.5512E+01
     -7.053  0.2679E+02  0.2942E+02  0.7000E+01  0.7000E+01
     -7.002  0.0000E+00  0.4041E-03  0.7000E+01  0.7000E+01
     -6.952  0.0000E+00  0.0000E+00  0.7000E+01  0.7000E+01
     -6.901  0.0000E+00  0.0000E+00  0.7000E+01  0.7000E+01
     -6.851  0.2834E+00  0.3397E-01  0.7014E+01  0.7002E+01
     -6.800  0.1949E+02  0.1974E+02  0.8000E+01  0.8000E+01
     -6.750  0.1690E+02  0.1420E+02  0.8855E+01  0.8718E+01
     -6.699  0.3252E+01  0.5617E+01  0.9019E+01  0.9002E+01
     -6.648  0.3656E+02  0.3416E+02  0.1087E+02  0.1073E+02
     -6.598  0.2995E+02  0.2908E+02  0.1238E+02  0.1220E+02
     -6.547  0.2294E+02  0.2280E+02  0.1354E+02  0.1335E+02
     -6.497  0.4078E+02  0.4183E+02  0.1561E+02  0.1547E+02
     -6.446  0.7803E+01  0.1051E+02  0.1600E+02  0.1600E+02
     -6.396  0.2576E+02  0.2320E+02  0.1730E+02  0.1717E+02
     -6.345  0.3683E+02  0.3229E+02  0.1917E+02  0.1881E+02
     -6.294  0.9913E+01  0.1702E+02  0.1967E+02  0.1967E+02
     -6.244  0.2549E+02  0.1883E+02  0.2096E+02  0.2062E+02
     -6.193  0.8668E+02  0.9162E+02  0.2534E+02  0.2525E+02
     -6.143  0.1084E+02  0.1043E+02  0.2589E+02  0.2578E+02
     -6.092  0.2241E+01  0.4358E+01  0.2600E+02  0.2600E+02
     -6.042  0.2505E+02  0.2267E+02  0.2727E+02  0.2715E+02
     -5.991  0.8344E+01  0.6462E+01  0.2769E+02  0.2747E+02
     -5.940  0.4637E+02  0.4277E+02  0.3003E+02  0.2964E+02
     -5.890  0.5184E+02  0.5763E+02  0.3266E+02  0.3255E+02
     -5.839  0.8049E+02  0.7060E+02  0.3673E+02  0.3612E+02
     -5.789  0.3057E+02  0.3703E+02  0.3827E+02  0.3799E+02
     -5.738  0.8699E+02  0.9005E+02  0.4267E+02  0.4255E+02
     -5.688  0.4112E+02  0.4229E+02  0.4475E+02  0.4469E+02
     -5.637  0.3126E+02  0.3204E+02  0.4633E+02  0.4631E+02
     -5.586  0.7607E+02  0.6863E+02  0.5018E+02  0.4978E+02
     -5.536  0.3707E+02  0.4101E+02  0.5205E+02  0.5185E+02
     -5.485  0.3083E+02  0.3206E+02  0.5361E+02  0.5347E+02
     -5.435  0.6091E+02  0.5872E+02  0.5669E+02  0.5644E+02
     -5.384  0.3586E+02  0.3126E+02  0.5851E+02  0.5802E+02
     -5.334  0.6335E+02  0.7223E+02  0.6171E+02  0.6168E+02
     -5.283  0.3219E+02  0.2814E+02  0.6334E+02  0.6310E+02
     -5.232  0.6459E+02  0.6569E+02  0.6661E+02  0.6642E+02
     -5.182  0.5435E+02  0.5748E+02  0.6935E+02  0.6933E+02
     -5.131  0.1641E+02  0.1419E+02  0.7018E+02  0.7005E+02
     -5.081  0.6062E+02  0.5575E+02  0.7325E+02  0.7287E+02
     -5.030  0.4064E+02  0.4568E+02  0.7530E+02  0.7518E+02
     -4.980  0.1592E+02  0.1669E+02  0.7611E+02  0.7602E+02
     -4.929  0.8963E+02  0.8523E+02  0.8064E+02  0.8033E+02
     -4.878  0.6786E+02  0.6887E+02  0.8407E+02  0.8381E+02
     -4.828  0.9551E+02  0.9135E+02  0.8890E+02  0.8843E+02
     -4.777  0.6852E+02  0.7465E+02  0.9237E+02  0.9221E+02
     -4.727  0.6227E+02  0.5557E+02  0.9552E+02  0.9502E+02
     -4.676  0.7422E+02  0.7061E+02  0.9927E+02  0.9859E+02
     -4.626  0.4297E+02  0.5387E+02  0.1014E+03  0.1013E+03
     -4.575  0.1964E+02  0.1834E+02  0.1024E+03  0.1022E+03
     -4.524  0.2961E+02  0.2683E+02  0.1039E+03  0.1036E+03
     -4.474  0.1055E+03  0.1055E+03  0.1093E+03  0.1089E+03
     -4.423  0.2924E+02  0.2904E+02  0.1107E+03  0.1104E+03
     -4.373  0.3287E+02  0.3409E+02  0.1124E+03  0.1121E+03
     -4.322  0.5752E+02  0.5964E+02  0.1153E+03  0.1151E+03
     -4.272  0.6300E+02  0.5959E+02  0.1185E+03  0.1182E+03
     -4.221  0.3981E+02  0.4255E+02  0.1205E+03  0.1203E+03
     -4.170  0.3575E+02  0.3152E+02  0.1223E+03  0.1219E+03
     -4.120  0.7187E+02  0.7788E+02  0.1260E+03  0.1258E+03
     -4.069  0.2631E+02  0.2449E+02  0.1273E+03  0.1271E+03
     -4.019  0.5009E+02  0.4147E+02  0.1298E+03  0.1292E+03
     -3.968  0.3107E+02  0.4280E+02  0.1314E+03  0.1313E+03
     -3.918  0.2771E+02  0.2502E+02  0.1328E+03  0.1326E+03
     -3.867  0.1294E+02  0.1517E+02  0.1335E+03  0.1334E+03
     -3.816  0.3423E+02  0.2925E+02  0.1352E+03  0.1349E+03
     -3.766  0.6048E+02  0.5877E+02  0.1382E+03  0.1378E+03
     -3.715  0.1971E+02  0.2364E+02  0.1392E+03  0.1390E+03
     -3.665  0.1610E+02  0.1956E+02  0.1401E+03  0.1400E+03
     -3.614  0.1355E+02  0.1324E+02  0.1407E+03  0.1407E+03
     -3.564  0.5343E+02  0.5289E+02  0.1434E+03  0.1434E+03
     -3.513  0.2425E+02  0.2592E+02  0.1447E+03  0.1447E+03
     -3.462  0.3304E-02  0.8002E-01  0.1447E+03  0.1447E+03
     -3.412  0.1300E+02  0.1160E+02  0.1453E+03  0.1453E+03
     -3.361  0.4536E+02  0.3396E+02  0.1476E+03  0.1470E+03
     -3.311  0.3396E+02  0.4672E+02  0.1493E+03  0.1493E+03
     -3.260  0.1364E+02  0.1325E+02  0.1500E+03  0.1500E+03
     -3.210  0.4167E+02  0.3706E+02  0.1521E+03  0.1519E+03
     -3.159  0.1564E+02  0.1692E+02  0.1529E+03  0.1527E+03
     -3.108  0.7160E+01  0.6667E+01  0.1533E+03  0.1531E+03
     -3.058  0.5913E+02  0.5979E+02  0.1563E+03  0.1561E+03
     -3.007  0.2055E+02  0.1648E+02  0.1573E+03  0.1569E+03
     -2.957  0.3332E+02  0.4097E+02  0.1590E+03  0.1590E+03
     -2.906  0.1455E+02  0.8093E+01  0.1597E+03  0.1594E+03
     -2.856  0.4800E+02  0.4707E+02  0.1622E+03  0.1618E+03
     -2.805  0.5731E+02  0.5489E+02  0.1651E+03  0.1646E+03
     -2.754  0.3122E+02  0.3824E+02  0.1666E+03  0.1665E+03
     -2.704  0.7531E+02  0.6744E+02  0.1704E+03  0.1699E+03
     -2.653  0.6764E+02  0.6909E+02  0.1739E+03  0.1734E+03
     -2.603  0.5196E+02  0.5851E+02  0.1765E+03  0.1764E+03
     -2.552  0.5848E+02  0.5682E+02  0.1795E+03  0.1792E+03
     -2.502  0.3493E+02  0.3363E+02  0.1812E+03  0.1809E+03
     -2.451  0.7326E+02  0.6715E+02  0.1849E+03  0.1843E+03
     -2.400  0.7444E+02  0.8101E+02  0.1887E+03  0.1884E+03
     -2.350  0.1195E+03  0.1129E+03  0.1947E+03  0.1941E+03
     -2.299  0.6050E+02  0.6263E+02  0.1978E+03  0.1973E+03
     -2.249  0.6982E+02  0.7009E+02  0.2013E+03  0.2008E+03
     -2.198  0.2007E+02  0.2937E+02  0.2023E+03  0.2023E+03
     -2.148  0.3387E+02  0.3121E+02  0.2041E+03  0.2039E+03
     -2.097  0.8105E+02  0.8130E+02  0.2081E+03  0.2080E+03
     -2.046  0.6797E+02  0.6540E+02  0.2116E+03  0.2113E+03
     -1.996  0.3265E+02  0.3392E+02  0.2132E+03  0.2130E+03
     -1.945  0.4987E+02  0.4331E+02  0.2158E+03  0.2152E+03
     -1.895  0.5927E+02  0.6686E+02  0.2188E+03  0.2186E+03
     -1.844  0.6187E+02  0.5505E+02  0.2219E+03  0.2214E+03
     -1.794  0.6671E+02  0.6669E+02  0.2253E+03  0.2248E+03
     -1.743  0.4604E+02  0.4927E+02  0.2276E+03  0.2273E+03
     -1.692  0.2967E+02  0.3185E+02  0.2291E+03  0.2289E+03
     -1.642  0.4744E+02  0.4877E+02  0.2315E+03  0.2313E+03
     -1.591  0.6437E+02  0.5787E+02  0.2347E+03  0.2343E+03
     -1.541  0.2851E+02  0.3548E+02  0.2362E+03  0.2361E+03
     -1.490  0.5258E+02  0.5013E+02  0.2388E+03  0.2386E+03
     -1.440  0.3286E+01  0.7933E+01  0.2390E+03  0.2390E+03
     -1.389  0.2615E+02  0.2615E+02  0.2403E+03  0.2403E+03
     -1.338  0.1188E+02  0.8898E+01  0.2409E+03  0.2408E+03
     -1.288  0.2855E+02  0.2248E+02  0.2424E+03  0.2419E+03
     -1.237  0.2480E+02  0.2918E+02  0.2436E+03  0.2434E+03
     -1.187  0.4024E+02  0.4498E+02  0.2457E+03  0.2457E+03
     -1.136  0.3122E+02  0.2019E+02  0.2472E+03  0.2467E+03
     -1.086  0.3755E+02  0.4534E+02  0.2491E+03  0.2490E+03
     -1.035  0.2612E+02  0.2756E+02  0.2505E+03  0.2504E+03
     -0.984  0.3312E+02  0.3161E+02  0.2521E+03  0.2520E+03
     -0.934  0.1043E+02  0.1381E+02  0.2527E+03  0.2527E+03
     -0.883  0.1933E+02  0.1832E+02  0.2536E+03  0.2536E+03
     -0.833  0.2666E+02  0.2701E+02  0.2550E+03  0.2550E+03
     -0.782  0.1788E+02  0.1546E+02  0.2559E+03  0.2557E+03
     -0.732  0.1521E+02  0.1830E+02  0.2567E+03  0.2567E+03
     -0.681  0.3200E+02  0.2848E+02  0.2583E+03  0.2581E+03
     -0.630  0.5359E+02  0.5623E+02  0.2610E+03  0.2610E+03
     -0.580  0.1895E+02  0.1590E+02  0.2620E+03  0.2618E+03
     -0.529  0.5030E+02  0.4908E+02  0.2645E+03  0.2642E+03
     -0.479  0.3351E+01  0.8498E+01  0.2647E+03  0.2647E+03
     -0.428  0.9783E+01  0.7065E+01  0.2652E+03  0.2650E+03
     -0.378  0.2314E+02  0.2214E+02  0.2663E+03  0.2661E+03
     -0.327  0.2023E+02  0.1654E+02  0.2674E+03  0.2670E+03
     -0.276  0.3518E+02  0.3546E+02  0.2691E+03  0.2688E+03
     -0.226  0.2252E+02  0.2663E+02  0.2703E+03  0.2701E+03
     -0.175  0.1785E+02  0.1842E+02  0.2712E+03  0.2711E+03
     -0.125  0.3598E+02  0.3775E+02  0.2730E+03  0.2730E+03
     -0.074  0.2864E+02  0.2294E+02  0.2744E+03  0.2741E+03
     -0.024  0.1685E+02  0.2142E+02  0.2753E+03  0.2752E+03
      0.027  0.1400E+02  0.1575E+02  0.2760E+03  0.2760E+03
      0.078  0.3871E+02  0.3248E+02  0.2780E+03  0.2776E+03
      0.128  0.6886E+02  0.6591E+02  0.2814E+03  0.2810E+03
      0.179  0.5249E+02  0.5155E+02  0.2841E+03  0.2836E+03
      0.229  0.9175E+02  0.9724E+02  0.2887E+03  0.2885E+03
      0.280  0.6242E+02  0.6375E+02  0.2919E+03  0.2917E+03
      0.331  0.6237E+02  0.5610E+02  0.2950E+03  0.2946E+03
      0.381  0.5432E+02  0.6157E+02  0.2978E+03  0.2977E+03
      0.432  0.5912E+02  0.5809E+02  0.3008E+03  0.3006E+03
      0.482  0.2470E+02  0.1937E+02  0.3020E+03  0.3016E+03
      0.533  0.9343E+02  0.9453E+02  0.3068E+03  0.3064E+03
      0.583  0.3430E+02  0.3624E+02  0.3085E+03  0.3082E+03
      0.634  0.5159E+02  0.4981E+02  0.3111E+03  0.3107E+03
      0.685  0.5108E+02  0.5256E+02  0.3137E+03  0.3134E+03
      0.735  0.7904E+02  0.7737E+02  0.3177E+03  0.3173E+03
      0.786  0.7958E+02  0.8239E+02  0.3217E+03  0.3215E+03
      0.836  0.1130E+03  0.1037E+03  0.3274E+03  0.3267E+03
      0.887  0.7012E+02  0.7689E+02  0.3310E+03  0.3306E+03
      0.937  0.8624E+02  0.7782E+02  0.3353E+03  0.3345E+03
      0.988  0.1012E+03  0.1039E+03  0.3404E+03  0.3398E+03
      1.039  0.8485E+02  0.9633E+02  0.3447E+03  0.3447E+03
      1.089  0.1016E+03  0.8731E+02  0.3499E+03  0.3491E+03
      1.140  0.1258E+03  0.1290E+03  0.3562E+03  0.3556E+03
      1.190  0.1247E+03  0.1217E+03  0.3625E+03  0.3618E+03
      1.241  0.1065E+03  0.1095E+03  0.3679E+03  0.3673E+03
      1.291  0.7144E+02  0.7937E+02  0.3715E+03  0.3713E+03
      1.342  0.5776E+02  0.5147E+02  0.3745E+03  0.3739E+03
      1.393  0.8326E+02  0.8521E+02  0.3787E+03  0.3782E+03
      1.443  0.1169E+03  0.1190E+03  0.3846E+03  0.3842E+03
      1.494  0.1066E+03  0.1028E+03  0.3900E+03  0.3894E+03
      1.544  0.6960E+02  0.7329E+02  0.3935E+03  0.3931E+03
      1.595  0.8084E+02  0.7818E+02  0.3976E+03  0.3971E+03
      1.645  0.1093E+03  0.1018E+03  0.4031E+03  0.4022E+03
      1.696  0.1236E+03  0.1198E+03  0.4094E+03  0.4083E+03
      1.747  0.1110E+03  0.1215E+03  0.4150E+03  0.4144E+03
      1.797  0.8495E+02  0.8981E+02  0.4193E+03  0.4190E+03
      1.848  0.9345E+02  0.8506E+02  0.4240E+03  0.4233E+03
      1.898  0.7489E+02  0.8097E+02  0.4278E+03  0.4274E+03
      1.949  0.9394E+02  0.8995E+02  0.4325E+03  0.4319E+03
      1.999  0.1393E+03  0.1390E+03  0.4396E+03  0.4390E+03
      2.050  0.1166E+03  0.1188E+03  0.4455E+03  0.4450E+03
      2.101  0.9109E+02  0.9125E+02  0.4501E+03  0.4496E+03
      2.151  0.9408E+02  0.9352E+02  0.4548E+03  0.4543E+03
      2.202  0.7596E+02  0.8479E+02  0.4587E+03  0.4586E+03
      2.252  0.8742E+02  0.7709E+02  0.4631E+03  0.4625E+03
      2.303  0.8181E+02  0.8317E+02  0.4672E+03  0.4667E+03
      2.353  0.8688E+02  0.9475E+02  0.4716E+03  0.4715E+03
      2.404  0.5566E+02  0.5444E+02  0.4744E+03  0.4743E+03
      2.455  0.1140E+03  0.1067E+03  0.4802E+03  0.4797E+03
      2.505  0.1114E+03  0.1082E+03  0.4858E+03  0.4851E+03
      2.556  0.6788E+02  0.7458E+02  0.4893E+03  0.4889E+03
      2.606  0.8829E+02  0.8728E+02  0.4937E+03  0.4933E+03
      2.657  0.6972E+02  0.7147E+02  0.4973E+03  0.4969E+03
      2.707  0.1131E+03  0.1084E+03  0.5030E+03  0.5024E+03
      2.758  0.9061E+02  0.8635E+02  0.5076E+03  0.5068E+03
      2.809  0.7329E+02  0.8026E+02  0.5113E+03  0.5108E+03
      2.859  0.7144E+02  0.7272E+02  0.5149E+03  0.5145E+03
      2.910  0.9960E+02  0.9459E+02  0.5199E+03  0.5193E+03
      2.960  0.5214E+02  0.5766E+02  0.5226E+03  0.5222E+03
      3.011  0.5032E+02  0.4286E+02  0.5251E+03  0.5244E+03
      3.061  0.4688E+02  0.4630E+02  0.5275E+03  0.5267E+03
      3.112  0.4794E+02  0.5896E+02  0.5299E+03  0.5297E+03
      3.163  0.7989E+02  0.7757E+02  0.5339E+03  0.5336E+03
      3.213  0.4084E+02  0.4329E+02  0.5360E+03  0.5358E+03
      3.264  0.5454E+02  0.5146E+02  0.5388E+03  0.5384E+03
      3.314  0.5412E+02  0.4001E+02  0.5415E+03  0.5404E+03
      3.365  0.5835E+02  0.6517E+02  0.5445E+03  0.5437E+03
      3.415  0.5192E+02  0.5272E+02  0.5471E+03  0.5464E+03
      3.466  0.5010E+02  0.5065E+02  0.5496E+03  0.5490E+03
      3.517  0.6561E+02  0.6123E+02  0.5529E+03  0.5521E+03
      3.567  0.7216E+02  0.6689E+02  0.5566E+03  0.5554E+03
      3.618  0.2526E+02  0.3966E+02  0.5579E+03  0.5574E+03
      3.668  0.3627E+02  0.4244E+02  0.5597E+03  0.5596E+03
      3.719  0.5538E+02  0.4307E+02  0.5625E+03  0.5618E+03
      3.769  0.1662E+02  0.3084E+02  0.5633E+03  0.5633E+03
      3.820  0.5391E+02  0.4045E+02  0.5661E+03  0.5654E+03
      3.871  0.8569E+01  0.1902E+02  0.5665E+03  0.5663E+03
      3.921  0.2934E+02  0.2284E+02  0.5680E+03  0.5675E+03
      3.972  0.6193E+02  0.5279E+02  0.5711E+03  0.5702E+03
      4.022  0.5607E+02  0.6252E+02  0.5739E+03  0.5733E+03
      4.073  0.4579E+02  0.4185E+02  0.5763E+03  0.5754E+03
      4.123  0.1832E+02  0.2542E+02  0.5772E+03  0.5767E+03
      4.174  0.1807E+02  0.2229E+02  0.5781E+03  0.5779E+03
      4.225  0.4543E+02  0.4686E+02  0.5804E+03  0.5802E+03
      4.275  0.4111E+02  0.3044E+02  0.5825E+03  0.5818E+03
      4.326  0.4118E+02  0.4003E+02  0.5846E+03  0.5838E+03
      4.376  0.6482E+02  0.6624E+02  0.5878E+03  0.5871E+03
      4.427  0.3679E+02  0.4034E+02  0.5897E+03  0.5892E+03
      4.477  0.4534E+02  0.4933E+02  0.5920E+03  0.5917E+03
      4.528  0.5564E+02  0.5927E+02  0.5948E+03  0.5947E+03
      4.579  0.2375E+02  0.1919E+02  0.5960E+03  0.5956E+03
      4.629  0.7131E+02  0.6229E+02  0.5996E+03  0.5988E+03
      4.680  0.1963E+02  0.3177E+02  0.6006E+03  0.6004E+03
      4.730  0.4698E+02  0.3456E+02  0.6030E+03  0.6021E+03
      4.781  0.5026E+02  0.5745E+02  0.6055E+03  0.6051E+03
      4.831  0.3704E+02  0.4281E+02  0.6074E+03  0.6072E+03
      4.882  0.5124E+02  0.4024E+02  0.6100E+03  0.6093E+03
      4.933  0.4827E+02  0.5965E+02  0.6124E+03  0.6123E+03
      4.983  0.6399E+02  0.6601E+02  0.6157E+03  0.6156E+03
      5.034  0.4448E+02  0.3846E+02  0.6179E+03  0.6176E+03
      5.084  0.5846E+02  0.4992E+02  0.6209E+03  0.6201E+03
      5.135  0.4171E+02  0.5311E+02  0.6230E+03  0.6228E+03
      5.185  0.8079E+02  0.7465E+02  0.6271E+03  0.6265E+03
      5.236  0.5906E+02  0.6386E+02  0.6301E+03  0.6298E+03
      5.287  0.5633E+02  0.5449E+02  0.6329E+03  0.6325E+03
      5.337  0.7117E+02  0.7183E+02  0.6365E+03  0.6362E+03
      5.388  0.6355E+02  0.6801E+02  0.6397E+03  0.6396E+03
      5.438  0.5406E+02  0.5376E+02  0.6424E+03  0.6423E+03
      5.489  0.6839E+02  0.6033E+02  0.6459E+03  0.6454E+03
      5.539  0.8005E+02  0.8007E+02  0.6500E+03  0.6494E+03
      5.590  0.1173E+03  0.1189E+03  0.6559E+03  0.6554E+03
      5.641  0.1054E+03  0.1008E+03  0.6612E+03  0.6605E+03
      5.691  0.1020E+03  0.1071E+03  0.6664E+03  0.6659E+03
      5.742  0.6317E+02  0.5511E+02  0.6696E+03  0.6687E+03
      5.792  0.9938E+02  0.9794E+02  0.6746E+03  0.6737E+03
      5.843  0.9539E+02  0.1021E+03  0.6794E+03  0.6788E+03
      5.893  0.5719E+02  0.5726E+02  0.6823E+03  0.6817E+03
      5.944  0.7077E+02  0.7664E+02  0.6859E+03  0.6856E+03
      5.995  0.1085E+03  0.1005E+03  0.6914E+03  0.6907E+03
      6.045  0.5066E+02  0.5872E+02  0.6939E+03  0.6937E+03
      6.096  0.2026E+02  0.2481E+02  0.6950E+03  0.6949E+03
      6.146  0.2038E+02  0.2136E+02  0.6960E+03  0.6960E+03
      6.197  0.0000E+00  0.0000E+00  0.6960E+03  0.6960E+03
      6.247  0.0000E+00  0.0000E+00  0.6960E+03  0.6960E+03
      6.298  0.0000E+00  0.0000E+00  0.6960E+03  0.6960E+03
      6.349  0.0000E+00  0.0000E+00  0.6960E+03  0.6960E+03
      6.399  0.0000E+00  0.0000E+00  0.6960E+03  0.6960E+03
      6.450  0.0000E+00  0.0000E+00  0.6960E+03  0.6960E+03
      6.500  0.0000E+00  0.0000E+00  0.6960E+03  0.6960E+03
      6.551  0.0000E+00  0.0000E+00  0.6960E+03  0.6960E+03
      6.601  0.0000E+00  0.0000E+00  0.6960E+03  0.6960E+03
      6.652  0.0000E+00  0.0000E+00  0.6960E+03  0.6960E+03
      6.703  0.0000E+00  0.0000E+00  0.6960E+03  0.6960E+03
      6.753  0.0000E+00  0.0000E+00  0.6960E+03  0.6960E+03
      6.804  0.0000E+00  0.0000E+00  0.6960E+03  0.6960E+03
