 264 264   0   0
  0.2139018E+02  0.1946760E-08  0.1946760E-08  0.1490025E-08  0.5000000E-15
  1.000000000000000E-004
  CAR 
 Si and Ge interface calculation         
      9.24835418     -9.31675202  301      6.64157644      1.00000000
     -9.317  0.0000E+00  0.0000E+00  0.0000E+00  0.0000E+00
     -9.255  0.0000E+00  0.0000E+00  0.0000E+00  0.0000E+00
     -9.193  0.0000E+00  0.0000E+00  0.0000E+00  0.0000E+00
     -9.131  0.0000E+00  0.0000E+00  0.0000E+00  0.0000E+00
     -9.069  0.0000E+00  0.0000E+00  0.0000E+00  0.0000E+00
     -9.007  0.0000E+00  0.0000E+00  0.0000E+00  0.0000E+00
     -8.945  0.0000E+00  0.0000E+00  0.0000E+00  0.0000E+00
     -8.884  0.0000E+00  0.0000E+00  0.0000E+00  0.0000E+00
     -8.822  0.0000E+00  0.0000E+00  0.0000E+00  0.0000E+00
     -8.760  0.0000E+00  0.0000E+00  0.0000E+00  0.0000E+00
     -8.698  0.0000E+00  0.0000E+00  0.0000E+00  0.0000E+00
     -8.636  0.0000E+00  0.0000E+00  0.0000E+00  0.0000E+00
     -8.574  0.0000E+00  0.0000E+00  0.0000E+00  0.0000E+00
     -8.512  0.9508E-07  0.3140E-06  0.5884E-08  0.1943E-07
     -8.450  0.3260E+02  0.3265E+02  0.2017E+01  0.2020E+01
     -8.388  0.3199E+02  0.3196E+02  0.4000E+01  0.4000E+01
     -8.327  0.0000E+00  0.0000E+00  0.4000E+01  0.4000E+01
     -8.265  0.0000E+00  0.0000E+00  0.4000E+01  0.4000E+01
     -8.203  0.2679E-06  0.2285E-05  0.4000E+01  0.4000E+01
     -8.141  0.3306E+02  0.3337E+02  0.6046E+01  0.6065E+01
     -8.079  0.3155E+02  0.3126E+02  0.8000E+01  0.8000E+01
     -8.017  0.0000E+00  0.0000E+00  0.8000E+01  0.8000E+01
     -7.955  0.1819E-10  0.8232E-09  0.8000E+01  0.8000E+01
     -7.893  0.2897E+02  0.3110E+02  0.9793E+01  0.9925E+01
     -7.832  0.3352E+01  0.1215E+01  0.1000E+02  0.1000E+02
     -7.770  0.0000E+00  0.0000E+00  0.1000E+02  0.1000E+02
     -7.708  0.0000E+00  0.0000E+00  0.1000E+02  0.1000E+02
     -7.646  0.3717E+01  0.6803E+01  0.1023E+02  0.1042E+02
     -7.584  0.6092E+02  0.5783E+02  0.1400E+02  0.1400E+02
     -7.522  0.8483E+00  0.7873E+00  0.1405E+02  0.1405E+02
     -7.460  0.5499E+02  0.5605E+02  0.1746E+02  0.1752E+02
     -7.398  0.1004E+02  0.9077E+01  0.1808E+02  0.1808E+02
     -7.336  0.5487E+02  0.5569E+02  0.2147E+02  0.2153E+02
     -7.275  0.5016E+02  0.6446E+02  0.2458E+02  0.2552E+02
     -7.213  0.2295E+02  0.7811E+01  0.2600E+02  0.2600E+02
     -7.151  0.6195E+01  0.5856E+01  0.2638E+02  0.2636E+02
     -7.089  0.6466E+02  0.6882E+02  0.3038E+02  0.3062E+02
     -7.027  0.2610E+02  0.2228E+02  0.3200E+02  0.3200E+02
     -6.965  0.0000E+00  0.0000E+00  0.3200E+02  0.3200E+02
     -6.903  0.0000E+00  0.0000E+00  0.3200E+02  0.3200E+02
     -6.841  0.3907E+01  0.7441E+01  0.3224E+02  0.3246E+02
     -6.780  0.5181E+02  0.5283E+02  0.3545E+02  0.3573E+02
     -6.718  0.8919E+01  0.4364E+01  0.3600E+02  0.3600E+02
     -6.656  0.9871E-05  0.3118E-04  0.3600E+02  0.3600E+02
     -6.594  0.3231E+02  0.3232E+02  0.3800E+02  0.3800E+02
     -6.532  0.0000E+00  0.0000E+00  0.3800E+02  0.3800E+02
     -6.470  0.2038E+01  0.9274E+00  0.3813E+02  0.3806E+02
     -6.408  0.3028E+02  0.3140E+02  0.4000E+02  0.4000E+02
     -6.346  0.3231E+02  0.3231E+02  0.4200E+02  0.4200E+02
     -6.284  0.0000E+00  0.0000E+00  0.4200E+02  0.4200E+02
     -6.223  0.0000E+00  0.0000E+00  0.4200E+02  0.4200E+02
     -6.161  0.1318E-11  0.1084E-11  0.4200E+02  0.4200E+02
     -6.099  0.2809E+02  0.2813E+02  0.4374E+02  0.4374E+02
     -6.037  0.2425E+02  0.2393E+02  0.4524E+02  0.4522E+02
     -5.975  0.1230E+02  0.1258E+02  0.4600E+02  0.4600E+02
     -5.913  0.1334E+02  0.1802E+02  0.4683E+02  0.4711E+02
     -5.851  0.5090E+02  0.4650E+02  0.4998E+02  0.4999E+02
     -5.789  0.9150E+01  0.9204E+01  0.5054E+02  0.5056E+02
     -5.727  0.5383E+02  0.4709E+02  0.5387E+02  0.5348E+02
     -5.666  0.3423E+02  0.4055E+02  0.5599E+02  0.5599E+02
     -5.604  0.2009E+02  0.2037E+02  0.5723E+02  0.5725E+02
     -5.542  0.1337E+02  0.1740E+02  0.5806E+02  0.5833E+02
     -5.480  0.4670E+02  0.4222E+02  0.6095E+02  0.6094E+02
     -5.418  0.3712E+02  0.3427E+02  0.6325E+02  0.6306E+02
     -5.356  0.4411E+02  0.4666E+02  0.6598E+02  0.6595E+02
     -5.294  0.1043E+02  0.1116E+02  0.6663E+02  0.6664E+02
     -5.232  0.2147E+02  0.2120E+02  0.6796E+02  0.6795E+02
     -5.171  0.1061E+02  0.1885E+02  0.6861E+02  0.6912E+02
     -5.109  0.2509E+02  0.2111E+02  0.7016E+02  0.7043E+02
     -5.047  0.3490E+02  0.3324E+02  0.7232E+02  0.7248E+02
     -4.985  0.4843E+02  0.4677E+02  0.7532E+02  0.7538E+02
     -4.923  0.1098E+02  0.1006E+02  0.7600E+02  0.7600E+02
     -4.861  0.1298E+02  0.1317E+02  0.7680E+02  0.7682E+02
     -4.799  0.4771E+02  0.4795E+02  0.7976E+02  0.7978E+02
     -4.737  0.3555E+02  0.3532E+02  0.8196E+02  0.8197E+02
     -4.675  0.4956E+02  0.5011E+02  0.8502E+02  0.8507E+02
     -4.614  0.3127E+02  0.3182E+02  0.8696E+02  0.8704E+02
     -4.552  0.5256E+02  0.5206E+02  0.9021E+02  0.9026E+02
     -4.490  0.3830E+02  0.3953E+02  0.9258E+02  0.9271E+02
     -4.428  0.3794E+02  0.3833E+02  0.9493E+02  0.9508E+02
     -4.366  0.5671E+02  0.5537E+02  0.9844E+02  0.9851E+02
     -4.304  0.6066E+02  0.6191E+02  0.1022E+03  0.1023E+03
     -4.242  0.4496E+02  0.4399E+02  0.1050E+03  0.1051E+03
     -4.180  0.6914E+02  0.6942E+02  0.1093E+03  0.1094E+03
     -4.119  0.6969E+02  0.7039E+02  0.1136E+03  0.1137E+03
     -4.057  0.5565E+02  0.5201E+02  0.1170E+03  0.1169E+03
     -3.995  0.5588E+02  0.5640E+02  0.1205E+03  0.1204E+03
     -3.933  0.5899E+02  0.6049E+02  0.1241E+03  0.1242E+03
     -3.871  0.4826E+02  0.4808E+02  0.1271E+03  0.1271E+03
     -3.809  0.5725E+02  0.5925E+02  0.1307E+03  0.1308E+03
     -3.747  0.5656E+02  0.5515E+02  0.1342E+03  0.1342E+03
     -3.685  0.7287E+02  0.7159E+02  0.1387E+03  0.1387E+03
     -3.623  0.6326E+02  0.6420E+02  0.1426E+03  0.1426E+03
     -3.562  0.5474E+02  0.5630E+02  0.1460E+03  0.1461E+03
     -3.500  0.6221E+02  0.6166E+02  0.1498E+03  0.1499E+03
     -3.438  0.5740E+02  0.5697E+02  0.1534E+03  0.1535E+03
     -3.376  0.5159E+02  0.5040E+02  0.1566E+03  0.1566E+03
     -3.314  0.4098E+02  0.4167E+02  0.1591E+03  0.1592E+03
     -3.252  0.6528E+02  0.6582E+02  0.1631E+03  0.1632E+03
     -3.190  0.4772E+02  0.4638E+02  0.1661E+03  0.1661E+03
     -3.128  0.4044E+02  0.4270E+02  0.1686E+03  0.1687E+03
     -3.066  0.4888E+02  0.4717E+02  0.1716E+03  0.1717E+03
     -3.005  0.3307E+02  0.3226E+02  0.1737E+03  0.1737E+03
     -2.943  0.2182E+02  0.1932E+02  0.1750E+03  0.1749E+03
     -2.881  0.5404E+02  0.5864E+02  0.1784E+03  0.1785E+03
     -2.819  0.6632E+02  0.6415E+02  0.1825E+03  0.1825E+03
     -2.757  0.6069E+02  0.6219E+02  0.1862E+03  0.1863E+03
     -2.695  0.5306E+02  0.5344E+02  0.1895E+03  0.1896E+03
     -2.633  0.6349E+02  0.6558E+02  0.1934E+03  0.1937E+03
     -2.571  0.6716E+02  0.6538E+02  0.1976E+03  0.1977E+03
     -2.510  0.6953E+02  0.6808E+02  0.2019E+03  0.2019E+03
     -2.448  0.6538E+02  0.6759E+02  0.2060E+03  0.2061E+03
     -2.386  0.5985E+02  0.5574E+02  0.2097E+03  0.2096E+03
     -2.324  0.6724E+02  0.7157E+02  0.2138E+03  0.2140E+03
     -2.262  0.6852E+02  0.6680E+02  0.2181E+03  0.2181E+03
     -2.200  0.7932E+02  0.7972E+02  0.2230E+03  0.2231E+03
     -2.138  0.7601E+02  0.7578E+02  0.2277E+03  0.2278E+03
     -2.076  0.6566E+02  0.6659E+02  0.2317E+03  0.2319E+03
     -2.014  0.7355E+02  0.7314E+02  0.2363E+03  0.2364E+03
     -1.953  0.7114E+02  0.6948E+02  0.2407E+03  0.2407E+03
     -1.891  0.7075E+02  0.7198E+02  0.2451E+03  0.2452E+03
     -1.829  0.8400E+02  0.8169E+02  0.2503E+03  0.2502E+03
     -1.767  0.6456E+02  0.6779E+02  0.2543E+03  0.2544E+03
     -1.705  0.7005E+02  0.6870E+02  0.2586E+03  0.2587E+03
     -1.643  0.6624E+02  0.6510E+02  0.2627E+03  0.2627E+03
     -1.581  0.6427E+02  0.6716E+02  0.2667E+03  0.2669E+03
     -1.519  0.7125E+02  0.7114E+02  0.2711E+03  0.2713E+03
     -1.458  0.7329E+02  0.7454E+02  0.2756E+03  0.2759E+03
     -1.396  0.7156E+02  0.6869E+02  0.2801E+03  0.2801E+03
     -1.334  0.7489E+02  0.7876E+02  0.2847E+03  0.2850E+03
     -1.272  0.8547E+02  0.8281E+02  0.2900E+03  0.2901E+03
     -1.210  0.6615E+02  0.6666E+02  0.2941E+03  0.2943E+03
     -1.148  0.7414E+02  0.7174E+02  0.2987E+03  0.2987E+03
     -1.086  0.7294E+02  0.7381E+02  0.3032E+03  0.3033E+03
     -1.024  0.6689E+02  0.6768E+02  0.3073E+03  0.3075E+03
     -0.962  0.7727E+02  0.7723E+02  0.3121E+03  0.3122E+03
     -0.901  0.6988E+02  0.7044E+02  0.3164E+03  0.3166E+03
     -0.839  0.6310E+02  0.6096E+02  0.3203E+03  0.3204E+03
     -0.777  0.7161E+02  0.7203E+02  0.3248E+03  0.3248E+03
     -0.715  0.5605E+02  0.5609E+02  0.3282E+03  0.3283E+03
     -0.653  0.6530E+02  0.6483E+02  0.3323E+03  0.3323E+03
     -0.591  0.4975E+02  0.4893E+02  0.3354E+03  0.3353E+03
     -0.529  0.6601E+02  0.6559E+02  0.3394E+03  0.3394E+03
     -0.467  0.6117E+02  0.6231E+02  0.3432E+03  0.3433E+03
     -0.406  0.7314E+02  0.7262E+02  0.3478E+03  0.3478E+03
     -0.344  0.8071E+02  0.8039E+02  0.3528E+03  0.3527E+03
     -0.282  0.5990E+02  0.6122E+02  0.3565E+03  0.3565E+03
     -0.220  0.6226E+02  0.6220E+02  0.3603E+03  0.3604E+03
     -0.158  0.7783E+02  0.7818E+02  0.3651E+03  0.3652E+03
     -0.096  0.6820E+02  0.6964E+02  0.3694E+03  0.3695E+03
     -0.034  0.8258E+02  0.8274E+02  0.3745E+03  0.3746E+03
      0.028  0.1043E+03  0.1046E+03  0.3809E+03  0.3811E+03
      0.090  0.8996E+02  0.9049E+02  0.3865E+03  0.3867E+03
      0.151  0.9309E+02  0.9311E+02  0.3922E+03  0.3925E+03
      0.213  0.7593E+02  0.7575E+02  0.3969E+03  0.3972E+03
      0.275  0.9368E+02  0.9148E+02  0.4027E+03  0.4028E+03
      0.337  0.8709E+02  0.8656E+02  0.4081E+03  0.4082E+03
      0.399  0.7497E+02  0.7441E+02  0.4128E+03  0.4128E+03
      0.461  0.8808E+02  0.8855E+02  0.4182E+03  0.4183E+03
      0.523  0.7804E+02  0.8335E+02  0.4231E+03  0.4234E+03
      0.585  0.8319E+02  0.7840E+02  0.4282E+03  0.4283E+03
      0.647  0.9598E+02  0.9686E+02  0.4341E+03  0.4343E+03
      0.708  0.8275E+02  0.8177E+02  0.4393E+03  0.4393E+03
      0.770  0.9428E+02  0.9178E+02  0.4451E+03  0.4450E+03
      0.832  0.8048E+02  0.8609E+02  0.4501E+03  0.4503E+03
      0.894  0.7682E+02  0.7193E+02  0.4548E+03  0.4548E+03
      0.956  0.8285E+02  0.8542E+02  0.4600E+03  0.4601E+03
      1.018  0.9249E+02  0.9254E+02  0.4657E+03  0.4658E+03
      1.080  0.8452E+02  0.8264E+02  0.4709E+03  0.4709E+03
      1.142  0.8051E+02  0.8399E+02  0.4759E+03  0.4761E+03
      1.203  0.9251E+02  0.9357E+02  0.4816E+03  0.4819E+03
      1.265  0.6770E+02  0.6494E+02  0.4858E+03  0.4859E+03
      1.327  0.9251E+02  0.9315E+02  0.4916E+03  0.4917E+03
      1.389  0.6913E+02  0.6921E+02  0.4958E+03  0.4960E+03
      1.451  0.8273E+02  0.8286E+02  0.5010E+03  0.5011E+03
      1.513  0.8485E+02  0.8243E+02  0.5062E+03  0.5062E+03
      1.575  0.8323E+02  0.9153E+02  0.5114E+03  0.5119E+03
      1.637  0.9229E+02  0.8373E+02  0.5171E+03  0.5171E+03
      1.699  0.8833E+02  0.8993E+02  0.5225E+03  0.5226E+03
      1.760  0.9059E+02  0.9004E+02  0.5281E+03  0.5282E+03
      1.822  0.8572E+02  0.9059E+02  0.5335E+03  0.5338E+03
      1.884  0.9085E+02  0.9081E+02  0.5391E+03  0.5394E+03
      1.946  0.1006E+03  0.9250E+02  0.5453E+03  0.5452E+03
      2.008  0.1057E+03  0.1084E+03  0.5518E+03  0.5519E+03
      2.070  0.8684E+02  0.8600E+02  0.5572E+03  0.5572E+03
      2.132  0.8707E+02  0.8763E+02  0.5626E+03  0.5626E+03
      2.194  0.8468E+02  0.9030E+02  0.5679E+03  0.5682E+03
      2.255  0.1119E+03  0.1056E+03  0.5748E+03  0.5747E+03
      2.317  0.7898E+02  0.8120E+02  0.5797E+03  0.5798E+03
      2.379  0.1040E+03  0.1039E+03  0.5861E+03  0.5862E+03
      2.441  0.1086E+03  0.1077E+03  0.5928E+03  0.5929E+03
      2.503  0.1106E+03  0.1052E+03  0.5997E+03  0.5994E+03
      2.565  0.1047E+03  0.1115E+03  0.6061E+03  0.6063E+03
      2.627  0.9533E+02  0.9132E+02  0.6120E+03  0.6119E+03
      2.689  0.1129E+03  0.1113E+03  0.6190E+03  0.6188E+03
      2.751  0.1012E+03  0.1056E+03  0.6253E+03  0.6254E+03
      2.812  0.1132E+03  0.1087E+03  0.6323E+03  0.6321E+03
      2.874  0.1141E+03  0.1176E+03  0.6394E+03  0.6394E+03
      2.936  0.1286E+03  0.1254E+03  0.6473E+03  0.6471E+03
      2.998  0.1226E+03  0.1257E+03  0.6549E+03  0.6549E+03
      3.060  0.1469E+03  0.1471E+03  0.6640E+03  0.6640E+03
      3.122  0.1207E+03  0.1214E+03  0.6715E+03  0.6715E+03
      3.184  0.1396E+03  0.1387E+03  0.6801E+03  0.6801E+03
      3.246  0.1256E+03  0.1263E+03  0.6879E+03  0.6879E+03
      3.308  0.1209E+03  0.1185E+03  0.6954E+03  0.6953E+03
      3.369  0.1223E+03  0.1194E+03  0.7029E+03  0.7027E+03
      3.431  0.1233E+03  0.1298E+03  0.7106E+03  0.7107E+03
      3.493  0.1149E+03  0.1045E+03  0.7177E+03  0.7172E+03
      3.555  0.1246E+03  0.1274E+03  0.7254E+03  0.7250E+03
      3.617  0.1124E+03  0.1066E+03  0.7324E+03  0.7316E+03
      3.679  0.1212E+03  0.1299E+03  0.7399E+03  0.7397E+03
      3.741  0.1129E+03  0.1080E+03  0.7468E+03  0.7464E+03
      3.803  0.1146E+03  0.1210E+03  0.7539E+03  0.7539E+03
      3.864  0.1264E+03  0.1188E+03  0.7618E+03  0.7612E+03
      3.926  0.1147E+03  0.1151E+03  0.7689E+03  0.7683E+03
      3.988  0.1145E+03  0.1160E+03  0.7759E+03  0.7755E+03
      4.050  0.1144E+03  0.1233E+03  0.7830E+03  0.7831E+03
      4.112  0.1223E+03  0.1202E+03  0.7906E+03  0.7906E+03
      4.174  0.1005E+03  0.1014E+03  0.7968E+03  0.7969E+03
      4.236  0.1222E+03  0.1223E+03  0.8044E+03  0.8044E+03
      4.298  0.1106E+03  0.1092E+03  0.8112E+03  0.8112E+03
      4.360  0.1241E+03  0.1202E+03  0.8189E+03  0.8186E+03
      4.421  0.1321E+03  0.1356E+03  0.8271E+03  0.8270E+03
      4.483  0.1111E+03  0.1082E+03  0.8340E+03  0.8337E+03
      4.545  0.1087E+03  0.1126E+03  0.8407E+03  0.8407E+03
      4.607  0.1221E+03  0.1224E+03  0.8482E+03  0.8483E+03
      4.669  0.1107E+03  0.1094E+03  0.8551E+03  0.8550E+03
      4.731  0.1117E+03  0.1100E+03  0.8620E+03  0.8618E+03
      4.793  0.1108E+03  0.1041E+03  0.8689E+03  0.8683E+03
      4.855  0.1110E+03  0.1218E+03  0.8757E+03  0.8758E+03
      4.916  0.1115E+03  0.1083E+03  0.8826E+03  0.8825E+03
      4.978  0.1006E+03  0.9812E+02  0.8889E+03  0.8886E+03
      5.040  0.8583E+02  0.8756E+02  0.8942E+03  0.8940E+03
      5.102  0.1002E+03  0.1037E+03  0.9004E+03  0.9004E+03
      5.164  0.1010E+03  0.9520E+02  0.9066E+03  0.9063E+03
      5.226  0.9597E+02  0.9787E+02  0.9126E+03  0.9124E+03
      5.288  0.1083E+03  0.1053E+03  0.9193E+03  0.9189E+03
      5.350  0.1056E+03  0.1083E+03  0.9258E+03  0.9256E+03
      5.412  0.1140E+03  0.1113E+03  0.9329E+03  0.9325E+03
      5.473  0.8425E+02  0.9180E+02  0.9381E+03  0.9382E+03
      5.535  0.9536E+02  0.8803E+02  0.9440E+03  0.9436E+03
      5.597  0.8131E+02  0.8516E+02  0.9490E+03  0.9489E+03
      5.659  0.1027E+03  0.9097E+02  0.9554E+03  0.9545E+03
      5.721  0.1026E+03  0.1052E+03  0.9617E+03  0.9610E+03
      5.783  0.9229E+02  0.8957E+02  0.9674E+03  0.9666E+03
      5.845  0.9959E+02  0.9753E+02  0.9736E+03  0.9726E+03
      5.907  0.1037E+03  0.1017E+03  0.9800E+03  0.9789E+03
      5.969  0.9594E+02  0.9679E+02  0.9860E+03  0.9849E+03
      6.030  0.8626E+02  0.8759E+02  0.9913E+03  0.9903E+03
      6.092  0.9573E+02  0.8032E+02  0.9972E+03  0.9953E+03
      6.154  0.1117E+03  0.9592E+02  0.1004E+04  0.1001E+04
      6.216  0.1115E+03  0.1170E+03  0.1011E+04  0.1008E+04
      6.278  0.1027E+03  0.8720E+02  0.1017E+04  0.1014E+04
      6.340  0.1117E+03  0.1056E+03  0.1024E+04  0.1020E+04
      6.402  0.1067E+03  0.1020E+03  0.1031E+04  0.1027E+04
      6.464  0.1155E+03  0.1198E+03  0.1038E+04  0.1034E+04
      6.525  0.1087E+03  0.1170E+03  0.1045E+04  0.1041E+04
      6.587  0.1084E+03  0.1150E+03  0.1052E+04  0.1049E+04
      6.649  0.1147E+03  0.1196E+03  0.1059E+04  0.1056E+04
      6.711  0.1183E+03  0.1190E+03  0.1066E+04  0.1063E+04
      6.773  0.1121E+03  0.1215E+03  0.1073E+04  0.1071E+04
      6.835  0.1143E+03  0.1123E+03  0.1080E+04  0.1078E+04
      6.897  0.1199E+03  0.1293E+03  0.1087E+04  0.1086E+04
      6.959  0.1183E+03  0.1208E+03  0.1095E+04  0.1093E+04
      7.021  0.1327E+03  0.1262E+03  0.1103E+04  0.1101E+04
      7.082  0.1054E+03  0.1254E+03  0.1109E+04  0.1109E+04
      7.144  0.1148E+03  0.1043E+03  0.1117E+04  0.1115E+04
      7.206  0.1149E+03  0.1229E+03  0.1124E+04  0.1123E+04
      7.268  0.1245E+03  0.1180E+03  0.1131E+04  0.1130E+04
      7.330  0.1198E+03  0.1267E+03  0.1139E+04  0.1138E+04
      7.392  0.1104E+03  0.1193E+03  0.1146E+04  0.1145E+04
      7.454  0.1158E+03  0.1133E+03  0.1153E+04  0.1152E+04
      7.516  0.1208E+03  0.1240E+03  0.1160E+04  0.1160E+04
      7.577  0.1176E+03  0.1147E+03  0.1168E+04  0.1167E+04
      7.639  0.1040E+03  0.1106E+03  0.1174E+04  0.1174E+04
      7.701  0.1255E+03  0.1215E+03  0.1182E+04  0.1182E+04
      7.763  0.1205E+03  0.1278E+03  0.1189E+04  0.1189E+04
      7.825  0.1341E+03  0.1285E+03  0.1197E+04  0.1197E+04
      7.887  0.1166E+03  0.1235E+03  0.1205E+04  0.1205E+04
      7.949  0.1327E+03  0.1171E+03  0.1213E+04  0.1212E+04
      8.011  0.1181E+03  0.1305E+03  0.1220E+04  0.1220E+04
      8.073  0.1481E+03  0.1386E+03  0.1229E+04  0.1229E+04
      8.134  0.1365E+03  0.1341E+03  0.1238E+04  0.1237E+04
      8.196  0.1256E+03  0.1317E+03  0.1246E+04  0.1245E+04
      8.258  0.1270E+03  0.1304E+03  0.1253E+04  0.1253E+04
      8.320  0.1476E+03  0.1440E+03  0.1263E+04  0.1262E+04
      8.382  0.1256E+03  0.1295E+03  0.1270E+04  0.1270E+04
      8.444  0.2627E+02  0.2551E+02  0.1272E+04  0.1272E+04
      8.506  0.0000E+00  0.0000E+00  0.1272E+04  0.1272E+04
      8.568  0.0000E+00  0.0000E+00  0.1272E+04  0.1272E+04
      8.630  0.0000E+00  0.0000E+00  0.1272E+04  0.1272E+04
      8.691  0.0000E+00  0.0000E+00  0.1272E+04  0.1272E+04
      8.753  0.0000E+00  0.0000E+00  0.1272E+04  0.1272E+04
      8.815  0.0000E+00  0.0000E+00  0.1272E+04  0.1272E+04
      8.877  0.0000E+00  0.0000E+00  0.1272E+04  0.1272E+04
      8.939  0.0000E+00  0.0000E+00  0.1272E+04  0.1272E+04
      9.001  0.0000E+00  0.0000E+00  0.1272E+04  0.1272E+04
      9.063  0.0000E+00  0.0000E+00  0.1272E+04  0.1272E+04
      9.125  0.0000E+00  0.0000E+00  0.1272E+04  0.1272E+04
      9.186  0.0000E+00  0.0000E+00  0.1272E+04  0.1272E+04
      9.248  0.0000E+00  0.0000E+00  0.1272E+04  0.1272E+04
