Si and Ge interface calculation         
           1
    15.895228    0.000000    0.000000
    -7.947615   13.765673    0.000000
     0.000000    0.000000   15.779420
   Sn   Ge
    72    96
Direct configuration=     1
   0.00000000  0.01240917  0.00000002
   0.00000000  0.34574255  0.23743221
   0.00000000  0.67907596  0.47486442
   0.33333337  0.67907590  0.00000000
   0.33333340  0.01240933  0.23743220
   0.33333340  0.34574270  0.47486436
   0.66666675  0.34574255  0.00000002
   0.66666675  0.67907596  0.23743220
   0.66666675  0.01240933  0.47486436
   0.00000000  0.34574255  0.05935807
   0.00000000  0.67907590  0.29679027
   0.00000000  0.01240921  0.53422248
   0.33333340  0.01240921  0.05935805
   0.33333340  0.34574258  0.29679024
   0.33333340  0.67907608  0.53422248
   0.66666675  0.67907596  0.05935809
   0.66666675  0.01240933  0.29679027
   0.66666675  0.34574258  0.53422242
   0.16666669  0.34574255  0.00000002
   0.16666670  0.67907596  0.23743221
   0.16666669  0.01240933  0.47486442
   0.50000000  0.01240918  0.00000003
   0.50000000  0.34574258  0.23743221
   0.50000000  0.67907602  0.47486442
   0.83333343  0.67907590  0.00000000
   0.83333343  0.01240933  0.23743218
   0.83333343  0.34574270  0.47486442
   0.16666670  0.67907596  0.05935803
   0.16666670  0.01240933  0.29679018
   0.16666672  0.34574282  0.53422242
   0.50000006  0.34574258  0.05935803
   0.50000006  0.67907596  0.29679024
   0.50000006  0.01240933  0.53422242
   0.83333343  0.01240921  0.05935798
   0.83333343  0.34574258  0.29679018
   0.83333343  0.67907596  0.53422242
   0.00000000  0.51240921  0.00000002
   0.00000000  0.84574258  0.23743218
   0.00000000  0.17907596  0.47486442
   0.33333337  0.17907585  0.00000002
   0.33333337  0.51240927  0.23743221
   0.33333337  0.84574264  0.47486442
   0.66666675  0.84574258  0.00000000
   0.66666675  0.17907596  0.23743218
   0.66666681  0.51240945  0.47486442
   0.00000000  0.84574258  0.05935803
   0.00000000  0.17907596  0.29679021
   0.00000000  0.51240945  0.53422242
   0.33333337  0.51240921  0.05935803
   0.33333337  0.84574258  0.29679021
   0.33333340  0.17907608  0.53422248
   0.66666675  0.17907581  0.05935802
   0.66666675  0.51240921  0.29679021
   0.66666675  0.84574264  0.53422248
   0.16666670  0.84574258  0.00000004
   0.16666670  0.17907584  0.23743218
   0.16666670  0.51240933  0.47486436
   0.50000000  0.51240921  0.00000002
   0.50000000  0.84574264  0.23743221
   0.50000006  0.17907596  0.47486436
   0.83333337  0.17907587  0.00000004
   0.83333337  0.51240927  0.23743221
   0.83333337  0.84574270  0.47486436
   0.16666669  0.17907578  0.05935807
   0.16666669  0.51240915  0.29679030
   0.16666669  0.84574252  0.53422248
   0.50000000  0.84574252  0.05935808
   0.50000000  0.17907596  0.29679030
   0.50000000  0.51240921  0.53422248
   0.83333343  0.51240921  0.05935805
   0.83333343  0.84574258  0.29679024
   0.83333343  0.17907596  0.53422242
   0.98576731  0.49288356  0.53422248
   0.65243387  0.32621685  0.74123478
   0.31910050  0.15955012  0.94824684
   0.98576731  0.99288368  0.53422248
   0.65243387  0.82621694  0.74123478
   0.31910050  0.65955019  0.94824696
   0.48576724  0.49288359  0.53422248
   0.15243384  0.32621685  0.74123478
   0.81910044  0.15955013  0.94824696
   0.48576724  0.99288368  0.53422248
   0.15243384  0.82621694  0.74123478
   0.81910044  0.65955019  0.94824696
   0.15243395  0.82621688  0.58597553
   0.81910056  0.65955013  0.79298770
   0.48576719  0.49288344  0.00000000
   0.15243395  0.32621694  0.58597553
   0.81910056  0.15955022  0.79298770
   0.48576719  0.99288350  0.00000000
   0.65243387  0.82621682  0.58597553
   0.31910053  0.65955013  0.79298770
   0.98576719  0.49288344  0.00000000
   0.65243387  0.32621694  0.58597553
   0.31910053  0.15955023  0.79298770
   0.98576719  0.99288350  0.00000000
   0.23576726  0.74288362  0.53422248
   0.90243387  0.57621694  0.74123478
   0.56910038  0.40955013  0.94824696
   0.23576729  0.24288362  0.53422248
   0.90243387  0.07621690  0.74123478
   0.56910044  0.90955019  0.94824696
   0.73576724  0.74288356  0.53422248
   0.40243384  0.57621688  0.74123478
   0.06910040  0.40955010  0.94824696
   0.73576724  0.24288361  0.53422248
   0.40243384  0.07621689  0.74123478
   0.06910042  0.90955019  0.94824696
   0.40243393  0.57621694  0.58597553
   0.06910051  0.40955016  0.79298770
   0.73576719  0.24288349  0.00000000
   0.40243393  0.07621697  0.58597553
   0.06910051  0.90955025  0.79298770
   0.73576719  0.74288356  0.00000000
   0.90243399  0.57621688  0.58597553
   0.56910062  0.40955019  0.79298770
   0.23576724  0.24288346  0.00000000
   0.90243399  0.07621697  0.58597553
   0.56910062  0.90955025  0.79298770
   0.23576724  0.74288356  0.00000000
   0.23576728  0.49288359  0.53422248
   0.90243387  0.32621685  0.74123478
   0.56910044  0.15955012  0.94824696
   0.23576729  0.99288368  0.53422248
   0.90243387  0.82621694  0.74123478
   0.56910044  0.65955019  0.94824696
   0.73576724  0.49288359  0.53422248
   0.40243384  0.32621688  0.74123478
   0.06910040  0.15955012  0.94824696
   0.73576724  0.99288368  0.53422248
   0.40243384  0.82621694  0.74123478
   0.06910042  0.65955019  0.94824696
   0.40243393  0.82621694  0.58597553
   0.06910050  0.65955013  0.79298770
   0.73576719  0.49288347  0.00000000
   0.40243393  0.32621700  0.58597553
   0.06910053  0.15955025  0.79298770
   0.73576719  0.99288356  0.00000000
   0.90243399  0.82621688  0.58597553
   0.56910056  0.65955013  0.79298770
   0.23576724  0.49288347  0.99999988
   0.90243399  0.32621697  0.58597553
   0.56910062  0.15955025  0.79298770
   0.23576724  0.99288356  0.00000000
   0.98576731  0.74288362  0.53422248
   0.65243393  0.57621688  0.74123478
   0.31910050  0.40955016  0.94824684
   0.98576731  0.24288362  0.53422248
   0.65243387  0.07621688  0.74123478
   0.31910050  0.90955019  0.94824696
   0.48576724  0.74288362  0.53422248
   0.15243384  0.57621694  0.74123478
   0.81910044  0.40955010  0.94824696
   0.48576724  0.24288362  0.53422248
   0.15243384  0.07621690  0.74123478
   0.81910044  0.90955019  0.94824696
   0.15243398  0.57621694  0.58597553
   0.81910062  0.40955022  0.79298770
   0.48576724  0.24288355  0.00000000
   0.15243398  0.07621698  0.58597553
   0.81910062  0.90955031  0.79298770
   0.48576724  0.74288356  0.00000000
   0.65243399  0.57621694  0.58597553
   0.31910062  0.40955022  0.79298770
   0.98576724  0.24288352  0.00000000
   0.65243399  0.07621699  0.58597553
   0.31910062  0.90955031  0.79298770
   0.98576724  0.74288356  0.00000000
