 228 228   0   0
  0.1751449E+02  0.1697340E-08  0.1697340E-08  0.1386100E-08  0.5000000E-15
  1.000000000000000E-004
  CAR 
 Si and Ge interface calculation         
      9.73273614    -10.28170082  301      6.88621763      1.00000000
    -10.282  0.0000E+00  0.0000E+00  0.0000E+00  0.0000E+00
    -10.215  0.0000E+00  0.0000E+00  0.0000E+00  0.0000E+00
    -10.148  0.0000E+00  0.0000E+00  0.0000E+00  0.0000E+00
    -10.082  0.0000E+00  0.0000E+00  0.0000E+00  0.0000E+00
    -10.015  0.0000E+00  0.0000E+00  0.0000E+00  0.0000E+00
     -9.948  0.0000E+00  0.0000E+00  0.0000E+00  0.0000E+00
     -9.881  0.0000E+00  0.0000E+00  0.0000E+00  0.0000E+00
     -9.815  0.0000E+00  0.0000E+00  0.0000E+00  0.0000E+00
     -9.748  0.0000E+00  0.0000E+00  0.0000E+00  0.0000E+00
     -9.681  0.0000E+00  0.0000E+00  0.0000E+00  0.0000E+00
     -9.615  0.0000E+00  0.0000E+00  0.0000E+00  0.0000E+00
     -9.548  0.0000E+00  0.0000E+00  0.0000E+00  0.0000E+00
     -9.481  0.0000E+00  0.0000E+00  0.0000E+00  0.0000E+00
     -9.414  0.5266E-08  0.1745E-09  0.3513E-09  0.1164E-10
     -9.348  0.5350E+02  0.4846E+02  0.3570E+01  0.3233E+01
     -9.281  0.5207E+02  0.5128E+02  0.7068E+01  0.6659E+01
     -9.214  0.1375E+02  0.1993E+02  0.8000E+01  0.8000E+01
     -9.148  0.0000E+00  0.0000E+00  0.8000E+01  0.8000E+01
     -9.081  0.0000E+00  0.0000E+00  0.8000E+01  0.8000E+01
     -9.014  0.0000E+00  0.0000E+00  0.8000E+01  0.8000E+01
     -8.947  0.0000E+00  0.0000E+00  0.8000E+01  0.8000E+01
     -8.881  0.0000E+00  0.0000E+00  0.8000E+01  0.8000E+01
     -8.814  0.0000E+00  0.0000E+00  0.8000E+01  0.8000E+01
     -8.747  0.0000E+00  0.0000E+00  0.8000E+01  0.8000E+01
     -8.681  0.0000E+00  0.0000E+00  0.8000E+01  0.8000E+01
     -8.614  0.1427E-06  0.6151E-08  0.8000E+01  0.8000E+01
     -8.547  0.1498E+02  0.1493E+02  0.9000E+01  0.8996E+01
     -8.480  0.3041E+02  0.3010E+02  0.1103E+02  0.1101E+02
     -8.414  0.1552E+02  0.1516E+02  0.1206E+02  0.1202E+02
     -8.347  0.6529E+01  0.7198E+01  0.1250E+02  0.1250E+02
     -8.280  0.3770E+02  0.3750E+02  0.1501E+02  0.1500E+02
     -8.214  0.1477E+02  0.1494E+02  0.1600E+02  0.1600E+02
     -8.147  0.1246E+02  0.9341E+01  0.1683E+02  0.1662E+02
     -8.080  0.1908E+02  0.2108E+02  0.1810E+02  0.1803E+02
     -8.013  0.3875E+02  0.3753E+02  0.2069E+02  0.2053E+02
     -7.947  0.1961E+02  0.2144E+02  0.2200E+02  0.2196E+02
     -7.880  0.2781E+02  0.2539E+02  0.2386E+02  0.2366E+02
     -7.813  0.1670E+02  0.1830E+02  0.2498E+02  0.2488E+02
     -7.747  0.3639E+02  0.3635E+02  0.2741E+02  0.2731E+02
     -7.680  0.3339E+02  0.3248E+02  0.2964E+02  0.2948E+02
     -7.613  0.3429E+02  0.3499E+02  0.3193E+02  0.3182E+02
     -7.546  0.3241E+02  0.2730E+02  0.3409E+02  0.3364E+02
     -7.480  0.6610E+02  0.7272E+02  0.3852E+02  0.3849E+02
     -7.413  0.3476E+02  0.3365E+02  0.4084E+02  0.4075E+02
     -7.346  0.4966E+02  0.4794E+02  0.4416E+02  0.4395E+02
     -7.280  0.1234E+02  0.1564E+02  0.4500E+02  0.4499E+02
     -7.213  0.2206E+02  0.1900E+02  0.4647E+02  0.4626E+02
     -7.146  0.2649E+02  0.2422E+02  0.4824E+02  0.4788E+02
     -7.079  0.2636E+02  0.3171E+02  0.5000E+02  0.5000E+02
     -7.013  0.7495E+01  0.7494E+01  0.5050E+02  0.5050E+02
     -6.946  0.1488E+02  0.1465E+02  0.5149E+02  0.5148E+02
     -6.879  0.7495E+01  0.7829E+01  0.5200E+02  0.5200E+02
     -6.813  0.1117E+02  0.8511E+01  0.5275E+02  0.5257E+02
     -6.746  0.2823E+02  0.2663E+02  0.5463E+02  0.5434E+02
     -6.679  0.2055E+02  0.2481E+02  0.5600E+02  0.5600E+02
     -6.612  0.6962E-09  0.1144E-10  0.5600E+02  0.5600E+02
     -6.546  0.7090E+01  0.5643E+01  0.5647E+02  0.5638E+02
     -6.479  0.1539E+02  0.1682E+02  0.5750E+02  0.5750E+02
     -6.412  0.9892E+01  0.5162E+01  0.5816E+02  0.5784E+02
     -6.346  0.1308E+02  0.1280E+02  0.5903E+02  0.5870E+02
     -6.279  0.3698E+02  0.4177E+02  0.6150E+02  0.6149E+02
     -6.212  0.1683E+02  0.1069E+02  0.6262E+02  0.6221E+02
     -6.145  0.2110E+02  0.2685E+02  0.6403E+02  0.6400E+02
     -6.079  0.4068E+02  0.3996E+02  0.6674E+02  0.6667E+02
     -6.012  0.1110E+02  0.1063E+02  0.6749E+02  0.6739E+02
     -5.945  0.4784E+02  0.4067E+02  0.7068E+02  0.7010E+02
     -5.879  0.2264E+02  0.3075E+02  0.7220E+02  0.7215E+02
     -5.812  0.1761E+02  0.1719E+02  0.7337E+02  0.7330E+02
     -5.745  0.3974E+02  0.3836E+02  0.7603E+02  0.7586E+02
     -5.678  0.2637E+02  0.2848E+02  0.7779E+02  0.7776E+02
     -5.612  0.4218E+02  0.3657E+02  0.8060E+02  0.8020E+02
     -5.545  0.3798E+02  0.4283E+02  0.8315E+02  0.8306E+02
     -5.478  0.4218E+02  0.4137E+02  0.8596E+02  0.8582E+02
     -5.412  0.3913E+02  0.4032E+02  0.8858E+02  0.8851E+02
     -5.345  0.5731E+02  0.5345E+02  0.9241E+02  0.9208E+02
     -5.278  0.2369E+02  0.2569E+02  0.9399E+02  0.9380E+02
     -5.211  0.5008E+02  0.5106E+02  0.9734E+02  0.9720E+02
     -5.145  0.4368E+02  0.4188E+02  0.1003E+03  0.1000E+03
     -5.078  0.3456E+02  0.3531E+02  0.1026E+03  0.1024E+03
     -5.011  0.4186E+02  0.3981E+02  0.1054E+03  0.1050E+03
     -4.945  0.6230E+02  0.6477E+02  0.1095E+03  0.1093E+03
     -4.878  0.2788E+02  0.2920E+02  0.1114E+03  0.1113E+03
     -4.811  0.4010E+02  0.3739E+02  0.1141E+03  0.1138E+03
     -4.744  0.4511E+02  0.4230E+02  0.1171E+03  0.1166E+03
     -4.678  0.3848E+02  0.4399E+02  0.1196E+03  0.1196E+03
     -4.611  0.4810E+02  0.4820E+02  0.1229E+03  0.1228E+03
     -4.544  0.4611E+02  0.4346E+02  0.1259E+03  0.1257E+03
     -4.478  0.4072E+02  0.4122E+02  0.1287E+03  0.1285E+03
     -4.411  0.3137E+02  0.3393E+02  0.1307E+03  0.1307E+03
     -4.344  0.4082E+02  0.4017E+02  0.1335E+03  0.1334E+03
     -4.277  0.2302E+02  0.2103E+02  0.1350E+03  0.1348E+03
     -4.211  0.4733E+02  0.4730E+02  0.1382E+03  0.1380E+03
     -4.144  0.5594E+02  0.5609E+02  0.1419E+03  0.1417E+03
     -4.077  0.3069E+02  0.3151E+02  0.1440E+03  0.1438E+03
     -4.011  0.3057E+02  0.3205E+02  0.1460E+03  0.1460E+03
     -3.944  0.2431E+02  0.2289E+02  0.1476E+03  0.1475E+03
     -3.877  0.2994E+02  0.2909E+02  0.1496E+03  0.1494E+03
     -3.810  0.5044E+02  0.5001E+02  0.1530E+03  0.1528E+03
     -3.744  0.3910E+02  0.3992E+02  0.1556E+03  0.1555E+03
     -3.677  0.4430E+02  0.4004E+02  0.1586E+03  0.1581E+03
     -3.610  0.8345E+02  0.8552E+02  0.1641E+03  0.1638E+03
     -3.544  0.4824E+02  0.4968E+02  0.1674E+03  0.1672E+03
     -3.477  0.7165E+02  0.7129E+02  0.1722E+03  0.1719E+03
     -3.410  0.7360E+02  0.7274E+02  0.1771E+03  0.1768E+03
     -3.343  0.7161E+02  0.7233E+02  0.1819E+03  0.1816E+03
     -3.277  0.4930E+02  0.4968E+02  0.1852E+03  0.1849E+03
     -3.210  0.4837E+02  0.4835E+02  0.1884E+03  0.1882E+03
     -3.143  0.5401E+02  0.5264E+02  0.1920E+03  0.1917E+03
     -3.077  0.7257E+02  0.7558E+02  0.1968E+03  0.1967E+03
     -3.010  0.8069E+02  0.7924E+02  0.2022E+03  0.2020E+03
     -2.943  0.6157E+02  0.6023E+02  0.2064E+03  0.2060E+03
     -2.876  0.4767E+02  0.4798E+02  0.2095E+03  0.2092E+03
     -2.810  0.5157E+02  0.5180E+02  0.2130E+03  0.2127E+03
     -2.743  0.3696E+02  0.4028E+02  0.2155E+03  0.2154E+03
     -2.676  0.4684E+02  0.4558E+02  0.2186E+03  0.2184E+03
     -2.609  0.3834E+02  0.3721E+02  0.2211E+03  0.2209E+03
     -2.543  0.4341E+02  0.4259E+02  0.2240E+03  0.2238E+03
     -2.476  0.5906E+02  0.5889E+02  0.2280E+03  0.2277E+03
     -2.409  0.4592E+02  0.4578E+02  0.2311E+03  0.2308E+03
     -2.343  0.5910E+02  0.5718E+02  0.2350E+03  0.2346E+03
     -2.276  0.6334E+02  0.6598E+02  0.2392E+03  0.2390E+03
     -2.209  0.6586E+02  0.6463E+02  0.2436E+03  0.2433E+03
     -2.142  0.3929E+02  0.4365E+02  0.2463E+03  0.2462E+03
     -2.076  0.4547E+02  0.4347E+02  0.2493E+03  0.2492E+03
     -2.009  0.5053E+02  0.4896E+02  0.2527E+03  0.2524E+03
     -1.942  0.4595E+02  0.4906E+02  0.2557E+03  0.2557E+03
     -1.876  0.4670E+02  0.4377E+02  0.2589E+03  0.2586E+03
     -1.809  0.2564E+02  0.2806E+02  0.2606E+03  0.2605E+03
     -1.742  0.5474E+02  0.4963E+02  0.2642E+03  0.2638E+03
     -1.675  0.5709E+02  0.5958E+02  0.2681E+03  0.2678E+03
     -1.609  0.5086E+02  0.5190E+02  0.2715E+03  0.2713E+03
     -1.542  0.6642E+02  0.6772E+02  0.2759E+03  0.2758E+03
     -1.475  0.4632E+02  0.4469E+02  0.2790E+03  0.2788E+03
     -1.409  0.5394E+02  0.5391E+02  0.2826E+03  0.2824E+03
     -1.342  0.6477E+02  0.6322E+02  0.2869E+03  0.2866E+03
     -1.275  0.3776E+02  0.3671E+02  0.2894E+03  0.2891E+03
     -1.208  0.6920E+02  0.7120E+02  0.2941E+03  0.2938E+03
     -1.142  0.7034E+02  0.6645E+02  0.2988E+03  0.2983E+03
     -1.075  0.7007E+02  0.7508E+02  0.3034E+03  0.3033E+03
     -1.008  0.6019E+02  0.5791E+02  0.3075E+03  0.3071E+03
     -0.942  0.5554E+02  0.5934E+02  0.3112E+03  0.3111E+03
     -0.875  0.5695E+02  0.5350E+02  0.3150E+03  0.3147E+03
     -0.808  0.5113E+02  0.5257E+02  0.3184E+03  0.3182E+03
     -0.741  0.5560E+02  0.5346E+02  0.3221E+03  0.3218E+03
     -0.675  0.7991E+02  0.8119E+02  0.3274E+03  0.3272E+03
     -0.608  0.7527E+02  0.7677E+02  0.3325E+03  0.3323E+03
     -0.541  0.6875E+02  0.6466E+02  0.3371E+03  0.3367E+03
     -0.475  0.6230E+02  0.6496E+02  0.3412E+03  0.3410E+03
     -0.408  0.8819E+02  0.8637E+02  0.3471E+03  0.3468E+03
     -0.341  0.3355E+02  0.3592E+02  0.3494E+03  0.3492E+03
     -0.274  0.7473E+02  0.6864E+02  0.3543E+03  0.3537E+03
     -0.208  0.5366E+02  0.5643E+02  0.3579E+03  0.3575E+03
     -0.141  0.7998E+02  0.8298E+02  0.3633E+03  0.3631E+03
     -0.074  0.6735E+02  0.6618E+02  0.3678E+03  0.3675E+03
     -0.008  0.7250E+02  0.6958E+02  0.3726E+03  0.3721E+03
      0.059  0.6577E+02  0.6681E+02  0.3770E+03  0.3766E+03
      0.126  0.6897E+02  0.7005E+02  0.3816E+03  0.3813E+03
      0.193  0.7376E+02  0.7448E+02  0.3866E+03  0.3863E+03
      0.259  0.4751E+02  0.5017E+02  0.3897E+03  0.3896E+03
      0.326  0.7939E+02  0.7858E+02  0.3950E+03  0.3949E+03
      0.393  0.7581E+02  0.7223E+02  0.4001E+03  0.3997E+03
      0.459  0.7038E+02  0.6880E+02  0.4048E+03  0.4043E+03
      0.526  0.7597E+02  0.7731E+02  0.4099E+03  0.4094E+03
      0.593  0.8629E+02  0.8726E+02  0.4156E+03  0.4153E+03
      0.660  0.6132E+02  0.6486E+02  0.4197E+03  0.4196E+03
      0.726  0.6947E+02  0.6593E+02  0.4244E+03  0.4240E+03
      0.793  0.6427E+02  0.6443E+02  0.4287E+03  0.4283E+03
      0.860  0.7907E+02  0.8010E+02  0.4340E+03  0.4337E+03
      0.926  0.3444E+02  0.3847E+02  0.4363E+03  0.4362E+03
      0.993  0.6559E+02  0.6293E+02  0.4406E+03  0.4404E+03
      1.060  0.7269E+02  0.6765E+02  0.4455E+03  0.4450E+03
      1.127  0.5713E+02  0.5982E+02  0.4493E+03  0.4489E+03
      1.193  0.7162E+02  0.7435E+02  0.4541E+03  0.4539E+03
      1.260  0.7801E+02  0.7363E+02  0.4593E+03  0.4588E+03
      1.327  0.7777E+02  0.7845E+02  0.4645E+03  0.4641E+03
      1.393  0.8069E+02  0.8407E+02  0.4699E+03  0.4697E+03
      1.460  0.7277E+02  0.7316E+02  0.4747E+03  0.4746E+03
      1.527  0.5913E+02  0.5809E+02  0.4787E+03  0.4784E+03
      1.594  0.8881E+02  0.8627E+02  0.4846E+03  0.4842E+03
      1.660  0.7587E+02  0.7291E+02  0.4897E+03  0.4891E+03
      1.727  0.6603E+02  0.7119E+02  0.4941E+03  0.4938E+03
      1.794  0.9785E+02  0.9440E+02  0.5006E+03  0.5001E+03
      1.860  0.9803E+02  0.1006E+03  0.5072E+03  0.5068E+03
      1.927  0.5491E+02  0.5572E+02  0.5109E+03  0.5106E+03
      1.994  0.7288E+02  0.7243E+02  0.5157E+03  0.5154E+03
      2.061  0.8167E+02  0.8058E+02  0.5212E+03  0.5208E+03
      2.127  0.7142E+02  0.7370E+02  0.5260E+03  0.5257E+03
      2.194  0.1029E+03  0.1003E+03  0.5328E+03  0.5324E+03
      2.261  0.8249E+02  0.8464E+02  0.5383E+03  0.5381E+03
      2.327  0.7046E+02  0.6741E+02  0.5430E+03  0.5426E+03
      2.394  0.7719E+02  0.8086E+02  0.5482E+03  0.5480E+03
      2.461  0.7909E+02  0.7743E+02  0.5535E+03  0.5531E+03
      2.528  0.6802E+02  0.6815E+02  0.5580E+03  0.5577E+03
      2.594  0.9712E+02  0.9679E+02  0.5645E+03  0.5642E+03
      2.661  0.7384E+02  0.7404E+02  0.5694E+03  0.5691E+03
      2.728  0.7173E+02  0.7226E+02  0.5742E+03  0.5739E+03
      2.794  0.9096E+02  0.9127E+02  0.5803E+03  0.5800E+03
      2.861  0.8235E+02  0.8077E+02  0.5858E+03  0.5854E+03
      2.928  0.8046E+02  0.8066E+02  0.5912E+03  0.5908E+03
      2.995  0.9963E+02  0.1015E+03  0.5978E+03  0.5976E+03
      3.061  0.9468E+02  0.8958E+02  0.6041E+03  0.6036E+03
      3.128  0.1111E+03  0.1120E+03  0.6116E+03  0.6111E+03
      3.195  0.9391E+02  0.9595E+02  0.6178E+03  0.6175E+03
      3.261  0.6988E+02  0.7019E+02  0.6225E+03  0.6222E+03
      3.328  0.1194E+03  0.1207E+03  0.6305E+03  0.6302E+03
      3.395  0.8035E+02  0.7913E+02  0.6358E+03  0.6355E+03
      3.462  0.1044E+03  0.1015E+03  0.6428E+03  0.6423E+03
      3.528  0.1172E+03  0.1194E+03  0.6506E+03  0.6503E+03
      3.595  0.8803E+02  0.8588E+02  0.6565E+03  0.6560E+03
      3.662  0.9994E+02  0.1037E+03  0.6632E+03  0.6629E+03
      3.728  0.8020E+02  0.7957E+02  0.6686E+03  0.6683E+03
      3.795  0.9269E+02  0.9030E+02  0.6748E+03  0.6743E+03
      3.862  0.9479E+02  0.9558E+02  0.6811E+03  0.6807E+03
      3.929  0.7500E+02  0.7871E+02  0.6861E+03  0.6859E+03
      3.995  0.9077E+02  0.8962E+02  0.6922E+03  0.6919E+03
      4.062  0.8808E+02  0.8358E+02  0.6981E+03  0.6975E+03
      4.129  0.8705E+02  0.8920E+02  0.7039E+03  0.7034E+03
      4.195  0.8322E+02  0.8386E+02  0.7094E+03  0.7090E+03
      4.262  0.8763E+02  0.8881E+02  0.7153E+03  0.7150E+03
      4.329  0.9708E+02  0.9623E+02  0.7218E+03  0.7214E+03
      4.396  0.8201E+02  0.8556E+02  0.7273E+03  0.7271E+03
      4.462  0.1091E+03  0.1051E+03  0.7345E+03  0.7342E+03
      4.529  0.9381E+02  0.9533E+02  0.7408E+03  0.7405E+03
      4.596  0.6967E+02  0.6954E+02  0.7454E+03  0.7452E+03
      4.662  0.1020E+03  0.1030E+03  0.7522E+03  0.7521E+03
      4.729  0.7626E+02  0.7553E+02  0.7573E+03  0.7571E+03
      4.796  0.8997E+02  0.8986E+02  0.7634E+03  0.7631E+03
      4.863  0.9069E+02  0.8873E+02  0.7694E+03  0.7690E+03
      4.929  0.7588E+02  0.7513E+02  0.7745E+03  0.7741E+03
      4.996  0.1042E+03  0.1054E+03  0.7815E+03  0.7811E+03
      5.063  0.8801E+02  0.8677E+02  0.7873E+03  0.7869E+03
      5.129  0.9082E+02  0.9196E+02  0.7934E+03  0.7930E+03
      5.196  0.5363E+02  0.5317E+02  0.7970E+03  0.7966E+03
      5.263  0.8421E+02  0.8298E+02  0.8026E+03  0.8021E+03
      5.330  0.8641E+02  0.8826E+02  0.8084E+03  0.8080E+03
      5.396  0.5372E+02  0.5375E+02  0.8120E+03  0.8116E+03
      5.463  0.7654E+02  0.7362E+02  0.8171E+03  0.8165E+03
      5.530  0.7450E+02  0.8199E+02  0.8221E+03  0.8220E+03
      5.596  0.6012E+02  0.5654E+02  0.8261E+03  0.8258E+03
      5.663  0.6777E+02  0.6645E+02  0.8306E+03  0.8302E+03
      5.730  0.9300E+02  0.8823E+02  0.8368E+03  0.8361E+03
      5.797  0.7982E+02  0.8443E+02  0.8422E+03  0.8418E+03
      5.863  0.6345E+02  0.6296E+02  0.8464E+03  0.8460E+03
      5.930  0.7932E+02  0.8320E+02  0.8517E+03  0.8515E+03
      5.997  0.5716E+02  0.5424E+02  0.8555E+03  0.8551E+03
      6.063  0.4647E+02  0.4646E+02  0.8586E+03  0.8582E+03
      6.130  0.7693E+02  0.8138E+02  0.8638E+03  0.8637E+03
      6.197  0.7702E+02  0.7323E+02  0.8689E+03  0.8686E+03
      6.264  0.4539E+02  0.4617E+02  0.8719E+03  0.8717E+03
      6.330  0.8305E+02  0.8030E+02  0.8775E+03  0.8770E+03
      6.397  0.6971E+02  0.7164E+02  0.8821E+03  0.8818E+03
      6.464  0.4018E+02  0.4333E+02  0.8848E+03  0.8847E+03
      6.530  0.6107E+02  0.5584E+02  0.8889E+03  0.8884E+03
      6.597  0.6196E+02  0.6406E+02  0.8930E+03  0.8927E+03
      6.664  0.6874E+02  0.6706E+02  0.8976E+03  0.8972E+03
      6.731  0.7326E+02  0.7304E+02  0.9025E+03  0.9021E+03
      6.797  0.6216E+02  0.6024E+02  0.9067E+03  0.9061E+03
      6.864  0.5419E+02  0.5947E+02  0.9103E+03  0.9101E+03
      6.931  0.7164E+02  0.5885E+02  0.9151E+03  0.9140E+03
      6.997  0.8050E+02  0.9386E+02  0.9205E+03  0.9203E+03
      7.064  0.7796E+02  0.7286E+02  0.9257E+03  0.9251E+03
      7.131  0.7458E+02  0.7779E+02  0.9306E+03  0.9303E+03
      7.198  0.7427E+02  0.6822E+02  0.9356E+03  0.9349E+03
      7.264  0.8397E+02  0.8370E+02  0.9412E+03  0.9405E+03
      7.331  0.1006E+03  0.1005E+03  0.9479E+03  0.9472E+03
      7.398  0.9016E+02  0.9525E+02  0.9540E+03  0.9536E+03
      7.464  0.9429E+02  0.8715E+02  0.9603E+03  0.9594E+03
      7.531  0.7171E+02  0.7785E+02  0.9651E+03  0.9646E+03
      7.598  0.9918E+02  0.9740E+02  0.9717E+03  0.9711E+03
      7.665  0.9197E+02  0.9193E+02  0.9778E+03  0.9772E+03
      7.731  0.1213E+03  0.1162E+03  0.9859E+03  0.9850E+03
      7.798  0.1021E+03  0.1070E+03  0.9927E+03  0.9921E+03
      7.865  0.1146E+03  0.1183E+03  0.1000E+04  0.1000E+04
      7.931  0.8002E+02  0.7755E+02  0.1006E+04  0.1005E+04
      7.998  0.1158E+03  0.1124E+03  0.1013E+04  0.1013E+04
      8.065  0.8396E+02  0.8852E+02  0.1019E+04  0.1019E+04
      8.132  0.1119E+03  0.1104E+03  0.1027E+04  0.1026E+04
      8.198  0.9197E+02  0.9279E+02  0.1033E+04  0.1032E+04
      8.265  0.9158E+02  0.9148E+02  0.1039E+04  0.1038E+04
      8.332  0.1078E+03  0.1050E+03  0.1046E+04  0.1045E+04
      8.398  0.1117E+03  0.1113E+03  0.1053E+04  0.1053E+04
      8.465  0.1171E+03  0.1207E+03  0.1061E+04  0.1061E+04
      8.532  0.8948E+02  0.9100E+02  0.1067E+04  0.1067E+04
      8.599  0.1078E+03  0.1057E+03  0.1074E+04  0.1074E+04
      8.665  0.1220E+03  0.1198E+03  0.1083E+04  0.1082E+04
      8.732  0.1208E+03  0.1196E+03  0.1091E+04  0.1090E+04
      8.799  0.7156E+02  0.8228E+02  0.1096E+04  0.1095E+04
      8.865  0.7468E+01  0.8608E+01  0.1096E+04  0.1096E+04
      8.932  0.0000E+00  0.0000E+00  0.1096E+04  0.1096E+04
      8.999  0.0000E+00  0.0000E+00  0.1096E+04  0.1096E+04
      9.066  0.0000E+00  0.0000E+00  0.1096E+04  0.1096E+04
      9.132  0.0000E+00  0.0000E+00  0.1096E+04  0.1096E+04
      9.199  0.0000E+00  0.0000E+00  0.1096E+04  0.1096E+04
      9.266  0.0000E+00  0.0000E+00  0.1096E+04  0.1096E+04
      9.332  0.0000E+00  0.0000E+00  0.1096E+04  0.1096E+04
      9.399  0.0000E+00  0.0000E+00  0.1096E+04  0.1096E+04
      9.466  0.0000E+00  0.0000E+00  0.1096E+04  0.1096E+04
      9.533  0.0000E+00  0.0000E+00  0.1096E+04  0.1096E+04
      9.599  0.0000E+00  0.0000E+00  0.1096E+04  0.1096E+04
      9.666  0.0000E+00  0.0000E+00  0.1096E+04  0.1096E+04
      9.733  0.0000E+00  0.0000E+00  0.1096E+04  0.1096E+04
