Si and Ge interface calculation         
           1
    13.303180    0.000000    0.000000
     6.651589   14.873406    0.000000
     0.000000    0.000000    8.390059
   Si   C 
    36    84
Direct configuration=     1
   0.98290563  0.65811950  0.00000000
   0.78290558  0.55811930  0.14474380
   0.58290541  0.45811909  0.28948760
   0.98290563  0.32478613  0.00000000
   0.78290558  0.22478597  0.14474380
   0.58290541  0.12478580  0.28948760
   0.98290563  0.99145281  0.00000000
   0.78290558  0.89145267  0.14474380
   0.58290541  0.79145253  0.28948760
   0.63290566  0.69145268  0.07237174
   0.43290559  0.59145248  0.21711555
   0.23290552  0.49145243  0.36185935
   0.63290566  0.35811943  0.07237174
   0.43290559  0.25811928  0.21711555
   0.23290552  0.15811914  0.36185935
   0.63290566  0.02478614  0.07237174
   0.43290559  0.92478597  0.21711555
   0.23290552  0.82478583  0.36185935
   0.48290563  0.65811950  0.00000000
   0.28290555  0.55811930  0.14474380
   0.08290544  0.45811909  0.28948760
   0.48290563  0.32478613  0.00000000
   0.28290555  0.22478595  0.14474380
   0.08290544  0.12478581  0.28948760
   0.48290563  0.99145281  0.00000000
   0.28290555  0.89145267  0.14474380
   0.08290544  0.79145253  0.28948760
   0.13290568  0.69145274  0.07237176
   0.93290555  0.59145248  0.21711555
   0.73290551  0.49145240  0.36185935
   0.13290568  0.35811949  0.07237176
   0.93290555  0.25811928  0.21711555
   0.73290551  0.15811913  0.36185935
   0.13290568  0.02478614  0.07237176
   0.93290555  0.92478597  0.21711555
   0.73290551  0.82478583  0.36185935
   0.36071706  0.14501810  0.56210440
   0.33214545  0.41644672  0.65716469
   0.30357385  0.68787533  0.75222492
   0.50357413  0.28787524  0.56210440
   0.47500256  0.55930388  0.65716469
   0.44643104  0.83073252  0.75222492
   0.64643127  0.43073240  0.56210440
   0.61785972  0.70216101  0.65716469
   0.58928818  0.97358972  0.75222492
   0.78928840  0.57358956  0.56210440
   0.76071686  0.84501821  0.65716469
   0.73214531  0.11644685  0.75222492
   0.93214554  0.71644670  0.56210440
   0.90357393  0.98787528  0.65716469
   0.87500238  0.25930393  0.75222492
   0.07500267  0.85930377  0.56210440
   0.04643107  0.13073242  0.65716469
   0.01785958  0.40216100  0.75222492
   0.21785986  0.00216103  0.56210440
   0.18928838  0.27358961  0.65716469
   0.16071665  0.54501820  0.75222492
   0.45357415  0.88787508  0.60963446
   0.42500261  0.15930367  0.70469469
   0.39643112  0.43073237  0.79975492
   0.59643125  0.03073239  0.60963446
   0.56785971  0.30216098  0.70469469
   0.53928816  0.57358968  0.79975492
   0.73928845  0.17358947  0.60963446
   0.71071684  0.44501817  0.70469469
   0.68214524  0.71644676  0.79975486
   0.88214552  0.31644654  0.60963446
   0.85357404  0.58787519  0.70469469
   0.82500237  0.85930371  0.79975486
   0.02500272  0.45930383  0.60963446
   0.99643111  0.73073244  0.70469469
   0.96785957  0.00216115  0.79975486
   0.16785979  0.60216093  0.60963446
   0.13928819  0.87358957  0.70469469
   0.11071682  0.14501822  0.79975492
   0.31071699  0.74501806  0.60963446
   0.28214550  0.01644671  0.70469469
   0.25357390  0.28787518  0.79975486
   0.43214551  0.71644664  0.56210440
   0.40357399  0.98787528  0.65716469
   0.37500241  0.25930393  0.75222492
   0.57500267  0.85930377  0.56210440
   0.54643112  0.13073242  0.65716469
   0.51785964  0.40216112  0.75222492
   0.71785986  0.00216091  0.56210440
   0.68928838  0.27358961  0.65716469
   0.66071671  0.54501820  0.75222486
   0.86071700  0.14501810  0.56210440
   0.83214539  0.41644672  0.65716469
   0.80357385  0.68787533  0.75222492
   0.00357413  0.28787518  0.56210440
   0.97500259  0.55930382  0.65716469
   0.94643104  0.83073246  0.75222492
   0.14643133  0.43073240  0.56210440
   0.11785972  0.70216101  0.65716469
   0.08928823  0.97358966  0.75222492
   0.28928852  0.57358950  0.56210440
   0.26071692  0.84501815  0.65716469
   0.23214531  0.11644673  0.75222492
   0.38214555  0.31644657  0.60963446
   0.35357404  0.58787519  0.70469469
   0.32500243  0.85930383  0.79975486
   0.52500272  0.45930362  0.60963446
   0.49643117  0.73073226  0.70469469
   0.46785963  0.00216091  0.79975486
   0.66785979  0.60216093  0.60963446
   0.63928831  0.87358952  0.70469469
   0.61071670  0.14501810  0.79975492
   0.81071699  0.74501800  0.60963446
   0.78214538  0.01644659  0.70469469
   0.75357390  0.28787518  0.79975492
   0.95357406  0.88787502  0.60963446
   0.92500258  0.15930367  0.70469469
   0.89643103  0.43073237  0.79975492
   0.09643125  0.03073227  0.60963446
   0.06785965  0.30216098  0.70469469
   0.03928804  0.57358944  0.79975492
   0.23928833  0.17358935  0.60963446
   0.21071672  0.44501793  0.70469469
   0.18214512  0.71644652  0.79975486
