  96  96   0   0
  0.2271504E+02  0.1789154E-08  0.1789153E-08  0.1562834E-08  0.5000000E-15
  1.000000000000000E-004
  CAR 
 Si and Ge interface calculation         
      7.03209706    -13.62952408  301      3.51770637      1.00000000
    -13.630  0.0000E+00  0.0000E+00  0.0000E+00  0.0000E+00
    -13.561  0.0000E+00  0.0000E+00  0.0000E+00  0.0000E+00
    -13.492  0.0000E+00  0.0000E+00  0.0000E+00  0.0000E+00
    -13.423  0.0000E+00  0.0000E+00  0.0000E+00  0.0000E+00
    -13.354  0.0000E+00  0.0000E+00  0.0000E+00  0.0000E+00
    -13.285  0.0000E+00  0.0000E+00  0.0000E+00  0.0000E+00
    -13.216  0.0000E+00  0.0000E+00  0.0000E+00  0.0000E+00
    -13.147  0.0000E+00  0.0000E+00  0.0000E+00  0.0000E+00
    -13.079  0.0000E+00  0.0000E+00  0.0000E+00  0.0000E+00
    -13.010  0.0000E+00  0.0000E+00  0.0000E+00  0.0000E+00
    -12.941  0.0000E+00  0.0000E+00  0.0000E+00  0.0000E+00
    -12.872  0.0000E+00  0.0000E+00  0.0000E+00  0.0000E+00
    -12.803  0.0000E+00  0.0000E+00  0.0000E+00  0.0000E+00
    -12.734  0.2980E-08  0.0000E+00  0.2052E-09  0.0000E+00
    -12.665  0.1452E+02  0.1586E-06  0.9998E+00  0.1092E-07
    -12.596  0.5858E-10  0.1452E+02  0.1000E+01  0.1000E+01
    -12.528  0.2896E+02  0.7776E-08  0.2995E+01  0.1000E+01
    -12.459  0.0000E+00  0.2903E+02  0.3000E+01  0.3000E+01
    -12.390  0.0000E+00  0.0000E+00  0.3000E+01  0.3000E+01
    -12.321  0.0000E+00  0.0000E+00  0.3000E+01  0.3000E+01
    -12.252  0.0000E+00  0.0000E+00  0.3000E+01  0.3000E+01
    -12.183  0.6993E-12  0.0000E+00  0.3000E+01  0.3000E+01
    -12.114  0.2863E+02  0.8680E-09  0.4972E+01  0.3000E+01
    -12.045  0.0000E+00  0.2902E+02  0.5000E+01  0.4999E+01
    -11.977  0.0000E+00  0.0000E+00  0.5000E+01  0.5000E+01
    -11.908  0.0000E+00  0.0000E+00  0.5000E+01  0.5000E+01
    -11.839  0.0000E+00  0.0000E+00  0.5000E+01  0.5000E+01
    -11.770  0.0000E+00  0.0000E+00  0.5000E+01  0.5000E+01
    -11.701  0.0000E+00  0.0000E+00  0.5000E+01  0.5000E+01
    -11.632  0.0000E+00  0.0000E+00  0.5000E+01  0.5000E+01
    -11.563  0.0000E+00  0.0000E+00  0.5000E+01  0.5000E+01
    -11.494  0.2091E+02  0.8595E-12  0.6440E+01  0.5000E+01
    -11.426  0.8129E+01  0.2866E+02  0.7000E+01  0.6974E+01
    -11.357  0.0000E+00  0.0000E+00  0.7000E+01  0.7000E+01
    -11.288  0.0000E+00  0.0000E+00  0.7000E+01  0.7000E+01
    -11.219  0.0000E+00  0.0000E+00  0.7000E+01  0.7000E+01
    -11.150  0.0000E+00  0.0000E+00  0.7000E+01  0.7000E+01
    -11.081  0.2925E-06  0.0000E+00  0.7000E+01  0.7000E+01
    -11.012  0.1452E+02  0.2916E-01  0.8000E+01  0.7002E+01
    -10.944  0.0000E+00  0.1449E+02  0.8000E+01  0.8000E+01
    -10.875  0.0000E+00  0.0000E+00  0.8000E+01  0.8000E+01
    -10.806  0.0000E+00  0.0000E+00  0.8000E+01  0.8000E+01
    -10.737  0.0000E+00  0.0000E+00  0.8000E+01  0.8000E+01
    -10.668  0.0000E+00  0.0000E+00  0.8000E+01  0.8000E+01
    -10.599  0.0000E+00  0.0000E+00  0.8000E+01  0.8000E+01
    -10.530  0.0000E+00  0.0000E+00  0.8000E+01  0.8000E+01
    -10.461  0.0000E+00  0.0000E+00  0.8000E+01  0.8000E+01
    -10.393  0.0000E+00  0.0000E+00  0.8000E+01  0.8000E+01
    -10.324  0.0000E+00  0.0000E+00  0.8000E+01  0.8000E+01
    -10.255  0.0000E+00  0.0000E+00  0.8000E+01  0.8000E+01
    -10.186  0.0000E+00  0.0000E+00  0.8000E+01  0.8000E+01
    -10.117  0.0000E+00  0.0000E+00  0.8000E+01  0.8000E+01
    -10.048  0.0000E+00  0.0000E+00  0.8000E+01  0.8000E+01
     -9.979  0.0000E+00  0.0000E+00  0.8000E+01  0.8000E+01
     -9.910  0.0000E+00  0.0000E+00  0.8000E+01  0.8000E+01
     -9.842  0.0000E+00  0.0000E+00  0.8000E+01  0.8000E+01
     -9.773  0.0000E+00  0.0000E+00  0.8000E+01  0.8000E+01
     -9.704  0.0000E+00  0.0000E+00  0.8000E+01  0.8000E+01
     -9.635  0.0000E+00  0.0000E+00  0.8000E+01  0.8000E+01
     -9.566  0.0000E+00  0.0000E+00  0.8000E+01  0.8000E+01
     -9.497  0.0000E+00  0.0000E+00  0.8000E+01  0.8000E+01
     -9.428  0.0000E+00  0.0000E+00  0.8000E+01  0.8000E+01
     -9.359  0.0000E+00  0.0000E+00  0.8000E+01  0.8000E+01
     -9.291  0.0000E+00  0.0000E+00  0.8000E+01  0.8000E+01
     -9.222  0.1239E-05  0.0000E+00  0.8000E+01  0.8000E+01
     -9.153  0.1452E+02  0.8259E-10  0.9000E+01  0.8000E+01
     -9.084  0.0000E+00  0.1450E+02  0.9000E+01  0.8998E+01
     -9.015  0.0000E+00  0.0000E+00  0.9000E+01  0.9000E+01
     -8.946  0.3582E-02  0.1654E-02  0.9000E+01  0.9000E+01
     -8.877  0.4800E+01  0.4640E+01  0.9331E+01  0.9320E+01
     -8.808  0.2973E+01  0.2932E+01  0.9536E+01  0.9522E+01
     -8.740  0.1074E+02  0.1053E+02  0.1028E+02  0.1025E+02
     -8.671  0.8478E+01  0.8754E+01  0.1086E+02  0.1086E+02
     -8.602  0.7429E+01  0.7512E+01  0.1137E+02  0.1137E+02
     -8.533  0.1901E+01  0.1721E+01  0.1151E+02  0.1149E+02
     -8.464  0.1339E+02  0.1158E+02  0.1243E+02  0.1229E+02
     -8.395  0.4194E+02  0.1525E+02  0.1533E+02  0.1335E+02
     -8.326  0.1509E+02  0.4301E+02  0.1637E+02  0.1632E+02
     -8.258  0.2479E+02  0.2442E+02  0.1809E+02  0.1801E+02
     -8.189  0.1275E+02  0.1355E+02  0.1897E+02  0.1894E+02
     -8.120  0.5196E+01  0.4548E+01  0.1934E+02  0.1927E+02
     -8.051  0.7851E+01  0.8513E+01  0.1988E+02  0.1986E+02
     -7.982  0.2056E+02  0.2048E+02  0.2130E+02  0.2127E+02
     -7.913  0.1518E+02  0.1413E+02  0.2234E+02  0.2225E+02
     -7.844  0.1264E+02  0.1379E+02  0.2321E+02  0.2320E+02
     -7.775  0.2759E+02  0.2659E+02  0.2511E+02  0.2503E+02
     -7.707  0.2685E+02  0.2635E+02  0.2696E+02  0.2685E+02
     -7.638  0.3073E+02  0.3206E+02  0.2908E+02  0.2906E+02
     -7.569  0.1645E+02  0.1562E+02  0.3022E+02  0.3014E+02
     -7.500  0.1872E+02  0.1902E+02  0.3151E+02  0.3145E+02
     -7.431  0.1573E+02  0.1569E+02  0.3259E+02  0.3254E+02
     -7.362  0.3267E+02  0.3235E+02  0.3484E+02  0.3476E+02
     -7.293  0.3197E+02  0.3101E+02  0.3706E+02  0.3691E+02
     -7.224  0.3119E+02  0.3058E+02  0.3922E+02  0.3903E+02
     -7.156  0.3423E+02  0.3461E+02  0.4158E+02  0.4142E+02
     -7.087  0.1789E+02  0.1665E+02  0.4282E+02  0.4258E+02
     -7.018  0.4654E+02  0.4043E+02  0.4603E+02  0.4536E+02
     -6.949  0.5996E+02  0.6342E+02  0.5017E+02  0.4974E+02
     -6.880  0.3676E+02  0.3993E+02  0.5270E+02  0.5250E+02
     -6.811  0.2630E+02  0.2604E+02  0.5451E+02  0.5430E+02
     -6.742  0.2542E+02  0.2064E+02  0.5627E+02  0.5573E+02
     -6.673  0.3978E+02  0.4528E+02  0.5902E+02  0.5886E+02
     -6.605  0.4511E+02  0.4585E+02  0.6214E+02  0.6202E+02
     -6.536  0.6394E+02  0.6498E+02  0.6655E+02  0.6652E+02
     -6.467  0.2888E+02  0.2693E+02  0.6856E+02  0.6839E+02
     -6.398  0.3036E+02  0.3014E+02  0.7065E+02  0.7047E+02
     -6.329  0.1657E+02  0.1821E+02  0.7180E+02  0.7173E+02
     -6.260  0.1548E+02  0.1489E+02  0.7286E+02  0.7275E+02
     -6.191  0.4165E+02  0.4011E+02  0.7573E+02  0.7551E+02
     -6.122  0.2673E+02  0.2895E+02  0.7758E+02  0.7751E+02
     -6.054  0.1660E+02  0.1657E+02  0.7873E+02  0.7866E+02
     -5.985  0.4481E+02  0.4135E+02  0.8181E+02  0.8150E+02
     -5.916  0.2987E+02  0.3195E+02  0.8388E+02  0.8372E+02
     -5.847  0.3122E+02  0.3238E+02  0.8605E+02  0.8595E+02
     -5.778  0.2414E+02  0.2414E+02  0.8771E+02  0.8761E+02
     -5.709  0.1820E+02  0.1459E+02  0.8897E+02  0.8862E+02
     -5.640  0.2051E+02  0.1724E+02  0.9039E+02  0.8981E+02
     -5.571  0.3417E+02  0.3181E+02  0.9274E+02  0.9200E+02
     -5.503  0.1088E+02  0.2167E+02  0.9350E+02  0.9350E+02
     -5.434  0.9332E+01  0.8857E+01  0.9414E+02  0.9411E+02
     -5.365  0.9640E+01  0.6432E+01  0.9481E+02  0.9456E+02
     -5.296  0.1173E+02  0.1229E+02  0.9562E+02  0.9540E+02
     -5.227  0.1892E+02  0.1696E+02  0.9693E+02  0.9657E+02
     -5.158  0.2292E+02  0.1951E+02  0.9852E+02  0.9792E+02
     -5.089  0.3245E+02  0.2436E+02  0.1008E+03  0.9960E+02
     -5.021  0.3253E+02  0.4700E+02  0.1030E+03  0.1028E+03
     -4.952  0.8045E+01  0.1034E+02  0.1036E+03  0.1036E+03
     -4.883  0.1815E+01  0.1814E+01  0.1037E+03  0.1037E+03
     -4.814  0.3472E+01  0.1393E+01  0.1039E+03  0.1038E+03
     -4.745  0.1894E+02  0.2000E+02  0.1052E+03  0.1052E+03
     -4.676  0.1174E+02  0.1026E+02  0.1060E+03  0.1059E+03
     -4.607  0.1213E+02  0.1452E+02  0.1069E+03  0.1069E+03
     -4.538  0.1130E+02  0.8701E+01  0.1077E+03  0.1075E+03
     -4.470  0.3108E+02  0.3016E+02  0.1098E+03  0.1096E+03
     -4.401  0.5303E+02  0.5226E+02  0.1134E+03  0.1132E+03
     -4.332  0.2671E+02  0.2789E+02  0.1153E+03  0.1151E+03
     -4.263  0.2623E+02  0.2518E+02  0.1171E+03  0.1168E+03
     -4.194  0.3607E+02  0.3741E+02  0.1196E+03  0.1194E+03
     -4.125  0.2730E+02  0.2752E+02  0.1215E+03  0.1213E+03
     -4.056  0.3453E+02  0.3356E+02  0.1239E+03  0.1236E+03
     -3.987  0.4195E+02  0.4189E+02  0.1268E+03  0.1265E+03
     -3.919  0.2647E+02  0.2591E+02  0.1286E+03  0.1283E+03
     -3.850  0.2523E+02  0.2599E+02  0.1303E+03  0.1301E+03
     -3.781  0.2290E+02  0.2507E+02  0.1319E+03  0.1318E+03
     -3.712  0.5072E+02  0.3390E+02  0.1354E+03  0.1342E+03
     -3.643  0.4157E+02  0.5527E+02  0.1383E+03  0.1380E+03
     -3.574  0.3845E+02  0.3884E+02  0.1409E+03  0.1407E+03
     -3.505  0.3530E+02  0.3616E+02  0.1434E+03  0.1432E+03
     -3.436  0.3716E+02  0.3492E+02  0.1459E+03  0.1456E+03
     -3.368  0.3005E+02  0.3493E+02  0.1480E+03  0.1480E+03
     -3.299  0.3745E+02  0.3248E+02  0.1506E+03  0.1502E+03
     -3.230  0.3709E+02  0.3856E+02  0.1531E+03  0.1529E+03
     -3.161  0.2686E+02  0.2852E+02  0.1550E+03  0.1549E+03
     -3.092  0.1464E+02  0.1231E+02  0.1560E+03  0.1557E+03
     -3.023  0.1256E+02  0.1698E+02  0.1569E+03  0.1569E+03
     -2.954  0.1937E+02  0.1259E+02  0.1582E+03  0.1577E+03
     -2.885  0.3656E+02  0.4105E+02  0.1607E+03  0.1606E+03
     -2.817  0.2014E+02  0.2227E+02  0.1621E+03  0.1621E+03
     -2.748  0.1294E+02  0.1152E+02  0.1630E+03  0.1629E+03
     -2.679  0.2027E+02  0.2064E+02  0.1644E+03  0.1643E+03
     -2.610  0.2161E+02  0.2108E+02  0.1659E+03  0.1658E+03
     -2.541  0.3202E+01  0.4856E+01  0.1661E+03  0.1661E+03
     -2.472  0.1764E+02  0.1570E+02  0.1673E+03  0.1672E+03
     -2.403  0.1466E+02  0.1537E+02  0.1684E+03  0.1683E+03
     -2.335  0.2570E+02  0.2485E+02  0.1701E+03  0.1700E+03
     -2.266  0.9716E+01  0.1141E+02  0.1708E+03  0.1708E+03
     -2.197  0.2223E+02  0.1764E+02  0.1723E+03  0.1720E+03
     -2.128  0.1651E+02  0.1505E+02  0.1735E+03  0.1730E+03
     -2.059  0.1261E+02  0.1789E+02  0.1743E+03  0.1743E+03
     -1.990  0.4148E+02  0.4083E+02  0.1772E+03  0.1771E+03
     -1.921  0.2629E+02  0.2003E+02  0.1790E+03  0.1785E+03
     -1.852  0.9179E+01  0.1448E+02  0.1797E+03  0.1795E+03
     -1.784  0.2243E+02  0.2239E+02  0.1812E+03  0.1810E+03
     -1.715  0.6537E+01  0.8453E+01  0.1817E+03  0.1816E+03
     -1.646  0.6698E+01  0.7025E+01  0.1821E+03  0.1821E+03
     -1.577  0.1910E+02  0.1565E+02  0.1834E+03  0.1832E+03
     -1.508  0.1349E+02  0.1711E+02  0.1844E+03  0.1843E+03
     -1.439  0.7154E+01  0.5747E+01  0.1849E+03  0.1847E+03
     -1.370  0.1107E+02  0.1148E+02  0.1856E+03  0.1855E+03
     -1.301  0.2067E+02  0.1755E+02  0.1871E+03  0.1867E+03
     -1.233  0.1011E+02  0.1459E+02  0.1878E+03  0.1877E+03
     -1.164  0.6721E+01  0.4439E+01  0.1882E+03  0.1881E+03
     -1.095  0.2235E+01  0.3016E+01  0.1884E+03  0.1883E+03
     -1.026  0.9764E+01  0.9841E+01  0.1891E+03  0.1889E+03
     -0.957  0.1819E+02  0.1919E+02  0.1903E+03  0.1903E+03
     -0.888  0.3188E+01  0.7092E+00  0.1905E+03  0.1903E+03
     -0.819  0.9413E+01  0.1062E+02  0.1912E+03  0.1911E+03
     -0.750  0.1968E+02  0.1626E+02  0.1925E+03  0.1922E+03
     -0.682  0.2332E+02  0.2329E+02  0.1941E+03  0.1938E+03
     -0.613  0.3491E+02  0.3288E+02  0.1966E+03  0.1961E+03
     -0.544  0.3185E+02  0.3385E+02  0.1988E+03  0.1984E+03
     -0.475  0.4310E+02  0.4495E+02  0.2017E+03  0.2015E+03
     -0.406  0.3846E+02  0.3633E+02  0.2044E+03  0.2040E+03
     -0.337  0.6267E+02  0.6253E+02  0.2087E+03  0.2083E+03
     -0.268  0.4078E+02  0.4437E+02  0.2115E+03  0.2114E+03
     -0.199  0.4980E+02  0.4638E+02  0.2150E+03  0.2146E+03
     -0.131  0.6247E+02  0.6388E+02  0.2193E+03  0.2190E+03
     -0.062  0.3092E+02  0.3107E+02  0.2214E+03  0.2211E+03
      0.007  0.4102E+02  0.4171E+02  0.2243E+03  0.2240E+03
      0.076  0.6320E+02  0.5782E+02  0.2286E+03  0.2280E+03
      0.145  0.5106E+02  0.5161E+02  0.2321E+03  0.2316E+03
      0.214  0.4891E+02  0.5434E+02  0.2355E+03  0.2353E+03
      0.283  0.5698E+02  0.5207E+02  0.2394E+03  0.2389E+03
      0.352  0.6219E+02  0.6277E+02  0.2437E+03  0.2433E+03
      0.420  0.4222E+02  0.4135E+02  0.2466E+03  0.2461E+03
      0.489  0.6044E+02  0.6365E+02  0.2508E+03  0.2505E+03
      0.558  0.4940E+02  0.4764E+02  0.2542E+03  0.2538E+03
      0.627  0.3787E+02  0.4150E+02  0.2569E+03  0.2567E+03
      0.696  0.8359E+02  0.7680E+02  0.2626E+03  0.2619E+03
      0.765  0.5064E+02  0.5367E+02  0.2661E+03  0.2657E+03
      0.834  0.5364E+02  0.5374E+02  0.2698E+03  0.2694E+03
      0.902  0.6798E+02  0.6707E+02  0.2745E+03  0.2740E+03
      0.971  0.4647E+02  0.4656E+02  0.2777E+03  0.2772E+03
      1.040  0.8409E+02  0.8428E+02  0.2835E+03  0.2830E+03
      1.109  0.5718E+02  0.5924E+02  0.2875E+03  0.2871E+03
      1.178  0.5282E+02  0.5592E+02  0.2911E+03  0.2910E+03
      1.247  0.7870E+02  0.7305E+02  0.2966E+03  0.2960E+03
      1.316  0.4745E+02  0.4874E+02  0.2998E+03  0.2994E+03
      1.385  0.5560E+02  0.5818E+02  0.3037E+03  0.3034E+03
      1.453  0.4721E+02  0.4662E+02  0.3069E+03  0.3066E+03
      1.522  0.5911E+02  0.5939E+02  0.3110E+03  0.3107E+03
      1.591  0.4357E+02  0.4441E+02  0.3140E+03  0.3138E+03
      1.660  0.5604E+02  0.5246E+02  0.3179E+03  0.3174E+03
      1.729  0.7296E+02  0.7108E+02  0.3229E+03  0.3223E+03
      1.798  0.5379E+02  0.5933E+02  0.3267E+03  0.3264E+03
      1.867  0.3544E+02  0.3237E+02  0.3291E+03  0.3287E+03
      1.936  0.4452E+02  0.4731E+02  0.3322E+03  0.3319E+03
      2.004  0.6280E+02  0.6075E+02  0.3365E+03  0.3361E+03
      2.073  0.4106E+02  0.3702E+02  0.3393E+03  0.3387E+03
      2.142  0.4076E+02  0.4439E+02  0.3422E+03  0.3417E+03
      2.211  0.4283E+02  0.4534E+02  0.3451E+03  0.3449E+03
      2.280  0.4481E+02  0.4383E+02  0.3482E+03  0.3479E+03
      2.349  0.2897E+02  0.2841E+02  0.3502E+03  0.3499E+03
      2.418  0.3903E+02  0.4202E+02  0.3529E+03  0.3528E+03
      2.487  0.5778E+01  0.6514E+01  0.3533E+03  0.3532E+03
      2.555  0.2010E+02  0.1955E+02  0.3547E+03  0.3546E+03
      2.624  0.1307E+02  0.6633E+01  0.3556E+03  0.3550E+03
      2.693  0.2354E+02  0.2890E+02  0.3572E+03  0.3570E+03
      2.762  0.2672E+02  0.2787E+02  0.3591E+03  0.3590E+03
      2.831  0.2128E+02  0.1789E+02  0.3605E+03  0.3602E+03
      2.900  0.2704E+02  0.2588E+02  0.3624E+03  0.3620E+03
      2.969  0.5458E+02  0.4966E+02  0.3662E+03  0.3654E+03
      3.038  0.2887E+02  0.3297E+02  0.3681E+03  0.3677E+03
      3.106  0.3252E+02  0.3308E+02  0.3704E+03  0.3700E+03
      3.175  0.4209E+02  0.3412E+02  0.3733E+03  0.3723E+03
      3.244  0.4228E+02  0.5577E+02  0.3762E+03  0.3762E+03
      3.313  0.1911E+02  0.1255E+02  0.3775E+03  0.3770E+03
      3.382  0.3392E+02  0.2965E+02  0.3799E+03  0.3791E+03
      3.451  0.2813E+02  0.2699E+02  0.3818E+03  0.3809E+03
      3.520  0.4425E+02  0.3087E+02  0.3849E+03  0.3831E+03
      3.588  0.1913E+02  0.3680E+02  0.3862E+03  0.3856E+03
      3.657  0.2966E+02  0.2335E+02  0.3882E+03  0.3872E+03
      3.726  0.1567E+02  0.2495E+02  0.3893E+03  0.3890E+03
      3.795  0.3196E+02  0.2353E+02  0.3915E+03  0.3906E+03
      3.864  0.2388E+02  0.3364E+02  0.3932E+03  0.3929E+03
      3.933  0.1689E+02  0.1685E+02  0.3943E+03  0.3941E+03
      4.002  0.1003E+02  0.1024E+02  0.3950E+03  0.3948E+03
      4.071  0.6779E+01  0.1045E+02  0.3955E+03  0.3955E+03
      4.139  0.8587E+01  0.5265E+01  0.3961E+03  0.3959E+03
      4.208  0.1131E+02  0.1130E+02  0.3969E+03  0.3966E+03
      4.277  0.8626E+01  0.1070E+02  0.3975E+03  0.3974E+03
      4.346  0.5994E+01  0.6676E+01  0.3979E+03  0.3978E+03
      4.415  0.1293E+02  0.1312E+02  0.3988E+03  0.3987E+03
      4.484  0.3401E+02  0.3244E+02  0.4011E+03  0.4010E+03
      4.553  0.1274E+02  0.1136E+02  0.4020E+03  0.4018E+03
      4.622  0.3439E+02  0.3477E+02  0.4044E+03  0.4042E+03
      4.690  0.1575E+02  0.1677E+02  0.4055E+03  0.4053E+03
      4.759  0.4034E+02  0.3659E+02  0.4082E+03  0.4079E+03
      4.828  0.4400E+02  0.4599E+02  0.4113E+03  0.4110E+03
      4.897  0.2319E+02  0.2334E+02  0.4129E+03  0.4126E+03
      4.966  0.3977E+02  0.3812E+02  0.4156E+03  0.4153E+03
      5.035  0.3099E+02  0.3297E+02  0.4178E+03  0.4176E+03
      5.104  0.1834E+02  0.2104E+02  0.4190E+03  0.4190E+03
      5.173  0.4436E+02  0.3767E+02  0.4221E+03  0.4216E+03
      5.241  0.5383E+02  0.5588E+02  0.4258E+03  0.4255E+03
      5.310  0.4853E+02  0.4875E+02  0.4292E+03  0.4288E+03
      5.379  0.5754E+02  0.5451E+02  0.4331E+03  0.4326E+03
      5.448  0.5530E+02  0.5459E+02  0.4370E+03  0.4363E+03
      5.517  0.6051E+02  0.6325E+02  0.4411E+03  0.4407E+03
      5.586  0.4367E+02  0.4587E+02  0.4441E+03  0.4439E+03
      5.655  0.6031E+02  0.6266E+02  0.4483E+03  0.4482E+03
      5.724  0.4189E+02  0.3402E+02  0.4512E+03  0.4506E+03
      5.792  0.6378E+02  0.6746E+02  0.4556E+03  0.4552E+03
      5.861  0.4488E+02  0.4115E+02  0.4587E+03  0.4581E+03
      5.930  0.3698E+02  0.4354E+02  0.4613E+03  0.4611E+03
      5.999  0.2329E+02  0.2691E+02  0.4629E+03  0.4629E+03
      6.068  0.1381E+02  0.1182E+02  0.4638E+03  0.4637E+03
      6.137  0.2671E+01  0.3689E+01  0.4640E+03  0.4640E+03
      6.206  0.0000E+00  0.0000E+00  0.4640E+03  0.4640E+03
      6.275  0.0000E+00  0.0000E+00  0.4640E+03  0.4640E+03
      6.343  0.0000E+00  0.0000E+00  0.4640E+03  0.4640E+03
      6.412  0.0000E+00  0.0000E+00  0.4640E+03  0.4640E+03
      6.481  0.0000E+00  0.0000E+00  0.4640E+03  0.4640E+03
      6.550  0.0000E+00  0.0000E+00  0.4640E+03  0.4640E+03
      6.619  0.0000E+00  0.0000E+00  0.4640E+03  0.4640E+03
      6.688  0.0000E+00  0.0000E+00  0.4640E+03  0.4640E+03
      6.757  0.0000E+00  0.0000E+00  0.4640E+03  0.4640E+03
      6.825  0.0000E+00  0.0000E+00  0.4640E+03  0.4640E+03
      6.894  0.0000E+00  0.0000E+00  0.4640E+03  0.4640E+03
      6.963  0.0000E+00  0.0000E+00  0.4640E+03  0.4640E+03
      7.032  0.0000E+00  0.0000E+00  0.4640E+03  0.4640E+03
