       N       E                     dE             d eps       ncg     rms          rms(c)
DAV:   1     0.206894429371E+04    0.20689E+04   -0.16848E+05 18560   0.171E+03
DAV:   2    -0.679596516822E+02   -0.21369E+04   -0.20654E+04 21712   0.213E+02
DAV:   3    -0.288872782308E+03   -0.22091E+03   -0.21385E+03 22648   0.651E+01
DAV:   4    -0.297103820556E+03   -0.82310E+01   -0.80920E+01 22128   0.122E+01
DAV:   5    -0.297431361184E+03   -0.32754E+00   -0.32593E+00 24592   0.210E+00    0.237E+01
DAV:   6    -0.291481365869E+03    0.59500E+01   -0.15989E+01 21784   0.648E+00    0.117E+01
DAV:   7    -0.291872701773E+03   -0.39134E+00   -0.16985E+01 22952   0.780E+00    0.682E+00
DAV:   8    -0.289129975570E+03    0.27427E+01   -0.79869E+00 22912   0.489E+00    0.104E+00
DAV:   9    -0.289266429563E+03   -0.13645E+00   -0.14323E+00 21384   0.165E+00    0.955E-01
DAV:  10    -0.289257557208E+03    0.88724E-02   -0.12826E-01 21000   0.610E-01    0.529E-01
DAV:  11    -0.289253088437E+03    0.44688E-02   -0.37957E-02 21824   0.370E-01    0.277E-01
DAV:  12    -0.289256852518E+03   -0.37641E-02   -0.90289E-03 21744   0.139E-01    0.186E-01
DAV:  13    -0.289256297756E+03    0.55476E-03   -0.17576E-03 21624   0.786E-02    0.106E-01
DAV:  14    -0.289256246990E+03    0.50766E-04   -0.10552E-03 21944   0.490E-02    0.468E-02
DAV:  15    -0.289256298846E+03   -0.51856E-04   -0.27554E-04 22432   0.270E-02    0.242E-02
DAV:  16    -0.289256315923E+03   -0.17077E-04   -0.41255E-05 21864   0.125E-02    0.167E-02
DAV:  17    -0.289256330273E+03   -0.14350E-04   -0.11387E-05 22496   0.628E-03    0.117E-02
DAV:  18    -0.289256334613E+03   -0.43400E-05   -0.69827E-06 21176   0.493E-03    0.635E-03
DAV:  19    -0.289256334812E+03   -0.19869E-06   -0.37381E-06 22624   0.309E-03    0.277E-03
DAV:  20    -0.289256334859E+03   -0.47236E-07   -0.95987E-07 21816   0.177E-03
   1 F= -.28925633E+03 E0= -.28925558E+03  d E =-.150135E-02  mag=     1.0000
