 168 168   0   0
  0.2680331E+02  0.1600268E-08  0.1600268E-08  0.2030401E-08  0.5000000E-15
  1.000000000000000E-004
  CAR 
 Si and Ge interface calculation         
      6.59534931     -9.48693636  301      3.63445079      1.00000000
     -9.487  0.0000E+00  0.0000E+00  0.0000E+00  0.0000E+00
     -9.433  0.0000E+00  0.0000E+00  0.0000E+00  0.0000E+00
     -9.380  0.0000E+00  0.0000E+00  0.0000E+00  0.0000E+00
     -9.326  0.0000E+00  0.0000E+00  0.0000E+00  0.0000E+00
     -9.273  0.0000E+00  0.0000E+00  0.0000E+00  0.0000E+00
     -9.219  0.0000E+00  0.0000E+00  0.0000E+00  0.0000E+00
     -9.165  0.0000E+00  0.0000E+00  0.0000E+00  0.0000E+00
     -9.112  0.0000E+00  0.0000E+00  0.0000E+00  0.0000E+00
     -9.058  0.0000E+00  0.0000E+00  0.0000E+00  0.0000E+00
     -9.004  0.0000E+00  0.0000E+00  0.0000E+00  0.0000E+00
     -8.951  0.0000E+00  0.0000E+00  0.0000E+00  0.0000E+00
     -8.897  0.0000E+00  0.0000E+00  0.0000E+00  0.0000E+00
     -8.844  0.0000E+00  0.0000E+00  0.0000E+00  0.0000E+00
     -8.790  0.5973E-05  0.1391E-06  0.3202E-06  0.7454E-08
     -8.736  0.9298E+01  0.9133E+01  0.4985E+00  0.4896E+00
     -8.683  0.2890E-01  0.1941E+00  0.5000E+00  0.5000E+00
     -8.629  0.2217E-07  0.2177E-09  0.5000E+00  0.5000E+00
     -8.576  0.5172E+02  0.4307E+02  0.3272E+01  0.2809E+01
     -8.522  0.4245E+01  0.1290E+02  0.3500E+01  0.3500E+01
     -8.468  0.0000E+00  0.0000E+00  0.3500E+01  0.3500E+01
     -8.415  0.0000E+00  0.0000E+00  0.3500E+01  0.3500E+01
     -8.361  0.7192E-02  0.3017E-03  0.3500E+01  0.3500E+01
     -8.308  0.9320E+01  0.9325E+01  0.4000E+01  0.4000E+01
     -8.254  0.2015E+02  0.8312E+01  0.5080E+01  0.4445E+01
     -8.200  0.3581E+02  0.4765E+02  0.7000E+01  0.7000E+01
     -8.147  0.5586E+02  0.5491E+02  0.9994E+01  0.9944E+01
     -8.093  0.2492E+02  0.2137E+02  0.1133E+02  0.1109E+02
     -8.040  0.3115E+02  0.3564E+02  0.1300E+02  0.1300E+02
     -7.986  0.0000E+00  0.0000E+00  0.1300E+02  0.1300E+02
     -7.932  0.0000E+00  0.0000E+00  0.1300E+02  0.1300E+02
     -7.879  0.6446E-08  0.3102E-10  0.1300E+02  0.1300E+02
     -7.825  0.4968E+02  0.3746E+02  0.1566E+02  0.1501E+02
     -7.771  0.6280E+01  0.1850E+02  0.1600E+02  0.1600E+02
     -7.718  0.9205E-04  0.9211E-05  0.1600E+02  0.1600E+02
     -7.664  0.2809E+02  0.2752E+02  0.1751E+02  0.1748E+02
     -7.611  0.8204E+02  0.7638E+02  0.2190E+02  0.2157E+02
     -7.557  0.5776E+02  0.6398E+02  0.2500E+02  0.2500E+02
     -7.503  0.7898E+01  0.6463E+01  0.2542E+02  0.2535E+02
     -7.450  0.1429E+01  0.2864E+01  0.2550E+02  0.2550E+02
     -7.396  0.3601E-09  0.1351E-10  0.2550E+02  0.2550E+02
     -7.343  0.3551E+02  0.2603E+02  0.2740E+02  0.2690E+02
     -7.289  0.7641E+02  0.8587E+02  0.3150E+02  0.3150E+02
     -7.235  0.2701E-01  0.2000E-01  0.3150E+02  0.3150E+02
     -7.182  0.6048E+02  0.5631E+02  0.3474E+02  0.3452E+02
     -7.128  0.5142E+02  0.5561E+02  0.3750E+02  0.3750E+02
     -7.075  0.0000E+00  0.0000E+00  0.3750E+02  0.3750E+02
     -7.021  0.4183E-01  0.4079E-02  0.3750E+02  0.3750E+02
     -6.967  0.5592E+02  0.5592E+02  0.4050E+02  0.4050E+02
     -6.914  0.8078E+02  0.7391E+02  0.4483E+02  0.4446E+02
     -6.860  0.2192E+02  0.2101E+02  0.4601E+02  0.4559E+02
     -6.807  0.9593E+02  0.1013E+03  0.5115E+02  0.5101E+02
     -6.753  0.3064E+02  0.2997E+02  0.5279E+02  0.5262E+02
     -6.699  0.6920E+02  0.7236E+02  0.5650E+02  0.5650E+02
     -6.646  0.7219E+01  0.3791E+01  0.5689E+02  0.5670E+02
     -6.592  0.1141E+02  0.1038E+02  0.5750E+02  0.5726E+02
     -6.539  0.3046E+02  0.3097E+02  0.5913E+02  0.5892E+02
     -6.485  0.5002E+02  0.5322E+02  0.6181E+02  0.6177E+02
     -6.431  0.2212E+02  0.2260E+02  0.6300E+02  0.6299E+02
     -6.378  0.8624E+02  0.7844E+02  0.6762E+02  0.6719E+02
     -6.324  0.1147E+03  0.1045E+03  0.7377E+02  0.7279E+02
     -6.270  0.5094E+02  0.6916E+02  0.7650E+02  0.7650E+02
     -6.217  0.1557E+02  0.1111E+02  0.7733E+02  0.7710E+02
     -6.163  0.4975E+02  0.5418E+02  0.8000E+02  0.8000E+02
     -6.110  0.4637E+01  0.4659E+01  0.8025E+02  0.8025E+02
     -6.056  0.7186E+02  0.6527E+02  0.8410E+02  0.8375E+02
     -6.002  0.1227E+02  0.1871E+02  0.8476E+02  0.8475E+02
     -5.949  0.9356E+02  0.7398E+02  0.8978E+02  0.8872E+02
     -5.895  0.3686E+02  0.5656E+02  0.9175E+02  0.9175E+02
     -5.842  0.2863E+02  0.2605E+02  0.9329E+02  0.9315E+02
     -5.788  0.7113E+02  0.6403E+02  0.9710E+02  0.9658E+02
     -5.734  0.7276E+02  0.8247E+02  0.1010E+03  0.1010E+03
     -5.681  0.1611E+02  0.9256E+01  0.1019E+03  0.1015E+03
     -5.627  0.1187E+02  0.1873E+02  0.1025E+03  0.1025E+03
     -5.574  0.3383E+01  0.7794E+00  0.1027E+03  0.1025E+03
     -5.520  0.8597E+02  0.7505E+02  0.1073E+03  0.1066E+03
     -5.466  0.6601E+02  0.6899E+02  0.1108E+03  0.1103E+03
     -5.413  0.6677E+02  0.7193E+02  0.1144E+03  0.1141E+03
     -5.359  0.2404E+02  0.2699E+02  0.1157E+03  0.1156E+03
     -5.306  0.7662E+02  0.7181E+02  0.1198E+03  0.1194E+03
     -5.252  0.6098E+02  0.6732E+02  0.1231E+03  0.1230E+03
     -5.198  0.2662E+02  0.2753E+02  0.1245E+03  0.1245E+03
     -5.145  0.5555E+02  0.5258E+02  0.1275E+03  0.1273E+03
     -5.091  0.5505E+02  0.5229E+02  0.1304E+03  0.1301E+03
     -5.038  0.3673E+02  0.3935E+02  0.1324E+03  0.1322E+03
     -4.984  0.7153E+02  0.6052E+02  0.1362E+03  0.1355E+03
     -4.930  0.6577E+02  0.7417E+02  0.1398E+03  0.1395E+03
     -4.877  0.6250E+02  0.5914E+02  0.1431E+03  0.1426E+03
     -4.823  0.7692E+02  0.8120E+02  0.1472E+03  0.1470E+03
     -4.769  0.9212E+02  0.9353E+02  0.1522E+03  0.1520E+03
     -4.716  0.3726E+02  0.3509E+02  0.1542E+03  0.1539E+03
     -4.662  0.3427E+02  0.3974E+02  0.1560E+03  0.1560E+03
     -4.609  0.4185E+02  0.4185E+02  0.1582E+03  0.1582E+03
     -4.555  0.3172E+02  0.2732E+02  0.1599E+03  0.1597E+03
     -4.501  0.2640E+02  0.2968E+02  0.1614E+03  0.1613E+03
     -4.448  0.2800E+02  0.2421E+02  0.1629E+03  0.1626E+03
     -4.394  0.4268E+02  0.4238E+02  0.1652E+03  0.1649E+03
     -4.341  0.1024E+03  0.1025E+03  0.1706E+03  0.1704E+03
     -4.287  0.3173E+02  0.2876E+02  0.1723E+03  0.1719E+03
     -4.233  0.4853E+02  0.5141E+02  0.1749E+03  0.1747E+03
     -4.180  0.3834E+02  0.4358E+02  0.1770E+03  0.1770E+03
     -4.126  0.2463E+02  0.1843E+02  0.1783E+03  0.1780E+03
     -4.073  0.5758E+02  0.5344E+02  0.1814E+03  0.1809E+03
     -4.019  0.2971E+02  0.4005E+02  0.1830E+03  0.1830E+03
     -3.965  0.1388E+02  0.1361E+02  0.1837E+03  0.1837E+03
     -3.912  0.2776E+02  0.2704E+02  0.1852E+03  0.1852E+03
     -3.858  0.5698E+02  0.5575E+02  0.1883E+03  0.1882E+03
     -3.805  0.6262E+02  0.5990E+02  0.1916E+03  0.1914E+03
     -3.751  0.4879E+02  0.4261E+02  0.1943E+03  0.1937E+03
     -3.697  0.6318E+02  0.6328E+02  0.1976E+03  0.1971E+03
     -3.644  0.6170E+02  0.5751E+02  0.2010E+03  0.2001E+03
     -3.590  0.2418E+02  0.3939E+02  0.2023E+03  0.2023E+03
     -3.536  0.4963E+02  0.4195E+02  0.2049E+03  0.2045E+03
     -3.483  0.6914E+02  0.6875E+02  0.2086E+03  0.2082E+03
     -3.429  0.6230E+02  0.6824E+02  0.2120E+03  0.2118E+03
     -3.376  0.2105E+01  0.3239E+01  0.2121E+03  0.2120E+03
     -3.322  0.5465E+02  0.5556E+02  0.2150E+03  0.2150E+03
     -3.268  0.1426E+02  0.1153E+02  0.2158E+03  0.2156E+03
     -3.215  0.9366E+02  0.9565E+02  0.2208E+03  0.2207E+03
     -3.161  0.9771E+02  0.8367E+02  0.2260E+03  0.2252E+03
     -3.108  0.4136E+02  0.5576E+02  0.2282E+03  0.2282E+03
     -3.054  0.2072E+02  0.1138E+02  0.2294E+03  0.2288E+03
     -3.000  0.9515E+02  0.1011E+03  0.2345E+03  0.2342E+03
     -2.947  0.7563E+02  0.7927E+02  0.2385E+03  0.2385E+03
     -2.893  0.9263E+02  0.9190E+02  0.2435E+03  0.2434E+03
     -2.840  0.2730E+02  0.2544E+02  0.2449E+03  0.2448E+03
     -2.786  0.3559E+02  0.3507E+02  0.2468E+03  0.2467E+03
     -2.732  0.8365E+02  0.7767E+02  0.2513E+03  0.2508E+03
     -2.679  0.4460E+02  0.5144E+02  0.2537E+03  0.2536E+03
     -2.625  0.4724E+02  0.4973E+02  0.2562E+03  0.2562E+03
     -2.572  0.1479E-03  0.9922E-05  0.2563E+03  0.2563E+03
     -2.518  0.7705E+02  0.6903E+02  0.2604E+03  0.2600E+03
     -2.464  0.3291E+02  0.3827E+02  0.2621E+03  0.2620E+03
     -2.411  0.6284E+02  0.5769E+02  0.2655E+03  0.2651E+03
     -2.357  0.4954E+02  0.5089E+02  0.2682E+03  0.2678E+03
     -2.304  0.1107E+03  0.1035E+03  0.2741E+03  0.2734E+03
     -2.250  0.2135E+02  0.3502E+02  0.2753E+03  0.2753E+03
     -2.196  0.5580E+02  0.5538E+02  0.2782E+03  0.2782E+03
     -2.143  0.2781E+02  0.2751E+02  0.2797E+03  0.2797E+03
     -2.089  0.8105E+01  0.6669E+01  0.2802E+03  0.2801E+03
     -2.035  0.3420E+02  0.3636E+02  0.2820E+03  0.2820E+03
     -1.982  0.2662E+00  0.6329E-01  0.2820E+03  0.2820E+03
     -1.928  0.5570E+02  0.5590E+02  0.2850E+03  0.2850E+03
     -1.875  0.4197E+02  0.3909E+02  0.2873E+03  0.2871E+03
     -1.821  0.5595E+02  0.5879E+02  0.2902E+03  0.2902E+03
     -1.767  0.5241E+02  0.4609E+02  0.2931E+03  0.2927E+03
     -1.714  0.3608E+01  0.9931E+01  0.2933E+03  0.2933E+03
     -1.660  0.5316E+02  0.4432E+02  0.2961E+03  0.2956E+03
     -1.607  0.9198E+02  0.1002E+03  0.3010E+03  0.3010E+03
     -1.553  0.6697E+02  0.6548E+02  0.3046E+03  0.3045E+03
     -1.499  0.7008E+01  0.9149E+01  0.3050E+03  0.3050E+03
     -1.446  0.6251E+01  0.3524E+01  0.3053E+03  0.3052E+03
     -1.392  0.3533E+02  0.3739E+02  0.3072E+03  0.3072E+03
     -1.339  0.4020E+00  0.1125E+01  0.3072E+03  0.3072E+03
     -1.285  0.7768E-02  0.1225E-03  0.3073E+03  0.3073E+03
     -1.231  0.2799E+02  0.2796E+02  0.3088E+03  0.3087E+03
     -1.178  0.2797E+02  0.2800E+02  0.3102E+03  0.3102E+03
     -1.124  0.0000E+00  0.1298E-02  0.3102E+03  0.3102E+03
     -1.071  0.2258E+01  0.4123E+00  0.3104E+03  0.3103E+03
     -1.017  0.2572E+02  0.2757E+02  0.3117E+03  0.3117E+03
     -0.963  0.0000E+00  0.0000E+00  0.3118E+03  0.3118E+03
     -0.910  0.4694E-07  0.1532E-08  0.3118E+03  0.3118E+03
     -0.856  0.1451E+02  0.1083E+02  0.3125E+03  0.3123E+03
     -0.803  0.4096E+02  0.3686E+02  0.3147E+03  0.3143E+03
     -0.749  0.3737E+02  0.4235E+02  0.3167E+03  0.3166E+03
     -0.695  0.2280E+02  0.2297E+02  0.3179E+03  0.3178E+03
     -0.642  0.5961E+02  0.5794E+02  0.3211E+03  0.3209E+03
     -0.588  0.3326E+02  0.2949E+02  0.3229E+03  0.3225E+03
     -0.534  0.1534E+02  0.2339E+02  0.3237E+03  0.3237E+03
     -0.481  0.0000E+00  0.0000E+00  0.3238E+03  0.3238E+03
     -0.427  0.5842E-02  0.9109E-03  0.3238E+03  0.3238E+03
     -0.374  0.5531E+01  0.4833E+01  0.3240E+03  0.3240E+03
     -0.320  0.5961E+02  0.5982E+02  0.3272E+03  0.3272E+03
     -0.266  0.9858E+02  0.7621E+02  0.3325E+03  0.3313E+03
     -0.213  0.1275E+03  0.1380E+03  0.3394E+03  0.3387E+03
     -0.159  0.3398E+02  0.4069E+02  0.3412E+03  0.3409E+03
     -0.106  0.1130E+03  0.1144E+03  0.3472E+03  0.3470E+03
     -0.052  0.9062E+02  0.8252E+02  0.3521E+03  0.3514E+03
      0.002  0.1030E+03  0.1015E+03  0.3576E+03  0.3569E+03
      0.055  0.5324E+02  0.6506E+02  0.3605E+03  0.3604E+03
      0.109  0.2825E+02  0.2272E+02  0.3620E+03  0.3616E+03
      0.162  0.5667E+02  0.6375E+02  0.3650E+03  0.3650E+03
      0.216  0.1175E+03  0.1037E+03  0.3713E+03  0.3706E+03
      0.270  0.1317E+03  0.1346E+03  0.3784E+03  0.3778E+03
      0.323  0.1129E+03  0.9831E+02  0.3844E+03  0.3830E+03
      0.377  0.7893E+02  0.9723E+02  0.3887E+03  0.3883E+03
      0.430  0.9847E+02  0.8671E+02  0.3940E+03  0.3929E+03
      0.484  0.1222E+03  0.1327E+03  0.4005E+03  0.4000E+03
      0.538  0.4644E+02  0.5495E+02  0.4030E+03  0.4030E+03
      0.591  0.6476E+02  0.5062E+02  0.4065E+03  0.4057E+03
      0.645  0.3695E+02  0.4339E+02  0.4084E+03  0.4080E+03
      0.699  0.5136E+02  0.5157E+02  0.4112E+03  0.4108E+03
      0.752  0.1133E+03  0.1135E+03  0.4173E+03  0.4169E+03
      0.806  0.1063E+03  0.9969E+02  0.4230E+03  0.4222E+03
      0.859  0.1248E+03  0.1312E+03  0.4297E+03  0.4292E+03
      0.913  0.1713E+03  0.1656E+03  0.4389E+03  0.4381E+03
      0.967  0.1184E+03  0.1230E+03  0.4452E+03  0.4447E+03
      1.020  0.1203E+03  0.1191E+03  0.4516E+03  0.4511E+03
      1.074  0.8664E+02  0.8704E+02  0.4563E+03  0.4558E+03
      1.127  0.1444E+03  0.1427E+03  0.4640E+03  0.4634E+03
      1.181  0.7264E+02  0.6922E+02  0.4679E+03  0.4671E+03
      1.235  0.1332E+03  0.1314E+03  0.4751E+03  0.4742E+03
      1.288  0.1052E+03  0.1084E+03  0.4807E+03  0.4800E+03
      1.342  0.1009E+03  0.1043E+03  0.4861E+03  0.4856E+03
      1.395  0.1090E+03  0.1061E+03  0.4920E+03  0.4912E+03
      1.449  0.8593E+02  0.9329E+02  0.4966E+03  0.4962E+03
      1.503  0.1462E+03  0.1364E+03  0.5044E+03  0.5036E+03
      1.556  0.1598E+03  0.1645E+03  0.5130E+03  0.5124E+03
      1.610  0.1060E+03  0.1048E+03  0.5187E+03  0.5180E+03
      1.663  0.1131E+03  0.1227E+03  0.5247E+03  0.5246E+03
      1.717  0.1134E+03  0.9549E+02  0.5308E+03  0.5297E+03
      1.771  0.1090E+03  0.1167E+03  0.5366E+03  0.5360E+03
      1.824  0.8805E+02  0.9088E+02  0.5414E+03  0.5408E+03
      1.878  0.9873E+02  0.1025E+03  0.5467E+03  0.5463E+03
      1.931  0.8433E+02  0.8025E+02  0.5512E+03  0.5506E+03
      1.985  0.8160E+02  0.8594E+02  0.5555E+03  0.5552E+03
      2.039  0.7082E+02  0.7264E+02  0.5593E+03  0.5591E+03
      2.092  0.7868E+02  0.7802E+02  0.5636E+03  0.5633E+03
      2.146  0.1559E+03  0.1496E+03  0.5719E+03  0.5713E+03
      2.200  0.8107E+02  0.7762E+02  0.5763E+03  0.5755E+03
      2.253  0.1009E+03  0.1106E+03  0.5817E+03  0.5814E+03
      2.307  0.9989E+02  0.9715E+02  0.5870E+03  0.5866E+03
      2.360  0.5141E+02  0.5581E+02  0.5898E+03  0.5896E+03
      2.414  0.9773E+02  0.8732E+02  0.5950E+03  0.5943E+03
      2.468  0.6623E+02  0.7456E+02  0.5986E+03  0.5983E+03
      2.521  0.7240E+02  0.6745E+02  0.6025E+03  0.6019E+03
      2.575  0.4984E+02  0.5579E+02  0.6051E+03  0.6049E+03
      2.628  0.8703E+02  0.8570E+02  0.6098E+03  0.6095E+03
      2.682  0.1230E+03  0.1162E+03  0.6164E+03  0.6157E+03
      2.736  0.5511E+02  0.6581E+02  0.6193E+03  0.6193E+03
      2.789  0.9099E+02  0.8306E+02  0.6242E+03  0.6237E+03
      2.843  0.7038E+02  0.7551E+02  0.6280E+03  0.6278E+03
      2.896  0.7129E+02  0.7325E+02  0.6318E+03  0.6317E+03
      2.950  0.1757E+02  0.1986E+02  0.6327E+03  0.6327E+03
      3.004  0.4190E+02  0.3243E+02  0.6350E+03  0.6345E+03
      3.057  0.8399E+02  0.9106E+02  0.6395E+03  0.6394E+03
      3.111  0.1756E+02  0.1658E+02  0.6404E+03  0.6403E+03
      3.164  0.9946E+02  0.8688E+02  0.6458E+03  0.6449E+03
      3.218  0.7147E+02  0.8179E+02  0.6496E+03  0.6493E+03
      3.272  0.2943E+02  0.2571E+02  0.6512E+03  0.6507E+03
      3.325  0.8107E+02  0.6450E+02  0.6555E+03  0.6541E+03
      3.379  0.6584E+02  0.8829E+02  0.6591E+03  0.6589E+03
      3.432  0.3942E+02  0.3215E+02  0.6612E+03  0.6606E+03
      3.486  0.4859E+02  0.5812E+02  0.6638E+03  0.6637E+03
      3.540  0.3489E+02  0.2877E+02  0.6656E+03  0.6652E+03
      3.593  0.6647E+02  0.5326E+02  0.6692E+03  0.6681E+03
      3.647  0.6010E+02  0.7211E+02  0.6724E+03  0.6720E+03
      3.701  0.4166E+02  0.2475E+02  0.6747E+03  0.6733E+03
      3.754  0.4449E+01  0.2711E+02  0.6749E+03  0.6748E+03
      3.808  0.4276E+02  0.4355E+02  0.6772E+03  0.6771E+03
      3.861  0.2157E+02  0.5880E+01  0.6784E+03  0.6774E+03
      3.915  0.1211E+02  0.2983E+02  0.6790E+03  0.6790E+03
      3.969  0.8299E+01  0.6804E+01  0.6794E+03  0.6794E+03
      4.022  0.6091E+02  0.5678E+02  0.6827E+03  0.6824E+03
      4.076  0.3855E+01  0.7199E+01  0.6829E+03  0.6828E+03
      4.129  0.5741E+02  0.5389E+02  0.6860E+03  0.6857E+03
      4.183  0.7456E+02  0.7962E+02  0.6900E+03  0.6900E+03
      4.237  0.9781E+01  0.6792E+01  0.6905E+03  0.6903E+03
      4.290  0.6404E+02  0.6054E+02  0.6939E+03  0.6936E+03
      4.344  0.2449E+02  0.2882E+02  0.6953E+03  0.6951E+03
      4.397  0.4832E+02  0.4563E+02  0.6979E+03  0.6976E+03
      4.451  0.9759E+01  0.1359E+02  0.6984E+03  0.6983E+03
      4.505  0.6191E+02  0.4984E+02  0.7017E+03  0.7010E+03
      4.558  0.9226E+02  0.1016E+03  0.7066E+03  0.7064E+03
      4.612  0.3323E+01  0.6802E+01  0.7068E+03  0.7068E+03
      4.665  0.6915E+02  0.6475E+02  0.7105E+03  0.7102E+03
      4.719  0.8557E+02  0.7999E+02  0.7151E+03  0.7145E+03
      4.773  0.1037E+03  0.1096E+03  0.7207E+03  0.7204E+03
      4.826  0.6968E+02  0.6789E+02  0.7244E+03  0.7240E+03
      4.880  0.5099E+02  0.5587E+02  0.7271E+03  0.7270E+03
      4.934  0.3126E+02  0.3222E+02  0.7288E+03  0.7288E+03
      4.987  0.5964E+02  0.5892E+02  0.7320E+03  0.7319E+03
      5.041  0.6693E+02  0.6470E+02  0.7356E+03  0.7354E+03
      5.094  0.6241E+02  0.5992E+02  0.7389E+03  0.7386E+03
      5.148  0.1038E+03  0.1000E+03  0.7445E+03  0.7440E+03
      5.202  0.1259E+03  0.1353E+03  0.7513E+03  0.7512E+03
      5.255  0.6773E+02  0.4864E+02  0.7549E+03  0.7538E+03
      5.309  0.8739E+02  0.1017E+03  0.7596E+03  0.7593E+03
      5.362  0.8417E+02  0.8403E+02  0.7641E+03  0.7638E+03
      5.416  0.7786E+02  0.8255E+02  0.7683E+03  0.7682E+03
      5.470  0.9115E+02  0.7692E+02  0.7732E+03  0.7723E+03
      5.523  0.8601E+02  0.8461E+02  0.7778E+03  0.7769E+03
      5.577  0.9441E+02  0.1058E+03  0.7828E+03  0.7825E+03
      5.630  0.1004E+03  0.9764E+02  0.7882E+03  0.7878E+03
      5.684  0.9006E+02  0.8846E+02  0.7930E+03  0.7925E+03
      5.738  0.1183E+03  0.1134E+03  0.7994E+03  0.7986E+03
      5.791  0.7685E+02  0.8362E+02  0.8035E+03  0.8031E+03
      5.845  0.7126E+02  0.8172E+02  0.8073E+03  0.8075E+03
      5.898  0.1273E+02  0.1011E+02  0.8080E+03  0.8080E+03
      5.952  0.0000E+00  0.0000E+00  0.8080E+03  0.8080E+03
      6.006  0.0000E+00  0.0000E+00  0.8080E+03  0.8080E+03
      6.059  0.0000E+00  0.0000E+00  0.8080E+03  0.8080E+03
      6.113  0.0000E+00  0.0000E+00  0.8080E+03  0.8080E+03
      6.166  0.0000E+00  0.0000E+00  0.8080E+03  0.8080E+03
      6.220  0.0000E+00  0.0000E+00  0.8080E+03  0.8080E+03
      6.274  0.0000E+00  0.0000E+00  0.8080E+03  0.8080E+03
      6.327  0.0000E+00  0.0000E+00  0.8080E+03  0.8080E+03
      6.381  0.0000E+00  0.0000E+00  0.8080E+03  0.8080E+03
      6.435  0.0000E+00  0.0000E+00  0.8080E+03  0.8080E+03
      6.488  0.0000E+00  0.0000E+00  0.8080E+03  0.8080E+03
      6.542  0.0000E+00  0.0000E+00  0.8080E+03  0.8080E+03
      6.595  0.0000E+00  0.0000E+00  0.8080E+03  0.8080E+03
