 vasp.6.4.3 19Mar24 (build Oct 22 2024 11:23:12) complex                        
  
 executed on             LinuxIFC date 2025.06.09  00:43:47
 running   64 mpi-ranks, on    4 nodes
 distrk:  each k-point on   64 cores,    1 groups
 distr:  one band on NCORE=  16 cores,    4 groups


--------------------------------------------------------------------------------------------------------


 INCAR:
   SYSTEM = Si and Ge interface calculation
   ISTART = 0
   ICHARG = 2
   LWAVE = .FALSE.
   LREAL = AUTO
   ENCUT = 700
   ENAUG = 900
   ADDGRID = .TRUE.
   LMAXMIX = 6
   LASPH = .TRUE.
   LMIXTAU = .TRUE.
   NCORE = 16
   NELM = 100
   NBANDS = 404
   EDIFF = 1d-7
   AMIX = 0.6
   ISMEAR = 0
   SIGMA = 0.01
   NELECT = 672
   ISPIN = 2
   NUPDOWN = 1
   LVTOT = .FALSE.
   LVHAR = .TRUE.

 POTCAR:    PAW_PBE Ge 05Jan2001                  
 POTCAR:    PAW_PBE Sn 08Apr2002                  
 -----------------------------------------------------------------------------
|                                                                             |
|           W    W    AA    RRRRR   N    N  II  N    N   GGGG   !!!           |
|           W    W   A  A   R    R  NN   N  II  NN   N  G    G  !!!           |
|           W    W  A    A  R    R  N N  N  II  N N  N  G       !!!           |
|           W WW W  AAAAAA  RRRRR   N  N N  II  N  N N  G  GGG   !            |
|           WW  WW  A    A  R   R   N   NN  II  N   NN  G    G                |
|           W    W  A    A  R    R  N    N  II  N    N   GGGG   !!!           |
|                                                                             |
|     You use a magnetic or noncollinear calculation, but did not specify     |
|     the initial magnetic moment with the MAGMOM tag. Note that a            |
|     default of 5.952e-3 will be used for all atoms. This ferromagnetic      |
|     setup may break the symmetry of the crystal, in particular it may       |
|     rule out finding an antiferromagnetic solution. Thence, we              |
|     recommend setting the initial magnetic moment manually or verifying     |
|     carefully that this magnetic setup is desired.                          |
|                                                                             |
 -----------------------------------------------------------------------------

 POTCAR:    PAW_PBE Ge 05Jan2001                  
   VRHFIN =Ge: s2p2                                                                                 
   LEXCH  = PE                                                                                      
   EATOM  =   104.9960 eV,    7.7170 Ry                                                             
                                                                                                    
   TITEL  = PAW_PBE Ge 05Jan2001                                                                    
   LULTRA =        F    use ultrasoft PP ?                                                          
   IUNSCR =        1    unscreen: 0-lin 1-nonlin 2-no                                               
   RPACOR =    2.170    partial core radius                                                         
   POMASS =   72.610; ZVAL   =    4.000    mass and valenz                                          
   RCORE  =    2.300    outmost cutoff radius                                                       
   RWIGS  =    2.300; RWIGS  =    1.217    wigner-seitz radius (au A)                               
   ENMAX  =  173.807; ENMIN  =  130.355 eV                                                          
   ICORE  =        3    local potential                                                             
   LCOR   =        T    correct aug charges                                                         
   LPAW   =        T    paw PP                                                                      
   EAUG   =  385.843                                                                                
   DEXC   =    0.000                                                                                
   RMAX   =    2.342    core radius for proj-oper                                                   
   RAUG   =    1.300    factor for augmentation sphere                                              
   RDEP   =    2.318    radius for radial grids                                                     
   RDEPT  =    2.103    core radius for aug-charge                                                  
                                                                                                    
   Atomic configuration                                                                             
   10 entries                                                                                       
     n  l   j            E        occ.                                                              
     1  0  0.50    -10959.8463   2.0000                                                             
     2  0  0.50     -1371.6056   2.0000                                                             
     2  1  1.50     -1198.4791   6.0000                                                             
     3  0  0.50      -168.4733   2.0000                                                             
     3  1  1.50      -115.6019   6.0000                                                             
     3  2  2.50       -29.3106  10.0000                                                             
     4  0  0.50       -11.7309   2.0000                                                             
     4  1  0.50        -3.8952   2.0000                                                             
     4  2  1.50        -4.0817   0.0000                                                             
     4  3  2.50        -4.0817   0.0000                                                             
   Description                                                                                      
     l       E           TYP  RCUT    TYP  RCUT                                                     
     0    -11.7309493     23  2.300                                                                 
     0     -7.4578696     23  2.300                                                                 
     1     -3.8952261     23  2.300                                                                 
     1      6.1178114     23  2.300                                                                 
     2     -4.0817478     23  2.300                                                                 
     3     -1.3605826      7  2.300                                                                 
  local pseudopotential read in
  partial core-charges read in
  partial kinetic energy density read in
  atomic valenz-charges read in
  non local Contribution for L=           0  read in
    real space projection operators read in
  non local Contribution for L=           0  read in
    real space projection operators read in
  non local Contribution for L=           1  read in
    real space projection operators read in
  non local Contribution for L=           1  read in
    real space projection operators read in
  non local Contribution for L=           2  read in
    real space projection operators read in
    PAW grid and wavefunctions read in
 
   number of l-projection  operators is LMAX  =           5
   number of lm-projection operators is LMMAX =          13
 
 POTCAR:    PAW_PBE Sn 08Apr2002                  
   VRHFIN =Sn: s2p2                                                                                 
   LEXCH  = PE                                                                                      
   EATOM  =    94.0860 eV,    6.9151 Ry                                                             
                                                                                                    
   TITEL  = PAW_PBE Sn 08Apr2002                                                                    
   LULTRA =        F    use ultrasoft PP ?                                                          
   IUNSCR =        1    unscreen: 0-lin 1-nonlin 2-no                                               
   RPACOR =    2.000    partial core radius                                                         
   POMASS =  118.710; ZVAL   =    4.000    mass and valenz                                          
   RCORE  =    3.000    outmost cutoff radius                                                       
   RWIGS  =    2.960; RWIGS  =    1.566    wigner-seitz radius (au A)                               
   ENMAX  =  103.236; ENMIN  =   77.427 eV                                                          
   ICORE  =        3    local potential                                                             
   LCOR   =        T    correct aug charges                                                         
   LPAW   =        T    paw PP                                                                      
   EAUG   =  263.585                                                                                
   DEXC   =    0.000                                                                                
   RMAX   =    3.078    core radius for proj-oper                                                   
   RAUG   =    1.300    factor for augmentation sphere                                              
   RDEP   =    3.022    radius for radial grids                                                     
   RDEPT  =    2.655    core radius for aug-charge                                                  
                                                                                                    
   Atomic configuration                                                                             
   13 entries                                                                                       
     n  l   j            E        occ.                                                              
     1  0  0.50    -29007.2859   2.0000                                                             
     2  0  0.50     -4378.8056   2.0000                                                             
     2  1  1.50     -3930.4293   6.0000                                                             
     3  0  0.50      -845.0264   2.0000                                                             
     3  1  1.50      -698.5725   6.0000                                                             
     3  2  2.50      -473.2839  10.0000                                                             
     4  0  0.50      -133.9036   2.0000                                                             
     4  1  1.50       -89.6752   6.0000                                                             
     4  2  2.50       -25.8375  10.0000                                                             
     5  0  0.50       -10.5484   2.0000                                                             
     5  1  0.50        -3.6940   2.0000                                                             
     5  2  1.50        -1.3606   0.0000                                                             
     4  3  2.50        -4.0817   0.0000                                                             
   Description                                                                                      
     l       E           TYP  RCUT    TYP  RCUT                                                     
     0    -10.5483727     23  3.000                                                                 
     0     27.2116520     23  3.000                                                                 
     1     -3.6939829     23  3.000                                                                 
     1      1.9821976     23  3.000                                                                 
     2     -1.3605826     23  3.000                                                                 
     3     -2.7211652     23  3.000                                                                 
  local pseudopotential read in
  partial core-charges read in
  partial kinetic energy density read in
  atomic valenz-charges read in
  non local Contribution for L=           0  read in
    real space projection operators read in
  non local Contribution for L=           0  read in
    real space projection operators read in
  non local Contribution for L=           1  read in
    real space projection operators read in
  non local Contribution for L=           1  read in
    real space projection operators read in
  non local Contribution for L=           2  read in
    real space projection operators read in
    PAW grid and wavefunctions read in
 
   number of l-projection  operators is LMAX  =           5
   number of lm-projection operators is LMMAX =          13
 
 Optimization of the real space projectors (new method)

 maximal supplied QI-value         = 16.25
 optimisation between [QCUT,QGAM] = [ 13.49, 26.98] = [ 50.95,203.80] Ry 
 Optimized for a Real-space Cutoff    1.25 Angstroem

   l    n(q)    QCUT    max X(q) W(low)/X(q) W(high)/X(q)  e(spline) 
   0     10    13.489    65.336    0.91E-04    0.11E-03    0.34E-06
   0     10    13.489    52.220    0.89E-04    0.11E-03    0.34E-06
   1     10    13.489    36.409    0.22E-03    0.27E-03    0.14E-06
   1     10    13.489    21.334    0.21E-03    0.27E-03    0.14E-06
   2      9    13.489     4.673    0.11E-03    0.12E-03    0.19E-06
 Optimization of the real space projectors (new method)

 maximal supplied QI-value         = 12.47
 optimisation between [QCUT,QGAM] = [ 12.47, 27.06] = [ 43.56,205.12] Ry 
 Optimized for a Real-space Cutoff    1.58 Angstroem

   l    n(q)    QCUT    max X(q) W(low)/X(q) W(high)/X(q)  e(spline) 
   0     13    12.472    14.688    0.45E-04    0.45E-04    0.25E-05
   0     13    12.472     7.308    0.94E-04    0.11E-03    0.61E-05
   1     12    12.472    45.102    0.34E-03    0.14E-03    0.21E-05
   1     12    12.472    30.691    0.31E-03    0.13E-03    0.20E-05
   2     12    12.472     7.156    0.86E-04    0.11E-03    0.17E-05
 WARNING: PSMAXN for non-local potential too small
          PSMAXN should be >   13.5545592237991       NTYP=           2
  PAW_PBE Ge 05Jan2001                  :
 energy of atom  1       EATOM= -104.9960
 kinetic energy error for atom=    0.0001 (will be added to EATOM!!)
  PAW_PBE Sn 08Apr2002                  :
 energy of atom  2       EATOM=  -94.0860
 kinetic energy error for atom=    0.0000 (will be added to EATOM!!)
 
 
 POSCAR: Ge+Sn
  positions in direct lattice
  No initial velocities read in


 exchange-correlation table for PE
   RHO(1)=    0.500       N(1)  =     2000
   RHO(2)=  100.500       N(2)  =     4000
 


--------------------------------------------------------------------------------------------------------


 ion  position               nearest neighbor table
   1  0.311  0.311  0.322-  67 2.45  46 2.45  88 2.45  24 2.45
   2  0.978  0.978  0.000-  68 2.45  47 2.45  89 2.45 162 2.66
   3  0.644  0.644  0.161-  48 2.45  69 2.45  23 2.45  90 2.45
   4  0.811  0.311  0.322-  70 2.45  43 2.45  21 2.45  85 2.45
   5  0.478  0.978  0.000-  71 2.45  86 2.45  44 2.45 126 2.66
   6  0.144  0.644  0.161-  72 2.45  45 2.45  20 2.45  87 2.45
   7  0.311  0.811  0.322-  61 2.45  94 2.45  18 2.45  40 2.45
   8  0.978  0.478  0.000-  62 2.45  95 2.45  41 2.45 147 2.66
   9  0.644  0.144  0.161-  63 2.45  96 2.45  17 2.45  42 2.45
  10  0.811  0.811  0.322-  64 2.45  15 2.45  91 2.45  37 2.45
  11  0.478  0.478  0.000-  65 2.45  38 2.45  92 2.45 111 2.66
  12  0.144  0.144  0.161-  66 2.45  14 2.45  39 2.45  93 2.45
  13  0.478  0.478  0.362-  73 2.45  49 2.45  25 2.45 100 2.66
  14  0.144  0.144  0.040-  74 2.45  12 2.45  50 2.45  26 2.45
  15  0.811  0.811  0.201-  75 2.45  10 2.45  27 2.45  51 2.45
  16  0.978  0.478  0.362-  76 2.45  52 2.45  28 2.45 136 2.66
  17  0.644  0.144  0.040-  77 2.45  53 2.45   9 2.45  29 2.45
  18  0.311  0.811  0.201-  78 2.45  30 2.45  54 2.45   7 2.45
  19  0.478  0.978  0.362-  55 2.45  79 2.45  31 2.45 115 2.66
  20  0.144  0.644  0.040-  56 2.45  80 2.45   6 2.45  32 2.45
  21  0.811  0.311  0.201-  57 2.45  33 2.45   4 2.45  81 2.45
  22  0.978  0.978  0.362-  58 2.45  82 2.45  34 2.45 151 2.66
  23  0.644  0.644  0.040-  59 2.45  35 2.45   3 2.45  83 2.45
  24  0.311  0.311  0.201-  60 2.45  84 2.45   1 2.45  36 2.45
  25  0.561  0.561  0.322-  61 2.45  85 2.45  48 2.45  13 2.45
  26  0.228  0.228  0.000-  62 2.45  86 2.45  14 2.45 168 2.61
  27  0.894  0.894  0.161-  63 2.45  15 2.45  87 2.45  47 2.45
  28  0.061  0.561  0.322-  88 2.45  64 2.45  45 2.45  16 2.45
  29  0.728  0.228  0.000-  65 2.45  89 2.45  17 2.45 132 2.61
  30  0.394  0.894  0.161-  66 2.45  90 2.45  18 2.45  44 2.45
  31  0.561  0.061  0.322-  91 2.45  67 2.45  42 2.45  19 2.45
  32  0.228  0.728  0.000-  68 2.45  92 2.45  20 2.45 144 2.61
  33  0.894  0.394  0.161-  21 2.45  69 2.45  41 2.45  93 2.45
  34  0.061  0.061  0.322-  94 2.45  70 2.45  39 2.45  22 2.45
  35  0.728  0.728  0.000-  95 2.45  23 2.45  71 2.45 108 2.61
  36  0.394  0.394  0.161-  96 2.45  72 2.45  24 2.45  38 2.45
  37  0.728  0.728  0.362-  79 2.45  52 2.45  10 2.45  97 2.61
  38  0.394  0.394  0.040-  53 2.45  80 2.45  11 2.45  36 2.45
  39  0.061  0.061  0.201-  81 2.45  54 2.45  34 2.45  12 2.45
  40  0.228  0.728  0.362-  82 2.45  49 2.45   7 2.45 133 2.61
  41  0.894  0.394  0.040-  50 2.45  83 2.45  33 2.45   8 2.45
  42  0.561  0.061  0.201-  84 2.45  51 2.45  31 2.45   9 2.45
  43  0.728  0.228  0.362-  73 2.45   4 2.45  58 2.45 121 2.61
  44  0.394  0.894  0.040-  74 2.45   5 2.45  59 2.45  30 2.45
  45  0.061  0.561  0.201-  75 2.45   6 2.45  60 2.45  28 2.45
  46  0.228  0.228  0.362-  76 2.45  55 2.45   1 2.45 157 2.61
  47  0.894  0.894  0.040-   2 2.45  56 2.45  77 2.45  27 2.45
  48  0.561  0.561  0.201-   3 2.45  78 2.45  57 2.45  25 2.45
  49  0.311  0.561  0.322-  40 2.45  13 2.45  72 2.45  88 2.45
  50  0.978  0.228  0.000-  41 2.45  89 2.45  14 2.45 159 3.20
  51  0.644  0.894  0.161-  90 2.45  42 2.45  15 2.45  71 2.45
  52  0.811  0.561  0.322-  37 2.45  16 2.45  85 2.45  69 2.45
  53  0.478  0.228  0.000-  38 2.45  17 2.45  86 2.45 123 3.20
  54  0.144  0.894  0.161-  87 2.45  39 2.45  18 2.45  68 2.45
  55  0.311  0.061  0.322-  19 2.45  46 2.45  66 2.45  94 2.45
  56  0.978  0.728  0.000-  20 2.45  47 2.45  95 2.45 135 3.20
  57  0.644  0.394  0.161-  96 2.45  21 2.45  48 2.45  65 2.45
  58  0.811  0.061  0.322-  22 2.45  91 2.45  63 2.45  43 2.45
  59  0.478  0.728  0.000-  92 2.45  23 2.45  44 2.45  99 3.20
  60  0.144  0.394  0.161-  93 2.45  24 2.45  62 2.45  45 2.45
  61  0.478  0.728  0.362-  25 2.45   7 2.45  79 2.45
  62  0.144  0.394  0.040-   8 2.45  26 2.45  60 2.45  80 2.45
  63  0.811  0.061  0.201-   9 2.45  27 2.45  58 2.45  81 2.45
  64  0.978  0.728  0.362-  10 2.45  28 2.45  82 2.45
  65  0.644  0.394  0.040-  29 2.45  11 2.45  83 2.45  57 2.45
  66  0.311  0.061  0.201-  30 2.45  12 2.45  55 2.45  84 2.45
  67  0.478  0.228  0.362-   1 2.45  31 2.45  73 2.45
  68  0.144  0.894  0.040-   2 2.45  32 2.45  74 2.45  54 2.45
  69  0.811  0.561  0.201-   3 2.45  33 2.45  75 2.45  52 2.45
  70  0.978  0.228  0.362-   4 2.45  76 2.45  34 2.45
  71  0.644  0.894  0.040-   5 2.45  77 2.45  35 2.45  51 2.45
  72  0.311  0.561  0.201-   6 2.45  78 2.45  36 2.45  49 2.45
  73  0.561  0.311  0.322-  13 2.45  67 2.45  43 2.45  96 2.45
  74  0.228  0.978  0.000-  14 2.45  44 2.45  68 2.45 114 2.61
  75  0.894  0.644  0.161-  45 2.45  15 2.45  95 2.45  69 2.45
  76  0.061  0.311  0.322-  16 2.45  46 2.45  70 2.45  93 2.45
  77  0.728  0.978  0.000-  17 2.45  71 2.45  47 2.45 150 2.61
  78  0.394  0.644  0.161-  18 2.45  48 2.45  72 2.45  92 2.45
  79  0.561  0.811  0.322-  37 2.45  19 2.45  61 2.45  90 2.45
  80  0.228  0.478  0.000-  38 2.45  20 2.45  62 2.45 129 2.61
  81  0.894  0.144  0.161-  39 2.45  21 2.45  89 2.45  63 2.45
  82  0.061  0.811  0.322-  40 2.45  87 2.45  22 2.45  64 2.45
  83  0.728  0.478  0.000-  41 2.45  65 2.45  23 2.45 165 2.61
  84  0.394  0.144  0.161-  42 2.45  86 2.45  24 2.45  66 2.45
  85  0.728  0.478  0.362-  25 2.45  52 2.45   4 2.45 154 2.61
  86  0.394  0.144  0.040-  53 2.45  26 2.45  84 2.45   5 2.45
  87  0.061  0.811  0.201-  54 2.45  82 2.45  27 2.45   6 2.45
  88  0.228  0.478  0.362-  28 2.45   1 2.45  49 2.45 118 2.61
  89  0.894  0.144  0.040-  29 2.45  50 2.45  81 2.45   2 2.45
  90  0.561  0.811  0.201-  51 2.45  30 2.45   3 2.45  79 2.45
  91  0.728  0.978  0.362-  58 2.45  31 2.45  10 2.45 139 2.61
  92  0.394  0.644  0.040-  59 2.45  32 2.45  78 2.45  11 2.45
  93  0.061  0.311  0.201-  60 2.45  76 2.45  33 2.45  12 2.45
  94  0.228  0.978  0.362-  34 2.45   7 2.45  55 2.45 103 2.61
  95  0.894  0.644  0.040-  35 2.45   8 2.45  56 2.45  75 2.45
  96  0.561  0.311  0.201-  57 2.45  36 2.45   9 2.45  73 2.45
  97  0.811  0.723  0.473-  37 2.61 124 2.83 163 2.83 142 2.83
  98  0.144  0.723  0.658- 106 2.81 125 2.83 164 2.83 143 2.83
  99  0.478  0.723  0.842- 107 2.81 126 2.83 165 2.83 144 2.83  59 3.20
 100  0.478  0.390  0.473-  13 2.66 127 2.83 166 2.83 145 2.83
 101  0.811  0.390  0.658- 109 2.81 128 2.83 167 2.83 146 2.83
 102  0.144  0.390  0.842- 110 2.81 168 2.83 129 2.83 147 2.83
 103  0.144  0.057  0.473-  94 2.61 148 2.83 160 2.83 130 2.83
 104  0.478  0.057  0.658- 112 2.81 149 2.83 161 2.83 131 2.83
 105  0.811  0.057  0.842- 113 2.81 150 2.83 162 2.83 132 2.83
 106  0.144  0.723  0.520-  98 2.81 133 2.83 151 2.83 118 2.83
 107  0.478  0.723  0.704-  99 2.81 134 2.83 152 2.83 119 2.83
 108  0.811  0.723  0.889-  35 2.61 153 2.83 135 2.83 120 2.83
 109  0.811  0.390  0.520- 101 2.81 136 2.83 154 2.83 121 2.83
 110  0.144  0.390  0.704- 102 2.81 122 2.83 155 2.83 137 2.83
 111  0.478  0.390  0.889-  11 2.66 138 2.83 156 2.83 123 2.83
 112  0.478  0.057  0.520- 104 2.81 115 2.83 157 2.83 139 2.83
 113  0.811  0.057  0.704- 105 2.81 116 2.83 158 2.83 140 2.83
 114  0.144  0.057  0.889-  74 2.61 117 2.83 159 2.83 141 2.83
 115  0.478  0.890  0.473-  19 2.66 112 2.83 142 2.83 160 2.83
 116  0.811  0.890  0.658- 124 2.81 143 2.83 113 2.83 161 2.83
 117  0.144  0.890  0.842- 125 2.81 114 2.83 144 2.83 162 2.83
 118  0.144  0.557  0.473-  88 2.61 163 2.83 145 2.83 106 2.83
 119  0.478  0.557  0.658- 127 2.81 164 2.83 146 2.83 107 2.83
 120  0.811  0.557  0.842- 128 2.81 165 2.83 147 2.83 108 2.83
 121  0.811  0.223  0.473-  43 2.61 148 2.83 109 2.83 166 2.83
 122  0.144  0.223  0.658- 130 2.81 149 2.83 110 2.83 167 2.83
 123  0.478  0.223  0.842- 131 2.81 111 2.83 168 2.83 150 2.83  53 3.20
 124  0.811  0.890  0.520- 116 2.81  97 2.83 139 2.83 151 2.83
 125  0.144  0.890  0.704- 117 2.81  98 2.83 140 2.83 152 2.83
 126  0.478  0.890  0.889-   5 2.66  99 2.83 141 2.83 153 2.83
 127  0.478  0.557  0.520- 119 2.81 100 2.83 154 2.83 133 2.83
 128  0.811  0.557  0.704- 120 2.81 101 2.83 155 2.83 134 2.83
 129  0.144  0.557  0.889-  80 2.61 156 2.83 102 2.83 135 2.83
 130  0.144  0.223  0.520- 122 2.81 136 2.83 157 2.83 103 2.83
 131  0.478  0.223  0.704- 123 2.81 137 2.83 104 2.83 158 2.83
 132  0.811  0.223  0.889-  29 2.61 138 2.83 159 2.83 105 2.83
 133  0.311  0.723  0.473-  40 2.61 160 2.83 106 2.83 127 2.83
 134  0.644  0.723  0.658- 142 2.81 107 2.83 161 2.83 128 2.83
 135  0.978  0.723  0.842- 143 2.81 162 2.83 108 2.83 129 2.83  56 3.20
 136  0.978  0.390  0.473-  16 2.66 130 2.83 163 2.83 109 2.83
 137  0.311  0.390  0.658- 145 2.81 131 2.83 164 2.83 110 2.83
 138  0.644  0.390  0.842- 146 2.81 111 2.83 132 2.83 165 2.83
 139  0.644  0.057  0.473-  91 2.61 124 2.83 112 2.83 166 2.83
 140  0.978  0.057  0.658- 148 2.81 125 2.83 167 2.83 113 2.83
 141  0.311  0.057  0.842- 149 2.81 168 2.83 126 2.83 114 2.83
 142  0.644  0.723  0.520- 134 2.81 115 2.83  97 2.83 154 2.83
 143  0.978  0.723  0.704- 135 2.81 116 2.83 155 2.83  98 2.83
 144  0.311  0.723  0.889-  32 2.61 117 2.83  99 2.83 156 2.83
 145  0.311  0.390  0.520- 137 2.81 157 2.83 118 2.83 100 2.83
 146  0.644  0.390  0.704- 138 2.81 119 2.83 158 2.83 101 2.83
 147  0.978  0.390  0.889-   8 2.66 120 2.83 159 2.83 102 2.83
 148  0.978  0.057  0.520- 140 2.81 103 2.83 151 2.83 121 2.83
 149  0.311  0.057  0.704- 141 2.81 152 2.83 104 2.83 122 2.83
 150  0.644  0.057  0.889-  77 2.61 105 2.83 153 2.83 123 2.83
 151  0.978  0.890  0.473-  22 2.66 148 2.83 124 2.83 106 2.83
 152  0.311  0.890  0.658- 160 2.81 149 2.83 107 2.83 125 2.83
 153  0.644  0.890  0.842- 161 2.81 150 2.83 108 2.83 126 2.83
 154  0.644  0.557  0.473-  85 2.61 127 2.83 109 2.83 142 2.83
 155  0.978  0.557  0.658- 163 2.81 128 2.83 143 2.83 110 2.83
 156  0.311  0.557  0.842- 164 2.81 129 2.83 111 2.83 144 2.83
 157  0.311  0.223  0.473-  46 2.61 145 2.83 130 2.83 112 2.83
 158  0.644  0.223  0.658- 166 2.81 146 2.83 113 2.83 131 2.83
 159  0.978  0.223  0.842- 167 2.81 114 2.83 147 2.83 132 2.83  50 3.20
 160  0.311  0.890  0.520- 152 2.81 103 2.83 133 2.83 115 2.83
 161  0.644  0.890  0.704- 153 2.81 104 2.83 134 2.83 116 2.83
 162  0.978  0.890  0.889-   2 2.66 105 2.83 135 2.83 117 2.83
 163  0.978  0.557  0.520- 155 2.81 118 2.83 136 2.83  97 2.83
 164  0.311  0.557  0.704- 156 2.81 119 2.83 137 2.83  98 2.83
 165  0.644  0.557  0.889-  83 2.61 120 2.83  99 2.83 138 2.83
 166  0.644  0.223  0.520- 158 2.81 139 2.83 100 2.83 121 2.83
 167  0.978  0.223  0.704- 159 2.81 101 2.83 140 2.83 122 2.83
 168  0.311  0.223  0.889-  26 2.61 141 2.83 102 2.83 123 2.83
 
  LATTYP: Found a hexagonal cell.
 ALAT       =    16.0026765650
 C/A-ratio  =     1.2687885190
  
  Lattice vectors:
  
 A1 = (  -8.0013380050, -13.8587245940,   0.0000000000)
 A2 = (  16.0026760100,   0.0000000000,   0.0000000000)
 A3 = (   0.0000000000,   0.0000000000,  20.3040122990)


Analysis of symmetry for initial positions (statically):
=====================================================================
 Subroutine PRICEL returns following result:
 
  LATTYP: Found a hexagonal cell.
 ALAT       =     8.0013387546
 C/A-ratio  =     2.5375768883
  
  Lattice vectors:
  
 A1 = (  -4.0006713869,  -6.9293614655,   0.0000000000)
 A2 = (   8.0013408695,   0.0000000000,   0.0000000000)
 A3 = (   0.0000000000,   0.0000000000,  20.3040122990)
 
   4 primitive cells build up your supercell.
 

 Routine SETGRP: Setting up the symmetry group for a 
 hexagonal supercell.


 Subroutine GETGRP returns: Found  1 space group operations
 (whereof  1 operations were pure point group operations)
 out of a pool of 24 trial point group operations.


The static configuration has the point symmetry C_1 .


Analysis of symmetry for dynamics (positions and initial velocities):
=====================================================================
 Subroutine PRICEL returns following result:
 
  LATTYP: Found a hexagonal cell.
 ALAT       =     8.0013387546
 C/A-ratio  =     2.5375768883
  
  Lattice vectors:
  
 A1 = (  -4.0006713869,  -6.9293614655,   0.0000000000)
 A2 = (   8.0013408695,   0.0000000000,   0.0000000000)
 A3 = (   0.0000000000,   0.0000000000,  20.3040122990)
 
   4 primitive cells build up your supercell.
 

 Routine SETGRP: Setting up the symmetry group for a 
 hexagonal supercell.


 Subroutine GETGRP returns: Found  1 space group operations
 (whereof  1 operations were pure point group operations)
 out of a pool of 24 trial point group operations.


The dynamic configuration has the point symmetry C_1 .


Analysis of structural, dynamic, and magnetic symmetry:
=====================================================================
 Subroutine PRICEL returns following result:
 
  LATTYP: Found a hexagonal cell.
 ALAT       =     8.0013387546
 C/A-ratio  =     2.5375768883
  
  Lattice vectors:
  
 A1 = (  -4.0006713869,  -6.9293614655,   0.0000000000)
 A2 = (   8.0013408695,   0.0000000000,   0.0000000000)
 A3 = (   0.0000000000,   0.0000000000,  20.3040122990)
 
   4 primitive cells build up your supercell.
 

 Routine SETGRP: Setting up the symmetry group for a 
 hexagonal supercell.


 Subroutine GETGRP returns: Found  1 space group operations
 (whereof  1 operations were pure point group operations)
 out of a pool of 24 trial point group operations.


The overall configuration has the point symmetry C_1 .


 Subroutine INISYM returns: Found  1 space group operations
 (whereof  1 operations are pure point group operations),
 and found     4 'primitive' translations


----------------------------------------------------------------------------------------

                                     Primitive cell                                     

  volume of cell :    1125.7394

  direct lattice vectors                    reciprocal lattice vectors
    -4.000671387 -6.929361465  0.000000000     0.000000000 -0.144313441  0.000000000
     8.001340869  0.000000000  0.000000000     0.124979052 -0.072156738  0.000000000
     0.000000000  0.000000000 20.304012299     0.000000000  0.000000000  0.049251349

  length of vectors
     8.001338755  8.001340869 20.304012299     0.144313441  0.144313403  0.049251349

  position of ions in fractional coordinates (direct lattice)
     0.378233597  0.621766003  0.321762353
     0.044899885  0.955099316  0.000000000
     0.711566831  0.288432927  0.160881177
     0.044900421  0.955098898  0.361982673
     0.711566741  0.288433165  0.040220331
     0.378233417  0.621765883  0.201101452
     0.878233633  0.121765883  0.321762353
     0.544899915  0.455099704  0.000000035
     0.211566771  0.788432689  0.160881206
     0.544900243  0.455099376  0.361982644
     0.211566651  0.788432689  0.040220268
     0.878233605  0.121765883  0.201101452
     0.878233633  0.621766062  0.321762353
     0.544899915  0.955099555  0.000000027
     0.211566831  0.288432838  0.160881177
     0.544900243  0.955098959  0.361982614
     0.211566711  0.288432838  0.040220287
     0.878233605  0.621766062  0.201101452
     0.378233597  0.121765586  0.321762353
     0.044899885  0.455099495  0.000000031
     0.711566891  0.788432808  0.160881177
     0.044900183  0.455098839  0.361982673
     0.711566533  0.788432986  0.040220316
     0.378233179  0.121766286  0.201101482
     0.553459024  0.622302269  0.473403841
     0.553459024  0.288969343  0.657926023
     0.553458994  0.955635642  0.842448235
     0.220125582  0.955635403  0.473403811
     0.220125582  0.622302626  0.657926023
     0.220125582  0.288969223  0.842448235
     0.886792288  0.288968806  0.473403841
     0.886792288  0.955635403  0.657926083
     0.886792288  0.622302269  0.842448235
     0.553459024  0.288969105  0.519534349
     0.553459024  0.955635404  0.704056501
     0.553459054  0.622302269  0.888578892
     0.220125700  0.622302090  0.519534349
     0.220125582  0.288969223  0.704056621
     0.220125582  0.955635761  0.888578832
     0.886792288  0.955635283  0.519534349
     0.886792168  0.622302269  0.704056621
     0.886792288  0.288969342  0.888578892

  ion indices of the primitive-cell ions
   primitive index   ion index
                 1           1
                 2          11
                 3          12
                 4          13
                 5          14
                 6          24
                 7          31
                 8          26
                 9          36
                10          46
                11          38
                12          42
                13          55
                14          53
                15          60
                16          67
                17          62
                18          66
                19          73
                20          80
                21          84
                22          88
                23          86
                24          93
                25         157
                26         122
                27         123
                28         100
                29         137
                30         102
                31         118
                32         119
                33         156
                34         130
                35         131
                36         168
                37         145
                38         110
                39         111
                40         127
                41         164
                42         129

----------------------------------------------------------------------------------------

 
 
 KPOINTS: Automatic KPOINTS generated             

Automatic generation of k-mesh.
 Grid dimensions read from file:
 generate k-points for:    2    2    2

 Generating k-lattice:

  Cartesian coordinates                     Fractional coordinates (reciprocal lattice)
     0.031244774 -0.018039178  0.000000000     0.500000000  0.000000000  0.000000000
     0.000000000  0.036078356  0.000000000     0.000000000  0.500000000  0.000000000
     0.000000000  0.000000000  0.024625675     0.000000000  0.000000000  0.500000000

  Length of vectors
     0.036078357  0.036078356  0.024625675

  Shift w.r.t. Gamma in fractional coordinates (k-lattice)
     0.000000000  0.000000000  0.000000000

 
 Subroutine IBZKPT returns following result:
 ===========================================
 
 Found      8 irreducible k-points:
 
 Following reciprocal coordinates:
            Coordinates               Weight
  0.000000  0.000000  0.000000      1.000000
  0.500000 -0.000000  0.000000      1.000000
  0.500000  0.500000  0.000000      1.000000
  0.000000  0.500000  0.000000      1.000000
  0.000000  0.000000  0.500000      1.000000
  0.500000 -0.000000  0.500000      1.000000
  0.500000  0.500000  0.500000      1.000000
  0.000000  0.500000  0.500000      1.000000
 
 Following cartesian coordinates:
            Coordinates               Weight
  0.000000  0.000000  0.000000      1.000000
  0.031245 -0.018039  0.000000      1.000000
  0.031245  0.018039  0.000000      1.000000
  0.000000  0.036078  0.000000      1.000000
  0.000000  0.000000  0.024626      1.000000
  0.031245 -0.018039  0.024626      1.000000
  0.031245  0.018039  0.024626      1.000000
  0.000000  0.036078  0.024626      1.000000
 


--------------------------------------------------------------------------------------------------------




 Dimension of arrays:
   k-points           NKPTS =      8   k-points in BZ     NKDIM =      8   number of bands    NBANDS=    404
   number of dos      NEDOS =    301   number of ions     NIONS =    168
   non local maximal  LDIM  =      5   non local SUM 2l+1 LMDIM =     13
   total plane-waves  NPLWV = ******
   max r-space proj   IRMAX =   6024   max aug-charges    IRDMAX= 279424
   dimension x,y,z NGX =   108 NGY =  108 NGZ =  140
   dimension x,y,z NGXF=   216 NGYF=  216 NGZF=  280
   support grid    NGXF=   432 NGYF=  432 NGZF=  560
   ions per type =              96  72
   NGX,Y,Z   is equivalent  to a cutoff of  11.22, 11.22, 11.46 a.u.
   NGXF,Y,Z  is equivalent  to a cutoff of  22.44, 22.44, 22.93 a.u.

 SYSTEM =  Si and Ge interface calculation         
 POSCAR =  Ge+Sn                                   

 Startparameter for this run:
   NWRITE =      2    write-flag & timer
   PREC   = normal    normal or accurate (medium, high low for compatibility)
   ISTART =      0    job   : 0-new  1-cont  2-samecut
   ICHARG =      2    charge: 1-file 2-atom 10-const
   ISPIN  =      2    spin polarized calculation?
   LNONCOLLINEAR =      F non collinear calculations
   LSORBIT =      F    spin-orbit coupling
   INIWAV =      1    electr: 0-lowe 1-rand  2-diag
   LASPH  =      T    aspherical Exc in radial PAW
 Electronic Relaxation 1
   ENCUT  =  700.0 eV  51.45 Ry    7.17 a.u.  34.52 34.52 43.80*2*pi/ulx,y,z
   ENINI  =  700.0     initial cutoff
   ENAUG  =  900.0 eV  augmentation charge cutoff
   NELM   =    100;   NELMIN=  2; NELMDL= -5     # of ELM steps 
   EDIFF  = 0.1E-06   stopping-criterion for ELM
   LREAL  =      T    real-space projection
   NLSPLINE    = F    spline interpolate recip. space projectors
   LCOMPAT=      F    compatible to vasp.4.4
   GGA_COMPAT  = T    GGA compatible to vasp.4.4-vasp.4.6
   LMAXPAW     = -100 max onsite density
   LMAXMIX     =    6 max onsite mixed and CHGCAR
   VOSKOWN=      0    Vosko Wilk Nusair interpolation
   ROPT   =   -0.00050  -0.00050
 Ionic relaxation
   EDIFFG = 0.1E-05   stopping-criterion for IOM
   NSW    =      0    number of steps for IOM
   NBLOCK =      1;   KBLOCK =      1    inner block; outer block 
   IBRION =     -1    ionic relax: 0-MD 1-quasi-New 2-CG
   NFREE  =      0    steps in history (QN), initial steepest desc. (CG)
   ISIF   =      2    stress and relaxation
   IWAVPR =     10    prediction:  0-non 1-charg 2-wave 3-comb
   ISYM   =      2    0-nonsym 1-usesym 2-fastsym
   LCORR  =      T    Harris-Foulkes like correction to forces

   POTIM  = 0.5000    time-step for ionic-motion
   TEIN   =    0.0    initial temperature
   TEBEG  =    0.0;   TEEND  =   0.0 temperature during run
   SMASS  =  -3.00    Nose mass-parameter (am)
   estimated Nose-frequenzy (Omega)   =  0.10E-29 period in steps = 0.13E+47 mass=  -0.585E-26a.u.
   SCALEE = 1.0000    scale energy and forces
   NPACO  =    256;   APACO  = 10.0  distance and # of slots for P.C.
   PSTRESS=    0.0 pullay stress

  Mass of Ions in am
   POMASS =  72.61118.71
  Ionic Valenz
   ZVAL   =   4.00  4.00
  Atomic Wigner-Seitz radii
   RWIGS  =  -1.00 -1.00
  virtual crystal weights 
   VCA    =   1.00  1.00
   NELECT =     672.0000    total number of electrons
   NUPDOWN=       1.0000    fix difference up-down

 DOS related values:
   EMIN   =  10.00;   EMAX   =-10.00  energy-range for DOS
   EFERMI =   0.00;   METHOD = LEGACY      
   ISMEAR =     0;   SIGMA  =   0.01  broadening in eV -4-tet -1-fermi 0-gaus

 Electronic relaxation 2 (details)
   IALGO  =     38    algorithm
   LDIAG  =      T    sub-space diagonalisation (order eigenvalues)
   LSUBROT=      F    optimize rotation matrix (better conditioning)
   TURBO    =      0    0=normal 1=particle mesh
   IRESTART =      0    0=no restart 2=restart with 2 vectors
   NREBOOT  =      0    no. of reboots
   NMIN     =      0    reboot dimension
   EREF     =   0.00    reference energy to select bands
   IMIX   =      4    mixing-type and parameters
     AMIX     =   0.60;   BMIX     =  1.00
     AMIX_MAG =   2.40;   BMIX_MAG =  1.00
     AMIN     =   0.10
     WC   =   100.;   INIMIX=   1;  MIXPRE=   1;  MAXMIX= -45

 Intra band minimization:
   WEIMIN = 0.0000     energy-eigenvalue tresh-hold
   EBREAK =  0.62E-10  absolut break condition
   DEPER  =   0.30     relativ break condition  

   TIME   =   0.40     timestep for ELM

  volume/ion in A,a.u.               =      26.80       180.88
  Fermi-wavevector in a.u.,A,eV,Ry     =   0.868358  1.640958 10.259407  0.754045
  Thomas-Fermi vector in A             =   1.987025
 
 Write flags
   LWAVE        =      F    write WAVECAR
   LDOWNSAMPLE  =      F    k-point downsampling of WAVECAR
   LCHARG       =      T    write CHGCAR
   LVTOT        =      F    write LOCPOT, total local potential
   LVHAR        =      T    write LOCPOT, Hartree potential only
   WRT_POTENTIAL=  hartree ionic  ! write potential to hdf5 file
   LELF         =      F    write electronic localiz. function (ELF)
   LORBIT       =      0    0 simple, 1 ext, 2 COOP (PROOUT), +10 PAW based schemes


 Dipole corrections
   LMONO      =      F    monopole corrections only (constant potential shift)
   LDIPOL     =      F    correct potential (dipole corrections)
   IDIPOL     =      0    1-x, 2-y, 3-z, 4-all directions 
   EPSILON    =  1.0000000 bulk dielectric constant
   LVACPOTAV  =      F  vacuum potentials using an averaging scheme for the charge density
   VACPOTFLAT =  0.1000000 required flatness to determine vacuum potential
 Exchange correlation treatment:
   GGA     = PE    functional components
   XC_C    = 1    coefficients multiplying the functional components
   LIBXC   =     F    Libxc                    
   VOSKOWN =     0    Vosko Wilk Nusair interpolation
   LHFCALC =     F    Hartree Fock is set to
   LHFONE  =     F    Hartree Fock one center treatment
   AEXX    =    0.0000 exact exchange contribution

 Parameters of functionals:
   PE:
     No parameter
 
 Van der Waals corrections
   IVDW    =     0    specifies the selected vdW correction

 Linear response parameters
   LEPSILON=     F    determine dielectric tensor
   LRPA    =     F    only Hartree local field effects (RPA)
   LNABLA  =     F    use nabla operator in PAW spheres
   LVEL    =     F    velocity operator in full k-point grid
   CSHIFT  =0.1000    complex shift for real part using Kramers Kronig
   OMEGAMAX=  -1.0    maximum frequency
   DEG_THRESHOLD= 0.2000000E-02 threshold for treating states as degnerate
   RTIME   =   -0.100 relaxation time in fs
  (WPLASMAI=    0.000 imaginary part of plasma frequency in eV, 0.658/RTIME)
   DFIELD  = 0.0000000 0.0000000 0.0000000 field for delta impulse in time
 
  Optional k-point grid parameters
   LKPOINTS_OPT  =     F    use optional k-point grid
   KPOINTS_OPT_MODE=     1    mode for optional k-point grid
 
 Orbital magnetization related:
   ORBITALMAG=     F  switch on orbital magnetization
   LCHIMAG   =     F  perturbation theory with respect to B field
   DQ        =  0.001000  dq finite difference perturbation B field
   LLRAUG    =     F  two centre corrections for induced B field
   LBONE     =     F  B-component reconstruction in AE one-centre
   LVGVCALC  =     T  calculate vGv susceptibility
   LVGVAPPL  =     F  apply vGv susceptibility instead of pGv for G=0

 Random number generation:
   RANDOM_GENERATOR = DEFAULT
   PCG_SEED         = not used


--------------------------------------------------------------------------------------------------------


 Static calculation
 charge density and potential will be updated during run
 spin polarized calculation
 Variant of blocked Davidson
 Davidson routine will perform the subspace rotation
 perform sub-space diagonalisation
    after iterative eigenvector-optimisation
 modified Broyden-mixing scheme, WC =      100.0
 initial mixing is a Kerker type mixing with AMIX =  0.6000 and BMIX =      1.0000
 Hartree-type preconditioning will be used
 using additional bands           68
 real space projection scheme for non local part
 use partial core corrections
 calculate Harris-corrections to forces 
   (improved forces if not selfconsistent)
 use gradient corrections 
 use of overlap-Matrix (Vanderbilt PP)
 Gauss-broadening in eV      SIGMA  =   0.01


--------------------------------------------------------------------------------------------------------


  energy-cutoff  :      700.00
  volume of cell :     4502.96
      direct lattice vectors                 reciprocal lattice vectors
    16.002676010  0.000000000  0.000000000     0.062489549 -0.036078356  0.000000000
     8.001338005 13.858724594  0.000000000     0.000000000  0.072156712  0.000000000
     0.000000000  0.000000000 20.304012299     0.000000000  0.000000000  0.049251349

  length of vectors
    16.002676010 16.002676565 20.304012299     0.072156715  0.072156712  0.049251349


 
 k-points in units of 2pi/SCALE and weight: Automatic KPOINTS generated             
   0.00000000  0.00000000  0.00000000       0.125
   0.03124477 -0.01803918  0.00000000       0.125
   0.03124477  0.01803918  0.00000000       0.125
   0.00000000  0.03607836  0.00000000       0.125
   0.00000000  0.00000000  0.02462567       0.125
   0.03124477 -0.01803918  0.02462567       0.125
   0.03124477  0.01803918  0.02462567       0.125
   0.00000000  0.03607836  0.02462567       0.125
 
 k-points in reciprocal lattice and weights: Automatic KPOINTS generated             
   0.00000000  0.00000000  0.00000000       0.125
   0.50000000 -0.00000000  0.00000000       0.125
   0.50000000  0.50000000  0.00000000       0.125
   0.00000000  0.50000000  0.00000000       0.125
   0.00000000  0.00000000  0.50000000       0.125
   0.50000000 -0.00000000  0.50000000       0.125
   0.50000000  0.50000000  0.50000000       0.125
   0.00000000  0.50000000  0.50000000       0.125
 
 position of ions in fractional coordinates (direct lattice) 
   0.31088322  0.31088316  0.32176235
   0.97755003  0.97755003  0.00000002
   0.64421654  0.64421660  0.16088121
   0.81088316  0.31088316  0.32176235
   0.47755000  0.97755003  0.00000003
   0.14421658  0.64421660  0.16088121
   0.31088316  0.81088316  0.32176235
   0.97755003  0.47755000  0.00000003
   0.64421660  0.14421658  0.16088121
   0.81088316  0.81088316  0.32176235
   0.47755000  0.47755000  0.00000000
   0.14421657  0.14421657  0.16088118
   0.47754979  0.47754973  0.36198267
   0.14421669  0.14421661  0.04022033
   0.81088328  0.81088322  0.20110148
   0.97754979  0.47754967  0.36198267
   0.64421666  0.14421663  0.04022033
   0.31088328  0.81088322  0.20110148
   0.47754967  0.97754979  0.36198267
   0.14421663  0.64421666  0.04022033
   0.81088322  0.31088328  0.20110148
   0.97754967  0.97754979  0.36198264
   0.64421660  0.64421666  0.04022033
   0.31088316  0.31088325  0.20110145
   0.56088316  0.56088316  0.32176238
   0.22755001  0.22755001  0.00000003
   0.89421660  0.89421660  0.16088118
   0.06088321  0.56088316  0.32176241
   0.72755003  0.22755005  0.00000003
   0.39421660  0.89421660  0.16088121
   0.56088316  0.06088318  0.32176235
   0.22755001  0.72754997  0.00000001
   0.89421654  0.39421660  0.16088118
   0.06088319  0.06088311  0.32176235
   0.72755003  0.72754991  0.00000002
   0.39421663  0.39421657  0.16088121
   0.72754979  0.72754979  0.36198264
   0.39421663  0.39421663  0.04022027
   0.06088319  0.06088319  0.20110145
   0.22754979  0.72754979  0.36198264
   0.89421660  0.39421663  0.04022029
   0.56088316  0.06088319  0.20110145
   0.72754979  0.22754985  0.36198264
   0.39421663  0.89421666  0.04022029
   0.06088320  0.56088328  0.20110145
   0.22754985  0.22754985  0.36198264
   0.89421672  0.89421666  0.04022028
   0.56088328  0.56088328  0.20110145
   0.31088316  0.56088316  0.32176235
   0.97755003  0.22755001  0.00000002
   0.64421654  0.89421660  0.16088121
   0.81088316  0.56088316  0.32176238
   0.47755003  0.22755001  0.00000003
   0.14421660  0.89421660  0.16088121
   0.31088316  0.06088318  0.32176235
   0.97755003  0.72754997  0.00000003
   0.64421660  0.39421660  0.16088121
   0.81088316  0.06088309  0.32176235
   0.47755000  0.72754991  0.00000002
   0.14421661  0.39421654  0.16088118
   0.47754979  0.72754979  0.36198264
   0.14421661  0.39421660  0.04022029
   0.81088316  0.06088319  0.20110145
   0.97754973  0.72754979  0.36198264
   0.64421660  0.39421663  0.04022029
   0.31088316  0.06088319  0.20110145
   0.47754973  0.22754985  0.36198261
   0.14421663  0.89421666  0.04022028
   0.81088316  0.56088328  0.20110145
   0.97754979  0.22754985  0.36198261
   0.64421666  0.89421666  0.04022027
   0.31088322  0.56088328  0.20110145
   0.56088311  0.31088316  0.32176235
   0.22755001  0.97755003  0.00000002
   0.89421660  0.64421660  0.16088121
   0.06088318  0.31088316  0.32176238
   0.72754997  0.97755003  0.00000003
   0.39421663  0.64421660  0.16088121
   0.56088316  0.81088316  0.32176238
   0.22755000  0.47755000  0.00000003
   0.89421660  0.14421658  0.16088121
   0.06088318  0.81088311  0.32176235
   0.72754997  0.47754994  0.00000001
   0.39421660  0.14421654  0.16088118
   0.72754979  0.47754985  0.36198267
   0.39421669  0.14421672  0.04022032
   0.06088328  0.81088334  0.20110148
   0.22754967  0.47754985  0.36198267
   0.89421666  0.14421673  0.04022032
   0.56088328  0.81088334  0.20110145
   0.72754979  0.97754985  0.36198264
   0.39421669  0.64421672  0.04022033
   0.06088328  0.31088337  0.20110148
   0.22754973  0.97754979  0.36198267
   0.89421666  0.64421666  0.04022032
   0.56088328  0.31088328  0.20110145
   0.81115145  0.72327053  0.47340384
   0.14448480  0.72327053  0.65792602
   0.47781819  0.72327053  0.84244823
   0.47781801  0.38993716  0.47340381
   0.81115145  0.38993716  0.65792602
   0.14448480  0.38993716  0.84244823
   0.14448464  0.05660377  0.47340384
   0.47781801  0.05660377  0.65792602
   0.81115145  0.05660377  0.84244823
   0.14448468  0.72327053  0.51953435
   0.47781819  0.72327053  0.70405662
   0.81115145  0.72327053  0.88857883
   0.81115145  0.38993716  0.51953441
   0.14448480  0.38993716  0.70405662
   0.47781819  0.38993716  0.88857883
   0.47781801  0.05660377  0.51953435
   0.81115139  0.05660377  0.70405662
   0.14448468  0.05660377  0.88857889
   0.47781801  0.88993716  0.47340384
   0.81115133  0.88993716  0.65792602
   0.14448480  0.88993716  0.84244823
   0.14448465  0.55660379  0.47340384
   0.47781807  0.55660379  0.65792608
   0.81115145  0.55660385  0.84244823
   0.81115145  0.22327046  0.47340384
   0.14448480  0.22327046  0.65792602
   0.47781807  0.22327048  0.84244823
   0.81115139  0.88993716  0.51953435
   0.14448468  0.88993716  0.70405662
   0.47781807  0.88993716  0.88857889
   0.47781801  0.55660379  0.51953435
   0.81115139  0.55660379  0.70405656
   0.14448492  0.55660379  0.88857889
   0.14448468  0.22327046  0.51953435
   0.47781795  0.22327046  0.70405650
   0.81115145  0.22327046  0.88857889
   0.31115136  0.72327053  0.47340384
   0.64448476  0.72327053  0.65792608
   0.97781813  0.72327053  0.84244823
   0.97781813  0.38993716  0.47340387
   0.31115156  0.38993716  0.65792602
   0.64448482  0.38993716  0.84244823
   0.64448470  0.05660377  0.47340381
   0.97781807  0.05660377  0.65792602
   0.31115145  0.05660377  0.84244823
   0.64448470  0.72327053  0.51953429
   0.97781801  0.72327053  0.70405650
   0.31115145  0.72327053  0.88857889
   0.31115130  0.38993710  0.51953435
   0.64448470  0.38993716  0.70405656
   0.97781807  0.38993716  0.88857889
   0.97781807  0.05660377  0.51953435
   0.31115145  0.05660377  0.70405656
   0.64448494  0.05660377  0.88857883
   0.97781801  0.88993722  0.47340381
   0.31115145  0.88993722  0.65792602
   0.64448482  0.88993722  0.84244823
   0.64448470  0.55660379  0.47340384
   0.97781801  0.55660379  0.65792602
   0.31115145  0.55660379  0.84244823
   0.31115133  0.22327046  0.47340384
   0.64448476  0.22327046  0.65792602
   0.97781813  0.22327046  0.84244823
   0.31115121  0.88993722  0.51953441
   0.64448464  0.88993722  0.70405662
   0.97781789  0.88993722  0.88857889
   0.97781801  0.55660385  0.51953441
   0.31115145  0.55660385  0.70405662
   0.64448482  0.55660385  0.88857889
   0.64448470  0.22327043  0.51953441
   0.97781801  0.22327045  0.70405662
   0.31115133  0.22327045  0.88857889
 
 position of ions in cartesian coordinates  (Angst):
   7.46244479  4.30844415  6.53306677
  23.46512462 13.54759664  0.00000051
  15.46378326  8.92802040  3.26653399
  15.46378183  4.30844415  6.53306677
  15.46378614 13.54759664  0.00000067
   7.46244598  8.92802040  3.26653399
  11.46311283 11.23780645  6.53306677
  19.46445538  6.61823393  0.00000063
  11.46311510  1.99865789  3.26653399
  19.46445083 11.23780645  6.53306677
  11.46311689  6.61823393  0.00000000
   3.46177650  1.99865768  3.26653340
  11.46311140  6.61823022  7.34970064
   3.46177876  1.99865831  0.81663410
  19.46445323 11.23780728  4.08316696
  19.46444893  6.61822938  7.34970064
  11.46311642  1.99865852  0.81663410
  11.46311523 11.23780728  4.08316696
  15.46377897 13.54759333  7.34970064
   7.46244718  8.92802123  0.81663410
  15.46378375  4.30844581  4.08316696
  23.46511698 13.54759333  7.34970006
  15.46378470  8.92802123  0.81663410
   7.46244455  4.30844540  4.08316635
  13.46344733  7.77312530  6.53306738
   5.46211375  3.15355299  0.00000071
  21.46478773 12.39270155  3.26653340
   5.46211011  7.77312530  6.53306799
  13.46345223  3.15355341  0.00000071
  13.46344972 12.39270155  3.26653399
   9.46277842  0.84376317  6.53306677
   9.46278239 10.08291466  0.00000024
  17.46411776  5.46333925  3.26653340
   1.46144027  0.84376218  6.53306677
  17.46412016 10.08291384  0.00000047
   9.46278096  5.46333883  3.26653399
  17.46411538 10.08291218  7.34970006
   9.46278144  5.46333966  0.81663282
   1.46144101  0.84376336  4.08316635
   9.46277737 10.08291218  7.34970006
  17.46411896  5.46333966  0.81663320
   9.46277853  0.84376336  4.08316635
  13.46344686  3.15355072  7.34970006
  13.46345068 12.39270238  0.81663320
   5.46211089  7.77312696  4.08316635
   5.46210981  3.15355072  7.34970006
  21.46479011 12.39270238  0.81663298
  13.46345021  7.77312696  4.08316635
   9.46277833  7.77312530  6.53306677
  17.46412100  3.15355299  0.00000041
  17.46411776 12.39270155  3.26653399
  17.46411633  7.77312530  6.53306738
   9.46278299  3.15355299  0.00000055
   9.46278072 12.39270155  3.26653399
   5.46210942  0.84376317  6.53306677
  21.46478964 10.08291466  0.00000055
  13.46344972  5.46333925  3.26653399
  13.46344674  0.84376198  6.53306677
  13.46345068 10.08291384  0.00000047
   5.46211148  5.46333842  3.26653340
  13.46344638 10.08291218  7.34970006
   5.46211196  5.46333925  0.81663320
  13.46344754  0.84376336  4.08316635
  21.46478344 10.08291218  7.34970006
  13.46344996  5.46333966  0.81663320
   5.46210953  0.84376336  4.08316635
   9.46277691  3.15355072  7.34969945
   9.46278168 12.39270238  0.81663298
  17.46411729  7.77312696  4.08316635
  17.46411586  3.15355072  7.34969945
  17.46412016 12.39270238  0.81663282
   9.46278025  7.77312696  4.08316635
  11.46311188  4.30844415  6.53306677
  11.46311737 13.54759664  0.00000045
  19.46445323  8.92802040  3.26653399
   3.46177513  4.30844415  6.53306738
  19.46445466 13.54759664  0.00000059
  11.46311570  8.92802040  3.26653399
  15.46378183 11.23780645  6.53306738
   7.46244789  6.61823393  0.00000063
  15.46378410  1.99865789  3.26653399
   7.46244359 11.23780563  6.53306677
  15.46378494  6.61823310  0.00000028
   7.46244574  1.99865727  3.26653340
  15.46378136  6.61823186  7.34970064
   7.46244859  1.99865975  0.81663379
   7.46244718 11.23780893  4.08316696
   7.46244145  6.61823186  7.34970064
  15.46378626  1.99865996  0.81663395
  15.46378518 11.23780893  4.08316635
  19.46445036 13.54759416  7.34970006
  11.46311760  8.92802205  0.81663410
   3.46177829  4.30844705  4.08316696
  11.46311093 13.54759333  7.34970064
  19.46445467  8.92802123  0.81663379
  11.46311571  4.30844581  4.08316635
  18.76772579 10.02360715  9.61199741
   8.09927551 10.02360715 13.35853806
  13.43350172 10.02360715 17.10507932
  10.76638587  5.40403174  9.61199680
  16.10061280  5.40403174 13.35853806
   5.43216252  5.40403174 17.10507932
   2.76504679  0.78445611  9.61199741
   8.09927277  0.78445611 13.35853806
  13.43349970  0.78445611 17.10507932
   8.09927361 10.02360715 10.54863181
  13.43350172 10.02360715 14.29517429
  18.76772579 10.02360715 18.04171553
  16.10061280  5.40403174 10.54863303
   5.43216252  5.40403174 14.29517429
  10.76638874  5.40403174 18.04171553
   8.09927277  0.78445611 10.54863181
  13.43349874  0.78445611 14.29517429
   2.76504751  0.78445611 18.04171675
  14.76705487 12.33339403  9.61199741
  20.10127990 12.33339403 13.35853806
   9.43283153 12.33339403 17.10507932
   6.76571616  7.71381862  9.61199741
  12.09994285  7.71381862 13.35853928
  17.43416930  7.71381945 17.10507932
  14.76705619  3.09424383  9.61199741
   4.09860592  3.09424383 13.35853806
   9.43283034  3.09424404 17.10507932
  20.10128085 12.33339403 10.54863181
   9.43282962 12.33339403 14.29517429
  14.76705583 12.33339403 18.04171675
  12.09994189  7.71381862 10.54863181
  17.43416786  7.71381862 14.29517307
   6.76572045  7.71381862 18.04171675
   4.09860401  3.09424383 10.54863181
   9.43282832  3.09424383 14.29517186
  14.76705619  3.09424383 18.04171675
  10.76638636 10.02360715  9.61199741
  16.10061280 10.02360715 13.35853928
  21.43483877 10.02360715 17.10507932
  18.76772578  5.40403174  9.61199802
   8.09927670  5.40403174 13.35853806
  13.43350077  5.40403174 17.10507932
  10.76638576  0.78445611  9.61199680
  16.10061173  0.78445611 13.35853806
   5.43216169  0.78445611 17.10507932
  16.10061185 10.02360715 10.54863061
  21.43483686 10.02360715 14.29517186
  10.76638778 10.02360715 18.04171675
   8.09927194  5.40403092 10.54863181
  13.43349887  5.40403174 14.29517307
  18.76772484  5.40403174 18.04171675
  16.10061173  0.78445611 10.54863181
   5.43216169  0.78445611 14.29517307
  10.76638957  0.78445611 18.04171553
  22.76839336 12.33339487  9.61199680
  12.09994428 12.33339487 13.35853806
  17.43417025 12.33339487 17.10507932
  14.76705488  7.71381862  9.61199741
  20.10127989  7.71381862 13.35853806
   9.43283082  7.71381862 17.10507932
   6.76571629  3.09424383  9.61199741
  12.09994320  3.09424383 13.35853806
  17.43416917  3.09424383 17.10507932
  12.09994046 12.33339487 10.54863303
  17.43416739 12.33339487 14.29517429
  22.76839145 12.33339487 18.04171675
  20.10128037  7.71381945 10.54863303
   9.43283130  7.71381945 14.29517429
  14.76705727  7.71381945 18.04171675
  12.09994202  3.09424341 10.54863303
  17.43416715  3.09424362 14.29517429
   6.76571617  3.09424362 18.04171675
 


--------------------------------------------------------------------------------------------------------


 k-point     1 :   0.0000 0.0000 0.0000  plane waves:  189411
 k-point     2 :   0.5000-0.0000 0.0000  plane waves:  189322
 k-point     3 :   0.5000 0.5000 0.0000  plane waves:  189322
 k-point     4 :   0.0000 0.5000 0.0000  plane waves:  189322
 k-point     5 :   0.0000 0.0000 0.5000  plane waves:  189472
 k-point     6 :   0.5000-0.0000 0.5000  plane waves:  189324
 k-point     7 :   0.5000 0.5000 0.5000  plane waves:  189324
 k-point     8 :   0.0000 0.5000 0.5000  plane waves:  189324

 maximum and minimum number of plane-waves per node :     11888    11777

 maximum number of plane-waves:    189472
 maximum index in each direction: 
   IXMAX=   34   IYMAX=   34   IZMAX=   43
   IXMIN=  -35   IYMIN=  -35   IZMIN=  -44


 real space projection operators:
  total allocation   :      70212.59 KBytes
  max/ min on nodes  :       4609.92       3822.41


 parallel 3D FFT for wavefunctions:
    minimum data exchange during FFTs selected (reduces bandwidth)
 parallel 3D FFT for charge:
    minimum data exchange during FFTs selected (reduces bandwidth)


 total amount of memory used by VASP MPI-rank0   425454. kBytes
=======================================================================

   base      :      30000. kBytes
   nonlr-proj:      22787. kBytes
   fftplans  :      34262. kBytes
   grid      :      27955. kBytes
   one-center:        178. kBytes
   wavefun   :     310272. kBytes
 
     INWAV:  cpu time      0.0000: real time      0.0002
 Broyden mixing: mesh for mixing (old mesh)
   NGX = 69   NGY = 69   NGZ = 87
  (NGX  =216   NGY  =216   NGZ  =280)
  gives a total of 414207 points

 initial charge density was supplied:
 charge density of overlapping atoms calculated
 number of electron     672.0000000 magnetization       1.0000000
 keeping initial charge density in first step


--------------------------------------------------------------------------------------------------------


 Maximum index for non-local projection operator          482
 Maximum index for augmentation-charges         5495 (set IRDMAX)


--------------------------------------------------------------------------------------------------------


 First call to EWALD:  gamma=   0.107
 Maximum number of real-space cells 3x 3x 2
 Maximum number of reciprocal cells 3x 3x 3

    FEWALD:  cpu time      0.0052: real time      0.0052


--------------------------------------- Ionic step        1  -------------------------------------------




--------------------------------------- Iteration      1(   1)  ---------------------------------------


    POTLOK:  cpu time      0.4151: real time      0.4189
    SETDIJ:  cpu time      2.5366: real time      2.5527
     EDDAV:  cpu time     76.6911: real time     77.3923
       DOS:  cpu time      0.0044: real time      0.0044
    --------------------------------------------
      LOOP:  cpu time     79.6473: real time     80.3683

 eigenvalue-minimisations  : 12928
 total energy-change (2. order) : 0.3390099E+04  (-0.2816983E+05)
 number of electron     672.0000000 magnetization       1.0000000
 augmentation part      672.0000000 magnetization       1.0000000

 Free energy of the ion-electron system (eV)
  ---------------------------------------------------
  alpha Z        PSCENC =      1020.59519491
  Ewald energy   TEWEN  =    -14123.77335935
  -Hartree energ DENC   =     -4354.26429764
  -exchange      EXHF   =         0.00000000
  -V(xc)+E(xc)   XCENC  =     -9235.83391754
  PAW double counting   =     22099.84193803   -11791.56227843
  entropy T*S    EENTRO =        -0.00191768
  eigenvalues    EBANDS =      2921.29971991
  atomic energy  EATOM  =     16853.79812076
  Solvation  Ediel_sol  =         0.00000000
  ---------------------------------------------------
  free energy    TOTEN  =      3390.09920297 eV

  energy without entropy =     3390.10112065  energy(sigma->0) =     3390.10016181


--------------------------------------------------------------------------------------------------------




--------------------------------------- Iteration      1(   2)  ---------------------------------------


     EDDAV:  cpu time     86.6656: real time     87.4880
       DOS:  cpu time      0.0057: real time      0.0058
    --------------------------------------------
      LOOP:  cpu time     86.6714: real time     87.4939

 eigenvalue-minimisations  : 15120
 total energy-change (2. order) :-0.3662168E+04  (-0.3539895E+04)
 number of electron     672.0000000 magnetization       1.0000000
 augmentation part      672.0000000 magnetization       1.0000000

 Free energy of the ion-electron system (eV)
  ---------------------------------------------------
  alpha Z        PSCENC =      1020.59519491
  Ewald energy   TEWEN  =    -14123.77335935
  -Hartree energ DENC   =     -4354.26429764
  -exchange      EXHF   =         0.00000000
  -V(xc)+E(xc)   XCENC  =     -9235.83391754
  PAW double counting   =     22099.84193803   -11791.56227843
  entropy T*S    EENTRO =        -0.00156108
  eigenvalues    EBANDS =      -740.86820664
  atomic energy  EATOM  =     16853.79812076
  Solvation  Ediel_sol  =         0.00000000
  ---------------------------------------------------
  free energy    TOTEN  =      -272.06836698 eV

  energy without entropy =     -272.06680590  energy(sigma->0) =     -272.06758644


--------------------------------------------------------------------------------------------------------




--------------------------------------- Iteration      1(   3)  ---------------------------------------


     EDDAV:  cpu time     90.4997: real time     91.3887
       DOS:  cpu time      0.0045: real time      0.0045
    --------------------------------------------
      LOOP:  cpu time     90.5041: real time     91.3932

 eigenvalue-minimisations  : 15952
 total energy-change (2. order) :-0.4037486E+03  (-0.3917857E+03)
 number of electron     672.0000000 magnetization       1.0000000
 augmentation part      672.0000000 magnetization       1.0000000

 Free energy of the ion-electron system (eV)
  ---------------------------------------------------
  alpha Z        PSCENC =      1020.59519491
  Ewald energy   TEWEN  =    -14123.77335935
  -Hartree energ DENC   =     -4354.26429764
  -exchange      EXHF   =         0.00000000
  -V(xc)+E(xc)   XCENC  =     -9235.83391754
  PAW double counting   =     22099.84193803   -11791.56227843
  entropy T*S    EENTRO =        -0.00209166
  eigenvalues    EBANDS =     -1144.61629017
  atomic energy  EATOM  =     16853.79812076
  Solvation  Ediel_sol  =         0.00000000
  ---------------------------------------------------
  free energy    TOTEN  =      -675.81698110 eV

  energy without entropy =     -675.81488943  energy(sigma->0) =     -675.81593527


--------------------------------------------------------------------------------------------------------




--------------------------------------- Iteration      1(   4)  ---------------------------------------


     EDDAV:  cpu time     88.9899: real time     89.8087
       DOS:  cpu time      0.0048: real time      0.0048
    --------------------------------------------
      LOOP:  cpu time     88.9946: real time     89.8135

 eigenvalue-minimisations  : 15632
 total energy-change (2. order) :-0.1665631E+02  (-0.1632366E+02)
 number of electron     672.0000000 magnetization       1.0000000
 augmentation part      672.0000000 magnetization       1.0000000

 Free energy of the ion-electron system (eV)
  ---------------------------------------------------
  alpha Z        PSCENC =      1020.59519491
  Ewald energy   TEWEN  =    -14123.77335935
  -Hartree energ DENC   =     -4354.26429764
  -exchange      EXHF   =         0.00000000
  -V(xc)+E(xc)   XCENC  =     -9235.83391754
  PAW double counting   =     22099.84193803   -11791.56227843
  entropy T*S    EENTRO =        -0.00259476
  eigenvalues    EBANDS =     -1161.27209267
  atomic energy  EATOM  =     16853.79812076
  Solvation  Ediel_sol  =         0.00000000
  ---------------------------------------------------
  free energy    TOTEN  =      -692.47328669 eV

  energy without entropy =     -692.47069193  energy(sigma->0) =     -692.47198931


--------------------------------------------------------------------------------------------------------




--------------------------------------- Iteration      1(   5)  ---------------------------------------


     EDDAV:  cpu time     95.0789: real time     96.0498
       DOS:  cpu time      0.0045: real time      0.0046
    CHARGE:  cpu time      4.6510: real time      4.7019
    MIXING:  cpu time      0.0108: real time      0.0109
    --------------------------------------------
      LOOP:  cpu time     99.7452: real time    100.7672

 eigenvalue-minimisations  : 16992
 total energy-change (2. order) :-0.6935219E+00  (-0.6884227E+00)
 number of electron     671.9999994 magnetization       1.0000000
 augmentation part     -141.2930813 magnetization      -0.1370580

 Broyden mixing:
  rms(total) = 0.28353E+01    rms(broyden)= 0.28353E+01
  rms(prec ) = 0.30392E+01
  weight for this iteration     100.00

 Free energy of the ion-electron system (eV)
  ---------------------------------------------------
  alpha Z        PSCENC =      1020.59519491
  Ewald energy   TEWEN  =    -14123.77335935
  -Hartree energ DENC   =     -4354.26429764
  -exchange      EXHF   =         0.00000000
  -V(xc)+E(xc)   XCENC  =     -9235.83391754
  PAW double counting   =     22099.84193803   -11791.56227843
  entropy T*S    EENTRO =        -0.00249436
  eigenvalues    EBANDS =     -1161.96571495
  atomic energy  EATOM  =     16853.79812076
  Solvation  Ediel_sol  =         0.00000000
  ---------------------------------------------------
  free energy    TOTEN  =      -693.16680858 eV

  energy without entropy =     -693.16431421  energy(sigma->0) =     -693.16556139


--------------------------------------------------------------------------------------------------------




--------------------------------------- Iteration      1(   6)  ---------------------------------------


    POTLOK:  cpu time      0.3934: real time      0.3979
    SETDIJ:  cpu time      2.5392: real time      2.5573
     EDDAV:  cpu time    107.0641: real time    108.0689
       DOS:  cpu time      0.0032: real time      0.0032
    CHARGE:  cpu time      4.6358: real time      4.6812
    MIXING:  cpu time      0.0095: real time      0.0096
    --------------------------------------------
      LOOP:  cpu time    114.6452: real time    115.7180

 eigenvalue-minimisations  : 19664
 total energy-change (2. order) : 0.8649950E+01  (-0.1748629E+01)
 number of electron     671.9999994 magnetization       1.0000000
 augmentation part     -141.4031523 magnetization      -0.1114771

 Broyden mixing:
  rms(total) = 0.13937E+01    rms(broyden)= 0.13937E+01
  rms(prec ) = 0.15358E+01
  weight for this iteration     100.00

 eigenvalues of (default mixing * dielectric matrix)
  average eigenvalue GAMMA=   1.7608
  1.7608

 Free energy of the ion-electron system (eV)
  ---------------------------------------------------
  alpha Z        PSCENC =      1020.59519491
  Ewald energy   TEWEN  =    -14123.77335935
  -Hartree energ DENC   =     -4520.18003669
  -exchange      EXHF   =         0.00000000
  -V(xc)+E(xc)   XCENC  =     -9208.49415975
  PAW double counting   =     31281.60924842   -20994.69631346
  entropy T*S    EENTRO =        -0.00592313
  eigenvalues    EBANDS =      -993.36963064
  atomic energy  EATOM  =     16853.79812076
  Solvation  Ediel_sol  =         0.00000000
  ---------------------------------------------------
  free energy    TOTEN  =      -684.51685892 eV

  energy without entropy =     -684.51093579  energy(sigma->0) =     -684.51389736


--------------------------------------------------------------------------------------------------------




--------------------------------------- Iteration      1(   7)  ---------------------------------------


    POTLOK:  cpu time      0.3943: real time      0.3974
    SETDIJ:  cpu time      2.5413: real time      2.5578
     EDDAV:  cpu time     92.9896: real time     93.8714
       DOS:  cpu time      0.0034: real time      0.0034
    CHARGE:  cpu time      4.6170: real time      4.6628
    MIXING:  cpu time      0.0140: real time      0.0141
    --------------------------------------------
      LOOP:  cpu time    100.5596: real time    101.5070

 eigenvalue-minimisations  : 16512
 total energy-change (2. order) :-0.5424159E+00  (-0.2001867E+01)
 number of electron     671.9999994 magnetization       1.0000000
 augmentation part     -140.5281199 magnetization      -0.1593309

 Broyden mixing:
  rms(total) = 0.59497E+00    rms(broyden)= 0.59497E+00
  rms(prec ) = 0.96292E+00
  weight for this iteration     100.00

 eigenvalues of (default mixing * dielectric matrix)
  average eigenvalue GAMMA=   1.1997
  1.8720  0.5275

 Free energy of the ion-electron system (eV)
  ---------------------------------------------------
  alpha Z        PSCENC =      1020.59519491
  Ewald energy   TEWEN  =    -14123.77335935
  -Hartree energ DENC   =     -4543.45318897
  -exchange      EXHF   =         0.00000000
  -V(xc)+E(xc)   XCENC  =     -9191.48636511
  PAW double counting   =     38764.63668190   -28492.08427527
  entropy T*S    EENTRO =        -0.00165714
  eigenvalues    EBANDS =      -973.29042650
  atomic energy  EATOM  =     16853.79812076
  Solvation  Ediel_sol  =         0.00000000
  ---------------------------------------------------
  free energy    TOTEN  =      -685.05927478 eV

  energy without entropy =     -685.05761764  energy(sigma->0) =     -685.05844621


--------------------------------------------------------------------------------------------------------




--------------------------------------- Iteration      1(   8)  ---------------------------------------


    POTLOK:  cpu time      0.3945: real time      0.3976
    SETDIJ:  cpu time      2.5388: real time      2.5555
     EDDAV:  cpu time     91.4987: real time     92.3360
       DOS:  cpu time      0.0040: real time      0.0041
    CHARGE:  cpu time      4.5949: real time      4.6397
    MIXING:  cpu time      0.0207: real time      0.0208
    --------------------------------------------
      LOOP:  cpu time     99.0517: real time     99.9537

 eigenvalue-minimisations  : 16200
 total energy-change (2. order) : 0.1824571E+01  (-0.6847377E+00)
 number of electron     671.9999994 magnetization       1.0000000
 augmentation part     -140.3414520 magnetization      -0.1257131

 Broyden mixing:
  rms(total) = 0.17124E+00    rms(broyden)= 0.17124E+00
  rms(prec ) = 0.25563E+00
  weight for this iteration     100.00

 eigenvalues of (default mixing * dielectric matrix)
  average eigenvalue GAMMA=   1.0525
  1.8784  0.6395  0.6395

 Free energy of the ion-electron system (eV)
  ---------------------------------------------------
  alpha Z        PSCENC =      1020.59519491
  Ewald energy   TEWEN  =    -14123.77335935
  -Hartree energ DENC   =     -4583.34475991
  -exchange      EXHF   =         0.00000000
  -V(xc)+E(xc)   XCENC  =     -9184.77042699
  PAW double counting   =     42410.23478947   -32143.12674879
  entropy T*S    EENTRO =        -0.00405570
  eigenvalues    EBANDS =      -932.84345860
  atomic energy  EATOM  =     16853.79812076
  Solvation  Ediel_sol  =         0.00000000
  ---------------------------------------------------
  free energy    TOTEN  =      -683.23470421 eV

  energy without entropy =     -683.23064851  energy(sigma->0) =     -683.23267636


--------------------------------------------------------------------------------------------------------




--------------------------------------- Iteration      1(   9)  ---------------------------------------


    POTLOK:  cpu time      0.3939: real time      0.3979
    SETDIJ:  cpu time      2.5387: real time      2.5545
     EDDAV:  cpu time     88.6102: real time     89.4653
       DOS:  cpu time      0.0023: real time      0.0023
    CHARGE:  cpu time      4.6350: real time      4.6827
    MIXING:  cpu time      0.0102: real time      0.0105
    --------------------------------------------
      LOOP:  cpu time     96.1902: real time     97.1132

 eigenvalue-minimisations  : 15568
 total energy-change (2. order) :-0.3752715E-01  (-0.1985006E+00)
 number of electron     671.9999994 magnetization       1.0000000
 augmentation part     -140.2667497 magnetization      -0.1128206

 Broyden mixing:
  rms(total) = 0.10770E+00    rms(broyden)= 0.10770E+00
  rms(prec ) = 0.11971E+00
  weight for this iteration     100.00

 eigenvalues of (default mixing * dielectric matrix)
  average eigenvalue GAMMA=   1.0930
  1.7830  1.5045  0.5423  0.5423

 Free energy of the ion-electron system (eV)
  ---------------------------------------------------
  alpha Z        PSCENC =      1020.59519491
  Ewald energy   TEWEN  =    -14123.77335935
  -Hartree energ DENC   =     -4590.04221945
  -exchange      EXHF   =         0.00000000
  -V(xc)+E(xc)   XCENC  =     -9184.40809141
  PAW double counting   =     42956.69920227   -32690.02709261
  entropy T*S    EENTRO =        -0.00379789
  eigenvalues    EBANDS =      -926.11018858
  atomic energy  EATOM  =     16853.79812076
  Solvation  Ediel_sol  =         0.00000000
  ---------------------------------------------------
  free energy    TOTEN  =      -683.27223136 eV

  energy without entropy =     -683.26843347  energy(sigma->0) =     -683.27033241


--------------------------------------------------------------------------------------------------------




--------------------------------------- Iteration      1(  10)  ---------------------------------------


    POTLOK:  cpu time      0.3968: real time      0.3998
    SETDIJ:  cpu time      2.5352: real time      2.5526
     EDDAV:  cpu time     87.2144: real time     88.0787
       DOS:  cpu time      0.0033: real time      0.0033
    CHARGE:  cpu time      4.6386: real time      4.6861
    MIXING:  cpu time      0.0135: real time      0.0136
    --------------------------------------------
      LOOP:  cpu time     94.8018: real time     95.7342

 eigenvalue-minimisations  : 15280
 total energy-change (2. order) :-0.3227714E-02  (-0.3741861E-01)
 number of electron     671.9999994 magnetization       1.0000000
 augmentation part     -140.2840247 magnetization      -0.1139489

 Broyden mixing:
  rms(total) = 0.54064E-01    rms(broyden)= 0.54064E-01
  rms(prec ) = 0.59359E-01
  weight for this iteration     100.00

 eigenvalues of (default mixing * dielectric matrix)
  average eigenvalue GAMMA=   1.1062
  1.8709  1.8709  0.6118  0.6118  0.5656

 Free energy of the ion-electron system (eV)
  ---------------------------------------------------
  alpha Z        PSCENC =      1020.59519491
  Ewald energy   TEWEN  =    -14123.77335935
  -Hartree energ DENC   =     -4584.57634410
  -exchange      EXHF   =         0.00000000
  -V(xc)+E(xc)   XCENC  =     -9184.89785321
  PAW double counting   =     43071.18522446   -32804.30958871
  entropy T*S    EENTRO =        -0.00421420
  eigenvalues    EBANDS =      -931.29263961
  atomic energy  EATOM  =     16853.79812076
  Solvation  Ediel_sol  =         0.00000000
  ---------------------------------------------------
  free energy    TOTEN  =      -683.27545907 eV

  energy without entropy =     -683.27124487  energy(sigma->0) =     -683.27335197


--------------------------------------------------------------------------------------------------------




--------------------------------------- Iteration      1(  11)  ---------------------------------------


    POTLOK:  cpu time      0.3978: real time      0.4010
    SETDIJ:  cpu time      2.5375: real time      2.5547
     EDDAV:  cpu time     87.5460: real time     88.3748
       DOS:  cpu time      0.0038: real time      0.0039
    CHARGE:  cpu time      4.4779: real time      4.5273
    MIXING:  cpu time      0.0220: real time      0.0221
    --------------------------------------------
      LOOP:  cpu time     94.9850: real time     95.8838

 eigenvalue-minimisations  : 15408
 total energy-change (2. order) :-0.1619419E-02  (-0.5129162E-02)
 number of electron     671.9999994 magnetization       1.0000000
 augmentation part     -140.2972114 magnetization      -0.1138175

 Broyden mixing:
  rms(total) = 0.27657E-01    rms(broyden)= 0.27657E-01
  rms(prec ) = 0.29482E-01
  weight for this iteration     100.00

 eigenvalues of (default mixing * dielectric matrix)
  average eigenvalue GAMMA=   1.0377
  1.8428  1.8428  0.6668  0.6668  0.5439  0.6633

 Free energy of the ion-electron system (eV)
  ---------------------------------------------------
  alpha Z        PSCENC =      1020.59519491
  Ewald energy   TEWEN  =    -14123.77335935
  -Hartree energ DENC   =     -4580.73933623
  -exchange      EXHF   =         0.00000000
  -V(xc)+E(xc)   XCENC  =     -9185.09900873
  PAW double counting   =     43215.31317724   -32948.36843816
  entropy T*S    EENTRO =        -0.00376521
  eigenvalues    EBANDS =      -934.99966372
  atomic energy  EATOM  =     16853.79812076
  Solvation  Ediel_sol  =         0.00000000
  ---------------------------------------------------
  free energy    TOTEN  =      -683.27707849 eV

  energy without entropy =     -683.27331328  energy(sigma->0) =     -683.27519588


--------------------------------------------------------------------------------------------------------




--------------------------------------- Iteration      1(  12)  ---------------------------------------


    POTLOK:  cpu time      0.3947: real time      0.3988
    SETDIJ:  cpu time      2.5415: real time      2.5609
     EDDAV:  cpu time     83.8179: real time     84.8130
       DOS:  cpu time      0.0052: real time      0.0052
    CHARGE:  cpu time      4.4927: real time      4.5484
    MIXING:  cpu time      0.0122: real time      0.0123
    --------------------------------------------
      LOOP:  cpu time     91.2641: real time     92.3386

 eigenvalue-minimisations  : 14600
 total energy-change (2. order) : 0.3537349E-03  (-0.1032508E-02)
 number of electron     671.9999994 magnetization       1.0000000
 augmentation part     -140.2955607 magnetization      -0.1175997

 Broyden mixing:
  rms(total) = 0.17827E-01    rms(broyden)= 0.17827E-01
  rms(prec ) = 0.18181E-01
  weight for this iteration     100.00

 eigenvalues of (default mixing * dielectric matrix)
  average eigenvalue GAMMA=   1.0088
  1.8867  1.7342  0.8625  0.8625  0.6090  0.6090  0.4978

 Free energy of the ion-electron system (eV)
  ---------------------------------------------------
  alpha Z        PSCENC =      1020.59519491
  Ewald energy   TEWEN  =    -14123.77335935
  -Hartree energ DENC   =     -4581.70563577
[...]
   -.199E-01 -.369E-01 0.115E+02   -.289E-03 -.713E-03 -.119E+02   0.153E-01 0.376E-01 -.109E+00   0.234E-06 0.440E-06 -.530E-04
   -.529E+01 -.627E+00 0.975E+02   0.457E+01 0.756E+00 -.979E+02   0.285E+00 -.456E-01 -.284E+00   -.553E-05 -.928E-07 0.122E-04
   -.101E+01 0.144E+01 -.799E+02   0.531E+00 -.612E+00 0.803E+02   0.384E+00 -.684E+00 -.169E+00   -.187E-05 0.299E-05 -.346E-04
   0.140E-01 -.416E-02 0.126E+02   0.119E-03 0.233E-03 -.119E+02   -.217E-01 0.119E-01 -.808E+00   -.628E-05 0.131E-05 -.403E-04
   0.163E+01 0.474E+01 0.966E+02   -.113E+01 -.416E+01 -.971E+02   -.155E+00 -.149E+00 0.229E-01   0.144E-04 0.151E-04 0.153E-04
   -.819E+00 -.176E+01 -.800E+02   0.291E+00 0.851E+00 0.804E+02   0.449E+00 0.789E+00 -.262E+00   0.286E-05 0.324E-05 -.523E-04
   -.999E-02 0.628E-02 0.124E+02   0.180E-03 0.454E-03 -.118E+02   0.115E-01 -.590E-02 -.720E+00   0.466E-05 -.159E-05 -.382E-04
   0.363E+01 -.415E+01 0.975E+02   -.340E+01 0.347E+01 -.978E+02   -.995E-01 0.280E+00 -.347E+00   -.943E-05 0.808E-05 0.161E-04
   0.293E+01 0.306E+01 -.967E+02   -.301E+01 -.307E+01 0.971E+02   -.626E-01 -.297E-01 -.261E-01   -.469E-05 -.993E-05 -.275E-04
   -.861E-01 0.958E-02 -.123E+02   0.344E-02 -.478E-02 0.119E+02   0.122E+00 -.106E+00 0.624E+00   -.105E-05 0.508E-06 -.572E-04
   -.215E-01 -.748E-01 0.798E+02   0.102E-01 0.268E-01 -.798E+02   0.259E-01 0.310E-01 -.619E+00   -.120E-06 0.569E-05 0.960E-05
   0.174E+01 -.438E+01 -.976E+02   -.164E+01 0.437E+01 0.980E+02   -.716E-01 0.204E+00 0.294E+00   -.966E-06 0.105E-04 -.244E-04
   0.360E-01 -.473E-01 -.122E+02   0.251E-02 0.595E-02 0.119E+02   0.234E-01 0.146E+00 0.615E+00   -.451E-07 -.200E-06 -.607E-04
   -.766E-01 -.643E-01 0.793E+02   0.322E-01 0.588E-01 -.792E+02   0.279E-01 0.150E-01 -.560E+00   -.203E-05 -.399E-05 0.956E-05
   -.472E+01 0.120E+01 -.974E+02   0.468E+01 -.123E+01 0.977E+02   0.180E+00 -.188E-01 0.303E+00   -.860E-05 -.668E-06 -.129E-04
   0.498E-01 0.454E-01 -.123E+02   -.594E-02 -.127E-02 0.119E+02   -.174E+00 -.180E-01 0.617E+00   -.320E-05 -.591E-06 -.517E-04
   0.638E-01 0.127E+00 0.811E+02   -.466E-01 -.937E-01 -.820E+02   -.272E-01 -.530E-01 0.168E+01   0.210E-05 -.288E-05 0.716E-05
   -.101E+01 0.144E+01 -.799E+02   0.531E+00 -.612E+00 0.803E+02   0.384E+00 -.684E+00 -.169E+00   0.961E-06 -.591E-05 -.461E-04
   0.140E-01 -.418E-02 0.126E+02   0.119E-03 0.247E-03 -.119E+02   -.217E-01 0.119E-01 -.808E+00   0.230E-06 0.122E-05 -.387E-04
   0.163E+01 0.474E+01 0.966E+02   -.113E+01 -.416E+01 -.971E+02   -.155E+00 -.149E+00 0.229E-01   0.339E-06 -.230E-05 0.146E-04
   -.819E+00 -.176E+01 -.800E+02   0.291E+00 0.851E+00 0.804E+02   0.449E+00 0.789E+00 -.262E+00   -.143E-06 0.845E-05 -.491E-04
   -.998E-02 0.630E-02 0.124E+02   0.179E-03 0.433E-03 -.118E+02   0.115E-01 -.590E-02 -.720E+00   -.246E-07 -.512E-06 -.377E-04
   0.363E+01 -.415E+01 0.975E+02   -.340E+01 0.347E+01 -.978E+02   -.995E-01 0.280E+00 -.347E+00   -.146E-05 0.147E-05 0.123E-04
   0.180E+01 0.227E+00 -.799E+02   -.819E+00 -.235E+00 0.802E+02   -.819E+00 -.247E-02 -.166E+00   0.526E-05 -.547E-06 -.344E-04
   -.199E-01 -.369E-01 0.115E+02   -.295E-03 -.644E-03 -.119E+02   0.153E-01 0.376E-01 -.109E+00   0.922E-06 -.145E-05 -.604E-04
   -.529E+01 -.627E+00 0.975E+02   0.457E+01 0.756E+00 -.979E+02   0.285E+00 -.456E-01 -.284E+00   0.137E-04 0.117E-05 0.198E-04
 -----------------------------------------------------------------------------------------------
   -.385E+00 -.774E+00 0.588E+01   0.258E-13 0.245E-13 0.227E-12   -.752E+00 0.629E+00 -.564E+01   -.543E-06 -.109E-05 0.103E-02
 
 
 POSITION                                       TOTAL-FORCE (eV/Angst)
 -----------------------------------------------------------------------------------
      7.46244      4.30844      6.53307        -0.018710     -0.192116     -0.396284
     23.46512     13.54760      0.00000         0.045430     -0.312730      0.063630
     15.46378      8.92802      3.26653         0.071569      0.268015      0.180616
     15.46378      4.30844      6.53307        -0.018710     -0.192116     -0.396284
     15.46379     13.54760      0.00000         0.045430     -0.312730      0.063630
      7.46245      8.92802      3.26653         0.071569      0.268015      0.180616
     11.46311     11.23781      6.53307        -0.018710     -0.192116     -0.396284
     19.46446      6.61823      0.00000         0.045430     -0.312730      0.063630
     11.46312      1.99866      3.26653         0.071569      0.268015      0.180616
     19.46445     11.23781      6.53307        -0.018710     -0.192116     -0.396284
     11.46312      6.61823      0.00000         0.045430     -0.312730      0.063630
      3.46178      1.99866      3.26653         0.071569      0.268015      0.180616
     11.46311      6.61823      7.34970        -0.246855     -0.183113     -0.224333
      3.46178      1.99866      0.81663         0.074780     -0.188230      0.339782
     19.46445     11.23781      4.08317         0.054423      0.258840     -0.168037
     19.46445      6.61823      7.34970        -0.246855     -0.183113     -0.224333
     11.46312      1.99866      0.81663         0.074780     -0.188230      0.339782
     11.46312     11.23781      4.08317         0.054423      0.258840     -0.168037
     15.46378     13.54759      7.34970        -0.246855     -0.183113     -0.224333
      7.46245      8.92802      0.81663         0.074780     -0.188230      0.339782
     15.46378      4.30845      4.08317         0.054423      0.258840     -0.168037
     23.46512     13.54759      7.34970        -0.246855     -0.183113     -0.224333
     15.46378      8.92802      0.81663         0.074780     -0.188230      0.339782
      7.46244      4.30845      4.08317         0.054423      0.258840     -0.168037
     13.46345      7.77313      6.53307         0.158092      0.078459     -0.422429
      5.46211      3.15355      0.00000         0.107480      0.172017      0.314615
     21.46479     12.39270      3.26653        -0.272934     -0.064360      0.178574
      5.46211      7.77313      6.53307         0.158092      0.078459     -0.422429
     13.46345      3.15355      0.00000         0.107480      0.172017      0.314615
     13.46345     12.39270      3.26653        -0.272934     -0.064360      0.178574
      9.46278      0.84376      6.53307         0.158092      0.078459     -0.422429
      9.46278     10.08291      0.00000         0.107480      0.172017      0.314615
     17.46412      5.46334      3.26653        -0.272934     -0.064360      0.178574
      1.46144      0.84376      6.53307         0.158092      0.078459     -0.422429
     17.46412     10.08291      0.00000         0.107480      0.172017      0.314615
      9.46278      5.46334      3.26653        -0.272934     -0.064360      0.178574
     17.46412     10.08291      7.34970         0.216411     -0.113030     -0.452220
      9.46278      5.46334      0.81663         0.155517      0.142889      0.391627
      1.46144      0.84376      4.08317        -0.283905     -0.090334     -0.190692
      9.46278     10.08291      7.34970         0.216411     -0.113030     -0.452220
     17.46412      5.46334      0.81663         0.155517      0.142889      0.391627
      9.46278      0.84376      4.08317        -0.283905     -0.090334     -0.190692
     13.46345      3.15355      7.34970         0.216411     -0.113030     -0.452220
     13.46345     12.39270      0.81663         0.155517      0.142889      0.391627
      5.46211      7.77313      4.08317        -0.283905     -0.090334     -0.190692
      5.46211      3.15355      7.34970         0.216411     -0.113030     -0.452220
     21.46479     12.39270      0.81663         0.155517      0.142889      0.391627
     13.46345      7.77313      4.08317        -0.283905     -0.090334     -0.190692
      9.46278      7.77313      6.53307        -0.024098     -0.001541     -0.062813
     17.46412      3.15355      0.00000         0.017113      0.012651     -0.400740
     17.46412     12.39270      3.26653         0.000143     -0.006217     -0.033935
     17.46412      7.77313      6.53307        -0.024098     -0.001541     -0.062813
      9.46278      3.15355      0.00000         0.017113      0.012651     -0.400740
      9.46278     12.39270      3.26653         0.000143     -0.006217     -0.033935
      5.46211      0.84376      6.53307        -0.024098     -0.001541     -0.062813
     21.46479     10.08291      0.00000         0.017113      0.012651     -0.400740
     13.46345      5.46334      3.26653         0.000143     -0.006217     -0.033935
     13.46345      0.84376      6.53307        -0.024098     -0.001541     -0.062813
     13.46345     10.08291      0.00000         0.017113      0.012651     -0.400740
      5.46211      5.46334      3.26653         0.000143     -0.006217     -0.033935
     13.46345     10.08291      7.34970        -0.004636      0.026119      0.979724
      5.46211      5.46334      0.81663         0.021219      0.001610      0.258105
     13.46345      0.84376      4.08317        -0.013523     -0.023904     -0.139885
     21.46478     10.08291      7.34970        -0.004636      0.026119      0.979724
     13.46345      5.46334      0.81663         0.021219      0.001610      0.258105
      5.46211      0.84376      4.08317        -0.013523     -0.023904     -0.139885
      9.46278      3.15355      7.34970        -0.004636      0.026119      0.979724
      9.46278     12.39270      0.81663         0.021219      0.001610      0.258105
     17.46412      7.77313      4.08317        -0.013523     -0.023904     -0.139885
     17.46412      3.15355      7.34970        -0.004636      0.026119      0.979724
     17.46412     12.39270      0.81663         0.021219      0.001610      0.258105
      9.46278      7.77313      4.08317        -0.013523     -0.023904     -0.139885
     11.46311      4.30844      6.53307        -0.173329      0.068999     -0.426261
     11.46312     13.54760      0.00000        -0.255028      0.023062      0.341802
     19.46445      8.92802      3.26653         0.214610     -0.193913      0.196570
      3.46178      4.30844      6.53307        -0.173329      0.068999     -0.426261
     19.46445     13.54760      0.00000        -0.255028      0.023062      0.341802
     11.46312      8.92802      3.26653         0.214610     -0.193913      0.196570
     15.46378     11.23781      6.53307        -0.173329      0.068999     -0.426261
      7.46245      6.61823      0.00000        -0.255028      0.023062      0.341802
     15.46378      1.99866      3.26653         0.214610     -0.193913      0.196570
      7.46244     11.23781      6.53307        -0.173329      0.068999     -0.426261
     15.46378      6.61823      0.00000        -0.255028      0.023062      0.341802
      7.46245      1.99866      3.26653         0.214610     -0.193913      0.196570
     15.46378      6.61823      7.34970         0.022350      0.194024     -0.464233
      7.46245      1.99866      0.81663        -0.184978      0.056495      0.380081
      7.46245     11.23781      4.08317         0.198990     -0.194450     -0.178367
      7.46244      6.61823      7.34970         0.022350      0.194024     -0.464233
     15.46379      1.99866      0.81663        -0.184978      0.056495      0.380081
     15.46379     11.23781      4.08317         0.198990     -0.194450     -0.178367
     19.46445     13.54759      7.34970         0.022350      0.194024     -0.464233
     11.46312      8.92802      0.81663        -0.184978      0.056495      0.380081
      3.46178      4.30845      4.08317         0.198990     -0.194450     -0.178367
     11.46311     13.54759      7.34970         0.022350      0.194024     -0.464233
     19.46445      8.92802      0.81663        -0.184978      0.056495      0.380081
     11.46312      4.30845      4.08317         0.198990     -0.194450     -0.178367
     18.76773     10.02361      9.61200         0.148494     -0.051295      0.605827
      8.09928     10.02361     13.35854        -0.123398      0.026990      0.213790
     13.43350     10.02361     17.10508        -0.003159     -0.018872      0.774015
     10.76639      5.40403      9.61200        -0.133545     -0.032928      0.388120
     16.10061      5.40403     13.35854         0.046385     -0.100071      0.209296
      5.43216      5.40403     17.10508         0.021408     -0.016167     -0.650319
      2.76505      0.78446      9.61200         0.035094      0.190306      0.654594
      8.09927      0.78446     13.35854         0.068707      0.105160      0.230346
     13.43350      0.78446     17.10508        -0.009683      0.010364     -0.497871
      8.09927     10.02361     10.54863         0.170044     -0.009283      0.189650
     13.43350     10.02361     14.29517         0.001946      0.000905     -0.466721
     18.76773     10.02361     18.04172        -0.432500      0.084332     -0.692638
     16.10061      5.40403     10.54863        -0.092893      0.143249      0.199132
      5.43216      5.40403     14.29517        -0.000817      0.008811     -0.107166
     10.76639      5.40403     18.04172         0.353254      0.430531     -0.438531
      8.09927      0.78446     10.54863        -0.073025     -0.119624      0.145138
     13.43350      0.78446     14.29517         0.008499      0.001696     -0.146424
      2.76505      0.78446     18.04172         0.135054     -0.393348     -0.675136
     14.76705     12.33339      9.61200        -0.133545     -0.032928      0.388120
     20.10128     12.33339     13.35854         0.046385     -0.100071      0.209296
      9.43283     12.33339     17.10508         0.021408     -0.016167     -0.650319
      6.76572      7.71382      9.61200         0.035094      0.190306      0.654594
     12.09994      7.71382     13.35854         0.068707      0.105160      0.230346
     17.43417      7.71382     17.10508        -0.009683      0.010364     -0.497871
     14.76706      3.09424      9.61200         0.148494     -0.051295      0.605827
      4.09861      3.09424     13.35854        -0.123398      0.026990      0.213790
      9.43283      3.09424     17.10508        -0.003159     -0.018872      0.774015
     20.10128     12.33339     10.54863        -0.092893      0.143249      0.199132
      9.43283     12.33339     14.29517        -0.000817      0.008811     -0.107166
     14.76706     12.33339     18.04172         0.353254      0.430531     -0.438531
     12.09994      7.71382     10.54863        -0.073025     -0.119624      0.145138
     17.43417      7.71382     14.29517         0.008499      0.001696     -0.146424
      6.76572      7.71382     18.04172         0.135054     -0.393348     -0.675136
      4.09860      3.09424     10.54863         0.170044     -0.009283      0.189650
      9.43283      3.09424     14.29517         0.001946      0.000905     -0.466721
     14.76706      3.09424     18.04172        -0.432500      0.084332     -0.692638
     10.76639     10.02361      9.61200         0.148494     -0.051295      0.605827
     16.10061     10.02361     13.35854        -0.123398      0.026990      0.213790
     21.43484     10.02361     17.10508        -0.003159     -0.018872      0.774015
     18.76773      5.40403      9.61200        -0.133545     -0.032928      0.388120
      8.09928      5.40403     13.35854         0.046385     -0.100071      0.209296
     13.43350      5.40403     17.10508         0.021408     -0.016167     -0.650319
     10.76639      0.78446      9.61200         0.035094      0.190306      0.654594
     16.10061      0.78446     13.35854         0.068707      0.105160      0.230346
      5.43216      0.78446     17.10508        -0.009683      0.010364     -0.497871
     16.10061     10.02361     10.54863         0.170044     -0.009283      0.189650
     21.43484     10.02361     14.29517         0.001946      0.000905     -0.466721
     10.76639     10.02361     18.04172        -0.432500      0.084332     -0.692638
      8.09927      5.40403     10.54863        -0.092893      0.143249      0.199132
     13.43350      5.40403     14.29517        -0.000817      0.008811     -0.107166
     18.76772      5.40403     18.04172         0.353254      0.430531     -0.438531
     16.10061      0.78446     10.54863        -0.073025     -0.119624      0.145138
      5.43216      0.78446     14.29517         0.008499      0.001696     -0.146424
     10.76639      0.78446     18.04172         0.135054     -0.393348     -0.675136
     22.76839     12.33339      9.61200        -0.133545     -0.032928      0.388120
     12.09994     12.33339     13.35854         0.046385     -0.100071      0.209296
     17.43417     12.33339     17.10508         0.021408     -0.016167     -0.650319
     14.76705      7.71382      9.61200         0.035094      0.190306      0.654594
     20.10128      7.71382     13.35854         0.068707      0.105160      0.230346
      9.43283      7.71382     17.10508        -0.009683      0.010364     -0.497871
      6.76572      3.09424      9.61200         0.148494     -0.051295      0.605827
     12.09994      3.09424     13.35854        -0.123398      0.026990      0.213790
     17.43417      3.09424     17.10508        -0.003159     -0.018872      0.774015
     12.09994     12.33339     10.54863        -0.092893      0.143249      0.199132
     17.43417     12.33339     14.29517        -0.000817      0.008811     -0.107166
     22.76839     12.33339     18.04172         0.353254      0.430531     -0.438531
     20.10128      7.71382     10.54863        -0.073025     -0.119624      0.145138
      9.43283      7.71382     14.29517         0.008499      0.001696     -0.146424
     14.76706      7.71382     18.04172         0.135054     -0.393348     -0.675136
     12.09994      3.09424     10.54863         0.170044     -0.009283      0.189650
     17.43417      3.09424     14.29517         0.001946      0.000905     -0.466721
      6.76572      3.09424     18.04172        -0.432500      0.084332     -0.692638
 -----------------------------------------------------------------------------------
    total drift:                               -1.137019     -0.144619      0.232310


--------------------------------------------------------------------------------------------------------



  FREE ENERGIE OF THE ION-ELECTRON SYSTEM (eV)
  ---------------------------------------------------
  free  energy   TOTEN  =      -683.27731611 eV

  energy  without entropy=     -683.27363852  energy(sigma->0) =     -683.27547732
 


--------------------------------------------------------------------------------------------------------


    POTLOK:  cpu time      2.9243: real time      2.9445


--------------------------------------------------------------------------------------------------------


     LOOP+:  cpu time   2166.5978: real time   2188.7893
    4ORBIT:  cpu time      0.0000: real time      0.0000

 total amount of memory used by VASP MPI-rank0   425454. kBytes
=======================================================================

   base      :      30000. kBytes
   nonlr-proj:      22787. kBytes
   fftplans  :      34262. kBytes
   grid      :      27955. kBytes
   one-center:        178. kBytes
   wavefun   :     310272. kBytes
 
  
  
 General timing and accounting informations for this job:
 ========================================================
  
                  Total CPU time used (sec):     2322.343
                            User time (sec):     2216.226
                          System time (sec):      106.117
                         Elapsed time (sec):     2348.847
  
                   Maximum memory used (kb):      746612.
                   Average memory used (kb):          N/A
  
                          Minor page faults:       420302
                          Major page faults:           29
                 Voluntary context switches:         2144
