<?xml version="1.0" encoding="ISO-8859-1"?>
<modeling>
 <generator>
  <i name="program" type="string">vasp </i>
  <i name="version" type="string">6.4.3  </i>
  <i name="subversion" type="string">19Mar24 (build Oct 22 2024 11:23:12) complex                          parallel </i>
  <i name="platform" type="string">LinuxIFC </i>
  <i name="date" type="string">2025 06 04 </i>
  <i name="time" type="string">01:31:53 </i>
 </generator>
 <incar>
  <i type="string" name="SYSTEM">Si and Ge interface calculation</i>
  <i type="int" name="ISTART">     0</i>
  <i type="logical" name="ADDGRID"> T  </i>
  <i type="int" name="ISPIN">     2</i>
  <i name="AMIX">      0.60000000</i>
  <i type="int" name="ICHARG">     2</i>
  <i type="int" name="NELM">   100</i>
  <i name="EDIFF">      0.00000010</i>
  <i name="ENCUT">    700.00000000</i>
  <i name="ENAUG">    900.00000000</i>
  <i type="int" name="NBANDS">   144</i>
  <i name="NUPDOWN">      1.00000000</i>
  <i name="NELECT">    240.00000000</i>
  <i type="string" name="LREAL">AUTO</i>
  <i type="int" name="ISMEAR">     0</i>
  <i name="SIGMA">      0.01000000</i>
  <i type="int" name="LMAXMIX">     6</i>
  <i type="logical" name="LWAVE"> F  </i>
  <i type="logical" name="LVTOT"> F  </i>
  <i type="logical" name="LVHAR"> T  </i>
  <i type="logical" name="LASPH"> T  </i>
  <i type="logical" name="LMIXTAU"> T  </i>
 </incar>
 <primitive_cell>
  <structure name="primitive_cell" >
   <crystal>
    <varray name="basis" >
     <v>      -6.48920050       0.00000000       0.00000000 </v>
     <v>       0.00000000       0.00000000       6.66359377 </v>
     <v>      -0.00000039      14.51029301       0.00000000 </v>
    </varray>
    <i name="volume">    627.44532667 </i>
    <varray name="rec_basis" >
     <v>      -0.15410219      -0.00000000       0.00000000 </v>
     <v>       0.00000000       0.00000000       0.15006917 </v>
     <v>       0.00000000       0.06891660       0.00000000 </v>
    </varray>
   </crystal>
   <varray name="positions" >
    <v>       0.00000016       0.00000000       0.02564151 </v>
    <v>       0.00000016       0.21775478       0.32564157 </v>
    <v>       0.00000011       0.43550959       0.62564164 </v>
    <v>       0.74999992       0.10887715       0.67564148 </v>
    <v>       0.75000017       0.32663199       0.97564149 </v>
    <v>       0.75000036       0.54438668       0.27564156 </v>
    <v>       0.50000006       0.00000003       0.52564150 </v>
    <v>       0.50000022       0.21775483       0.82564151 </v>
    <v>       0.50000008       0.43550959       0.12564170 </v>
    <v>       0.25000001       0.10887717       0.17564151 </v>
    <v>       0.25000014       0.32663199       0.47564155 </v>
    <v>       0.25000018       0.54438674       0.77564162 </v>
    <v>       0.04273605       0.54438674       0.99145281 </v>
    <v>       0.54273615       0.72663218       0.89145279 </v>
    <v>       0.04273636       0.90887743       0.79145277 </v>
    <v>       0.70940274       0.54438674       0.32478613 </v>
    <v>       0.20940285       0.72663218       0.22478609 </v>
    <v>       0.70940312       0.90887743       0.12478600 </v>
    <v>       0.37606937       0.54438674       0.65811950 </v>
    <v>       0.87606952       0.72663218       0.55811942 </v>
    <v>       0.37606979       0.90887743       0.45811933 </v>
    <v>       0.54273583       0.63550919       0.19145283 </v>
    <v>       0.04273622       0.81775457       0.09145278 </v>
    <v>       0.54273623       0.99999994       0.99145275 </v>
    <v>       0.20940255       0.63550919       0.52478611 </v>
    <v>       0.70940291       0.81775457       0.42478609 </v>
    <v>       0.20940295       0.99999994       0.32478604 </v>
    <v>       0.87606923       0.63550919       0.85811943 </v>
    <v>       0.37606966       0.81775457       0.75811934 </v>
    <v>       0.87606960       0.99999994       0.65811938 </v>
   </varray>
  </structure>
  <varray name="primitive_index" >
   <v type="int" >        1 </v>
   <v type="int" >        2 </v>
   <v type="int" >        6 </v>
   <v type="int" >       10 </v>
   <v type="int" >        8 </v>
   <v type="int" >        9 </v>
   <v type="int" >       13 </v>
   <v type="int" >       14 </v>
   <v type="int" >       18 </v>
   <v type="int" >       22 </v>
   <v type="int" >       20 </v>
   <v type="int" >       21 </v>
   <v type="int" >       25 </v>
   <v type="int" >       26 </v>
   <v type="int" >       45 </v>
   <v type="int" >       28 </v>
   <v type="int" >       29 </v>
   <v type="int" >       48 </v>
   <v type="int" >       31 </v>
   <v type="int" >       32 </v>
   <v type="int" >       51 </v>
   <v type="int" >       52 </v>
   <v type="int" >       53 </v>
   <v type="int" >       36 </v>
   <v type="int" >       55 </v>
   <v type="int" >       56 </v>
   <v type="int" >       39 </v>
   <v type="int" >       58 </v>
   <v type="int" >       59 </v>
   <v type="int" >       42 </v>
  </varray>
 </primitive_cell>
 <kpoints>
  <generation param="Gamma">
   <v type="int" name="divisions">       3        2        5 </v>
   <v name="usershift">      0.00000000       0.00000000       0.00000000 </v>
   <v name="genvec1">      0.33333333      -0.00000000       0.00000000 </v>
   <v name="genvec2">      0.00000000       0.50000000       0.00000000 </v>
   <v name="genvec3">      0.00000000       0.00000000       0.20000000 </v>
   <v name="shift">      0.00000000       0.00000000       0.00000000 </v>
  </generation>
  <varray name="kpointlist" >
   <v>       0.00000000       0.00000000       0.00000000 </v>
   <v>       0.33333333      -0.00000000       0.00000000 </v>
   <v>       0.00000000       0.50000000       0.00000000 </v>
   <v>       0.33333333       0.50000000       0.00000000 </v>
   <v>       0.00000000       0.00000000       0.20000000 </v>
   <v>       0.33333333      -0.00000000       0.20000000 </v>
   <v>      -0.33333333       0.00000000       0.20000000 </v>
   <v>       0.00000000       0.50000000       0.20000000 </v>
   <v>       0.33333333       0.50000000       0.20000000 </v>
   <v>      -0.33333333       0.50000000       0.20000000 </v>
   <v>       0.00000000       0.00000000       0.40000000 </v>
   <v>       0.33333333      -0.00000000       0.40000000 </v>
   <v>      -0.33333333       0.00000000       0.40000000 </v>
   <v>       0.00000000       0.50000000       0.40000000 </v>
   <v>       0.33333333       0.50000000       0.40000000 </v>
   <v>      -0.33333333       0.50000000       0.40000000 </v>
  </varray>
  <varray name="weights" >
   <v>       0.03333333 </v>
   <v>       0.06666667 </v>
   <v>       0.03333333 </v>
   <v>       0.06666667 </v>
   <v>       0.06666667 </v>
   <v>       0.06666667 </v>
   <v>       0.06666667 </v>
   <v>       0.06666667 </v>
   <v>       0.06666667 </v>
   <v>       0.06666667 </v>
   <v>       0.06666667 </v>
   <v>       0.06666667 </v>
   <v>       0.06666667 </v>
   <v>       0.06666667 </v>
   <v>       0.06666667 </v>
   <v>       0.06666667 </v>
  </varray>
 </kpoints>
 <parameters>
  <separator name="general" >
   <i type="string" name="SYSTEM">Si and Ge interface calculation</i>
   <i type="logical" name="LCOMPAT"> F  </i>
  </separator>
  <separator name="electronic" >
   <i type="string" name="PREC">normal</i>
   <i name="ENMAX">    700.00000000</i>
   <i name="ENAUG">    900.00000000</i>
   <i name="EDIFF">      0.00000010</i>
   <i type="int" name="IALGO">    38</i>
   <i type="int" name="IWAVPR">    10</i>
   <i type="int" name="NBANDS">   144</i>
   <i type="int" name="NBANDSLOW">    -1</i>
   <i type="int" name="NBANDSHIGH">    -1</i>
   <i name="NELECT">    240.00000000</i>
   <i type="int" name="TURBO">     0</i>
   <i type="int" name="IRESTART">     0</i>
   <i type="int" name="NREBOOT">     0</i>
   <i type="int" name="NMIN">     0</i>
   <i name="EREF">      0.00000000</i>
   <separator name="electronic smearing" >
    <i type="int" name="ISMEAR">     0</i>
    <i name="SIGMA">      0.01000000</i>
    <i name="KSPACING">      0.50000000</i>
    <i type="logical" name="KGAMMA"> T  </i>
    <i type="logical" name="KBLOWUP"> F  </i>
   </separator>
   <separator name="electronic projectors" >
    <i type="logical" name="LREAL"> T  </i>
    <v name="ROPT">     -0.00050000     -0.00050000</v>
    <i type="int" name="LMAXPAW">  -100</i>
    <i type="int" name="LMAXMIX">     6</i>
    <i type="logical" name="NLSPLINE"> F  </i>
   </separator>
   <separator name="electronic startup" >
    <i type="int" name="ISTART">     0</i>
    <i type="int" name="ICHARG">     2</i>
    <i type="int" name="INIWAV">     1</i>
   </separator>
   <separator name="electronic spin" >
    <i type="int" name="ISPIN">     2</i>
    <i type="logical" name="LNONCOLLINEAR"> F  </i>
    <v name="MAGMOM">      0.01666667      0.01666667      0.01666667      0.01666667      0.01666667      0.01666667      0.01666667      0.01666667      0.01666667      0.01666667      0.01666667      0.01666667      0.01666667      0.01666667      0.01666667      0.01666667      0.01666667      0.01666667      0.01666667      0.01666667
      0.01666667      0.01666667      0.01666667      0.01666667      0.01666667      0.01666667      0.01666667      0.01666667      0.01666667      0.01666667      0.01666667      0.01666667      0.01666667      0.01666667      0.01666667      0.01666667      0.01666667      0.01666667      0.01666667      0.01666667
      0.01666667      0.01666667      0.01666667      0.01666667      0.01666667      0.01666667      0.01666667      0.01666667      0.01666667      0.01666667      0.01666667      0.01666667      0.01666667      0.01666667      0.01666667      0.01666667      0.01666667      0.01666667      0.01666667      0.01666667
</v>
    <i name="NUPDOWN">      1.00000000</i>
    <i type="logical" name="LSORBIT"> F  </i>
    <v name="SAXIS">      0.00000000      0.00000000      1.00000000</v>
    <i type="logical" name="LSPIRAL"> F  </i>
    <v name="QSPIRAL">      0.00000000      0.00000000      0.00000000</v>
    <i type="logical" name="LZEROZ"> F  </i>
   </separator>
   <separator name="electronic exchange-correlation" >
    <i type="logical" name="LASPH"> T  </i>
   </separator>
   <separator name="electronic convergence" >
    <i type="int" name="NELM">   100</i>
    <i type="int" name="NELMDL">    -5</i>
    <i type="int" name="NELMIN">     2</i>
    <i name="ENINI">    700.00000000</i>
    <separator name="electronic convergence detail" >
     <i type="logical" name="LDIAG"> T  </i>
     <i type="logical" name="LSUBROT"> F  </i>
     <i name="WEIMIN">      0.00000000</i>
     <i name="EBREAK">      0.00000000</i>
     <i name="DEPER">      0.30000000</i>
     <i type="int" name="NRMM">     4</i>
     <i name="TIME">      0.40000000</i>
    </separator>
   </separator>
   <separator name="electronic mixer" >
    <i name="AMIX">      0.60000000</i>
    <i name="BMIX">      1.00000000</i>
    <i name="AMIN">      0.10000000</i>
    <i name="AMIX_MAG">      2.40000000</i>
    <i name="BMIX_MAG">      1.00000000</i>
    <separator name="electronic mixer details" >
     <i type="int" name="IMIX">     4</i>
     <i type="logical" name="MIXFIRST"> F  </i>
     <i type="int" name="MAXMIX">   -45</i>
     <i name="WC">    100.00000000</i>
     <i type="int" name="INIMIX">     1</i>
     <i type="int" name="MIXPRE">     1</i>
     <i type="int" name="MREMOVE">     5</i>
    </separator>
   </separator>
   <separator name="electronic dipolcorrection" >
    <i type="logical" name="LDIPOL"> F  </i>
    <i type="logical" name="LMONO"> F  </i>
    <i type="int" name="IDIPOL">     0</i>
    <i name="EPSILON">      1.00000000</i>
    <v name="DIPOL">   -100.00000000   -100.00000000   -100.00000000</v>
    <i name="EFIELD">      0.00000000</i>
    <i type="logical" name="LVACPOTAV"> F  </i>
   </separator>
  </separator>
  <separator name="grids" >
   <i type="int" name="NGX">    84</i>
   <i type="int" name="NGY">   108</i>
   <i type="int" name="NGZ">    48</i>
   <i type="int" name="NGXF">   168</i>
   <i type="int" name="NGYF">   216</i>
   <i type="int" name="NGZF">    96</i>
   <i type="logical" name="ADDGRID"> T  </i>
  </separator>
  <separator name="ionic" >
   <i type="int" name="NSW">     0</i>
   <i type="int" name="IBRION">    -1</i>
   <i type="int" name="MDALGO">     0</i>
   <i type="int" name="ISIF">     2</i>
   <i name="PSTRESS">      0.00000000</i>
   <i name="EDIFFG">      0.00000100</i>
   <i type="int" name="NFREE">     0</i>
   <i name="POTIM">      0.50000000</i>
   <i name="SMASS">     -3.00000000</i>
   <i name="SCALEE">      1.00000000</i>
  </separator>
  <separator name="ionic md" >
   <i name="TEBEG">      0.00010000</i>
   <i name="TEEND">      0.00010000</i>
   <i type="int" name="NBLOCK">     1</i>
   <i type="int" name="KBLOCK">     1</i>
   <i type="int" name="NPACO">   256</i>
   <i name="APACO">     10.00000000</i>
  </separator>
  <separator name="symmetry" >
   <i type="int" name="ISYM">     2</i>
   <i name="SYMPREC">      0.00001000</i>
  </separator>
  <separator name="dos" >
   <i type="int" name="LORBIT">     0</i>
   <v name="RWIGS">     -1.00000000     -1.00000000</v>
   <i type="int" name="NEDOS">   301</i>
   <i name="EMIN">     10.00000000</i>
   <i name="EMAX">    -10.00000000</i>
   <i name="EFERMI">      0.00000000</i>
  </separator>
  <separator name="writing" >
   <i type="int" name="NWRITE">     2</i>
   <i type="logical" name="LWAVE"> F  </i>
   <i type="logical" name="LDOWNSAMPLE"> F  </i>
   <i type="logical" name="LCHARG"> T  </i>
   <i type="logical" name="LPARD"> F  </i>
   <i type="logical" name="LVTOT"> F  </i>
   <i type="logical" name="LVHAR"> T  </i>
   <i type="logical" name="LELF"> F  </i>
   <i type="logical" name="LOPTICS"> F  </i>
   <v name="STM">      0.00000000      0.00000000      0.00000000      0.00000000      0.00000000      0.00000000      0.00000000</v>
  </separator>
  <separator name="performance" >
   <i type="int" name="NPAR">     4</i>
   <i type="int" name="NSIM">     4</i>
   <i type="int" name="NBLK">    -1</i>
   <i type="logical" name="LPLANE"> T  </i>
   <i type="logical" name="LSCALAPACK"> T  </i>
   <i type="logical" name="LSCAAWARE"> F  </i>
   <i type="logical" name="LSCALU"> F  </i>
   <i type="logical" name="LASYNC"> F  </i>
   <i type="logical" name="LORBITALREAL"> F  </i>
  </separator>
  <separator name="miscellaneous" >
   <i type="int" name="IDIOT">     3</i>
   <i type="int" name="PHON_NSTRUCT">    -1</i>
   <i type="logical" name="LMUSIC"> F  </i>
   <v name="POMASS">    118.71000000     28.08500000</v>
   <v name="DARWINR">      0.00000000      0.00000000</v>
   <v name="DARWINV">      1.00000000      1.00000000</v>
   <i type="logical" name="LCORR"> T  </i>
  </separator>
  <i type="logical" name="GGA_COMPAT"> T  </i>
  <i type="logical" name="LBERRY"> F  </i>
  <i type="int" name="ICORELEVEL">     0</i>
  <i type="logical" name="LDAU"> F  </i>
  <i type="int" name="I_CONSTRAINED_M">     0</i>
  <separator name="electronic exchange-correlation" >
   <i type="string" name="GGA    ">PE</i>
   <i type="string" name="XC_C">1</i>
   <i type="int" name="VOSKOWN">     0</i>
   <i type="logical" name="LHFCALC"> F  </i>
   <i type="string" name="PRECFOCK"></i>
   <i type="logical" name="LSYMGRAD"> F  </i>
   <i type="logical" name="LHFONE"> F  </i>
   <i type="logical" name="LRHFCALC"> F  </i>
   <i type="logical" name="LTHOMAS"> F  </i>
   <i type="logical" name="LMODELHF"> F  </i>
   <i type="logical" name="LFOCKACE"> F  </i>
   <i name="ENCUT4O">     -1.00000000</i>
   <i type="int" name="EXXOEP">     0</i>
   <i type="int" name="FOURORBIT">     0</i>
   <i name="AEXX">      0.00000000</i>
   <i name="HFALPHA">      0.00000000</i>
   <i name="MCALPHA">      0.00000000</i>
   <i name="ALDAX">      1.00000000</i>
   <i name="AGGAX">      1.00000000</i>
   <i name="AMGGAX">      1.00000000</i>
   <i name="ALDAC">      1.00000000</i>
   <i name="AGGAC">      1.00000000</i>
   <i name="AMGGAC">      1.00000000</i>
   <i type="int" name="NKREDX">     1</i>
   <i type="int" name="NKREDY">     1</i>
   <i type="int" name="NKREDZ">     1</i>
   <i type="logical" name="SHIFTRED"> F  </i>
   <i type="logical" name="ODDONLY"> F  </i>
   <i type="logical" name="EVENONLY"> F  </i>
   <i type="int" name="LMAXFOCK">     0</i>
   <i type="int" name="NMAXFOCKAE">     0</i>
   <i type="logical" name="LFOCKAEDFT"> F  </i>
   <i name="HFSCREEN">      0.00000000</i>
   <i name="HFSCREENC">      0.00000000</i>
   <i type="int" name="NBANDSGWLOW">     0</i>
  </separator>
  <separator name="vdW DFT" >
   <i type="logical" name="LUSE_VDW"> F  </i>
   <i type="int" name="IVDW_NL">    -1</i>
   <i type="logical" name="LSPIN_VDW"> F  </i>
   <i name="ZAB_VDW">     -0.84910000</i>
   <i name="GAMMA_VDW">      1.39626340</i>
   <i name="ALPHA_VDW">      0.00000000</i>
   <i name="PARAM1">      0.12340000</i>
   <i name="PARAM2">      1.00000000</i>
   <i name="BPARAM">      6.30000000</i>
   <i name="CPARAM">      0.00930000</i>
  </separator>
  <separator name="model GW" >
   <i type="int" name="MODEL_GW">     0</i>
   <i name="MODEL_EPS0">     12.54890578</i>
   <i name="MODEL_ALPHA">      1.00000000</i>
  </separator>
  <separator name="linear response parameters" >
   <i type="logical" name="LEPSILON"> F  </i>
   <i type="logical" name="LRPA"> F  </i>
   <i type="logical" name="LNABLA"> F  </i>
   <i type="logical" name="LVEL"> F  </i>
   <i name="CSHIFT">      0.10000000</i>
   <i name="OMEGAMAX">     -1.00000000</i>
   <i name="DEG_THRESHOLD">      0.00200000</i>
   <i name="RTIME">     -0.10000000</i>
   <i name="WPLASMAI">      0.00000000</i>
   <v name="DFIELD">      0.00000000      0.00000000      0.00000000</v>
   <v name="WPLASMA">      0.00000000      0.00000000      0.00000000      0.00000000      0.00000000      0.00000000      0.00000000      0.00000000      0.00000000</v>
  </separator>
  <separator name="orbital magnetization" >
   <i type="logical" name="NUCIND"> F  </i>
   <v name="MAGPOS">      0.00000000      0.00000000      0.00000000</v>
   <i type="logical" name="LNICSALL"> T  </i>
   <i type="logical" name="ORBITALMAG"> F  </i>
   <i type="logical" name="LMAGBLOCH"> F  </i>
   <i type="logical" name="LCHIMAG"> F  </i>
   <i type="logical" name="LGAUGE"> T  </i>
   <i type="int" name="MAGATOM">     0</i>
   <v name="MAGDIPOL">      0.00000000      0.00000000      0.00000000</v>
   <v name="AVECCONST">      0.00000000      0.00000000      0.00000000</v>
  </separator>
  <separator name="response functions" >
   <i type="logical" name="LALL_IN_ONE"> F  </i>
   <i type="int" name="IALL_IN_ONE">    -1</i>
   <i type="int" name="NBANDS_WAVE">    -1</i>
   <i type="logical" name="LFINITE_TEMPERATURE"> F  </i>
   <i type="logical" name="LADDER"> F  </i>
   <i type="logical" name="LRPAFORCE"> F  </i>
   <i type="logical" name="LFXC"> F  </i>
   <i type="logical" name="LHARTREE"> T  </i>
   <i type="int" name="IBSE">     0</i>
   <v type="int" name="KPOINT">    -1     0     0     0</v>
   <i type="logical" name="LTCTC"> F  </i>
   <i type="logical" name="LTCTE"> F  </i>
   <i type="logical" name="LTETE"> F  </i>
   <i type="logical" name="LTRIPLET"> F  </i>
   <i type="logical" name="LFXCEPS"> F  </i>
   <i type="logical" name="LFXHEG"> F  </i>
   <i type="int" name="NATURALO">     2</i>
   <i type="logical" name="LHOLEGF"> F  </i>
   <i type="logical" name="L2ORDER"> F  </i>
   <i type="logical" name="LDMP1"> F  </i>
   <i type="logical" name="LMP2LT"> F  </i>
   <i type="logical" name="LSMP2LT"> F  </i>
   <i type="logical" name="LGWLF"> F  </i>
   <i name="ENCUTGW">     -1.60000002</i>
   <i name="ENCUTGWSOFT">     -1.60000002</i>
   <i name="ENCUTLF">     -1.00000000</i>
   <i type="logical" name="ESF_SPLINES"> F  </i>
   <i name="ESF_CONV">      0.01000000</i>
   <i type="int" name="ESF_NINTER">    15</i>
   <i type="int" name="LMAXMP2">    -1</i>
   <i name="SCISSOR">      0.00000000</i>
   <i type="int" name="NOMEGA">     0</i>
   <i type="int" name="NOMEGAR">     0</i>
   <i type="int" name="NBANDSGW">    -1</i>
   <i type="int" name="NBANDSO">    -1</i>
   <i type="int" name="NBANDSV">    -1</i>
   <i type="int" name="NELMGW">     1</i>
   <i type="int" name="NELMHF">     1</i>
   <i type="int" name="DIM">     3</i>
   <i type="int" name="IESPILON">     4</i>
   <i type="int" name="ANTIRES">     0</i>
   <i name="OMEGAMAX">    -30.00000000</i>
   <i name="OMEGAMIN">    -30.00000000</i>
   <i name="OMEGATL">   -200.00000000</i>
   <i type="int" name="OMEGAGRID">     0</i>
   <i name="CSHIFT">     -0.10000000</i>
   <i type="logical" name="LSELFENERGY"> F  </i>
   <i type="logical" name="LSPECTRAL"> F  </i>
   <i type="logical" name="LSPECTRALGW"> F  </i>
   <i type="logical" name="LSINGLES"> F  </i>
   <i type="logical" name="LFERMIGW"> F  </i>
   <i type="logical" name="ODDONLYGW"> F  </i>
   <i type="logical" name="EVENONLYGW"> F  </i>
   <i type="int" name="NKREDLFX">     1</i>
   <i type="int" name="NKREDLFY">     1</i>
   <i type="int" name="NKREDLFZ">     1</i>
   <i type="int" name="MAXMEM">  2800</i>
   <i type="int" name="TELESCOPE">     0</i>
   <i type="int" name="NTAUPAR">    -1</i>
   <i type="int" name="NOMEGAPAR">    -1</i>
   <i name="DAMP_NEWTON">      0.80000001</i>
   <i name="LAMBDA">      1.00000000</i>
  </separator>
  <separator name="External order field" >
   <i name="OFIELD_KAPPA">      0.00000000</i>
   <v name="OFIELD_K">      0.00000000      0.00000000      0.00000000</v>
   <i name="OFIELD_Q6_NEAR">      0.00000000</i>
   <i name="OFIELD_Q6_FAR">      0.00000000</i>
   <i name="OFIELD_A">      0.00000000</i>
  </separator>
  <separator name="optional k-points parameters" >
   <i type="int" name="KPOINTS_OPT_MODE">     1</i>
   <i type="logical" name="LKPOINTS_OPT"> F  </i>
  </separator>
 </parameters>
 <atominfo>
  <atoms>      60 </atoms>
  <types>       2 </types>
  <array name="atoms" >
   <dimension dim="1">ion</dimension>
   <field type="string">element</field>
   <field type="int">atomtype</field>
   <set>
    <rc><c>Sn</c><c>   1</c></rc>
    <rc><c>Sn</c><c>   1</c></rc>
    <rc><c>Sn</c><c>   1</c></rc>
    <rc><c>Sn</c><c>   1</c></rc>
    <rc><c>Sn</c><c>   1</c></rc>
    <rc><c>Sn</c><c>   1</c></rc>
    <rc><c>Sn</c><c>   1</c></rc>
    <rc><c>Sn</c><c>   1</c></rc>
    <rc><c>Sn</c><c>   1</c></rc>
    <rc><c>Sn</c><c>   1</c></rc>
    <rc><c>Sn</c><c>   1</c></rc>
    <rc><c>Sn</c><c>   1</c></rc>
    <rc><c>Sn</c><c>   1</c></rc>
    <rc><c>Sn</c><c>   1</c></rc>
    <rc><c>Sn</c><c>   1</c></rc>
    <rc><c>Sn</c><c>   1</c></rc>
    <rc><c>Sn</c><c>   1</c></rc>
    <rc><c>Sn</c><c>   1</c></rc>
    <rc><c>Sn</c><c>   1</c></rc>
    <rc><c>Sn</c><c>   1</c></rc>
    <rc><c>Sn</c><c>   1</c></rc>
    <rc><c>Sn</c><c>   1</c></rc>
    <rc><c>Sn</c><c>   1</c></rc>
    <rc><c>Sn</c><c>   1</c></rc>
    <rc><c>Si</c><c>   2</c></rc>
    <rc><c>Si</c><c>   2</c></rc>
    <rc><c>Si</c><c>   2</c></rc>
    <rc><c>Si</c><c>   2</c></rc>
    <rc><c>Si</c><c>   2</c></rc>
    <rc><c>Si</c><c>   2</c></rc>
    <rc><c>Si</c><c>   2</c></rc>
    <rc><c>Si</c><c>   2</c></rc>
    <rc><c>Si</c><c>   2</c></rc>
    <rc><c>Si</c><c>   2</c></rc>
    <rc><c>Si</c><c>   2</c></rc>
    <rc><c>Si</c><c>   2</c></rc>
    <rc><c>Si</c><c>   2</c></rc>
    <rc><c>Si</c><c>   2</c></rc>
    <rc><c>Si</c><c>   2</c></rc>
    <rc><c>Si</c><c>   2</c></rc>
    <rc><c>Si</c><c>   2</c></rc>
    <rc><c>Si</c><c>   2</c></rc>
    <rc><c>Si</c><c>   2</c></rc>
    <rc><c>Si</c><c>   2</c></rc>
    <rc><c>Si</c><c>   2</c></rc>
    <rc><c>Si</c><c>   2</c></rc>
    <rc><c>Si</c><c>   2</c></rc>
    <rc><c>Si</c><c>   2</c></rc>
    <rc><c>Si</c><c>   2</c></rc>
    <rc><c>Si</c><c>   2</c></rc>
    <rc><c>Si</c><c>   2</c></rc>
    <rc><c>Si</c><c>   2</c></rc>
    <rc><c>Si</c><c>   2</c></rc>
    <rc><c>Si</c><c>   2</c></rc>
    <rc><c>Si</c><c>   2</c></rc>
    <rc><c>Si</c><c>   2</c></rc>
    <rc><c>Si</c><c>   2</c></rc>
    <rc><c>Si</c><c>   2</c></rc>
    <rc><c>Si</c><c>   2</c></rc>
    <rc><c>Si</c><c>   2</c></rc>
   </set>
  </array>
  <array name="atomtypes" >
   <dimension dim="1">type</dimension>
   <field type="int">atomspertype</field>
   <field type="string">element</field>
   <field>mass</field>
   <field>valence</field>
   <field type="string">pseudopotential</field>
   <set>
    <rc><c>  24</c><c>Sn</c><c>    118.71000000</c><c>      4.00000000</c><c>  PAW_PBE Sn 08Apr2002                  </c></rc>
    <rc><c>  36</c><c>Si</c><c>     28.08500000</c><c>      4.00000000</c><c>  PAW_PBE Si 05Jan2001                  </c></rc>
   </set>
  </array>
 </atominfo>
 <structure name="initialpos" >
  <crystal>
   <varray name="basis" >
    <v>      12.97840023       0.00000000       0.00000000 </v>
    <v>       6.48920012      14.51029301       0.00000000 </v>
    <v>       0.00000000       0.00000000       6.66359377 </v>
   </varray>
   <i name="volume">   1254.89057804 </i>
   <varray name="rec_basis" >
    <v>       0.07705110      -0.03445830       0.00000000 </v>
    <v>       0.00000000       0.06891660       0.00000000 </v>
    <v>       0.00000000       0.00000000       0.15006917 </v>
   </varray>
  </crystal>
  <varray name="positions" >
   <v>       0.98717922       0.02564151       0.00000000 </v>
   <v>       0.83717918       0.32564157       0.21775478 </v>
   <v>       0.68717915       0.62564164       0.43550959 </v>
   <v>       0.48717925       0.02564151       0.00000000 </v>
   <v>       0.33717915       0.32564157       0.21775478 </v>
   <v>       0.18717913       0.62564164       0.43550959 </v>
   <v>       0.28717920       0.67564148       0.10887715 </v>
   <v>       0.13717918       0.97564149       0.32663199 </v>
   <v>       0.98717910       0.27564156       0.54438668 </v>
   <v>       0.78717935       0.67564148       0.10887715 </v>
   <v>       0.63717931       0.97564149       0.32663199 </v>
   <v>       0.48717925       0.27564156       0.54438668 </v>
   <v>       0.98717928       0.52564150       0.00000003 </v>
   <v>       0.83717918       0.82564151       0.21775483 </v>
   <v>       0.68717909       0.12564170       0.43550959 </v>
   <v>       0.48717925       0.52564150       0.00000003 </v>
   <v>       0.33717924       0.82564151       0.21775483 </v>
   <v>       0.18717912       0.12564170       0.43550959 </v>
   <v>       0.28717923       0.17564151       0.10887717 </v>
   <v>       0.13717917       0.47564155       0.32663199 </v>
   <v>       0.98717916       0.77564162       0.54438674 </v>
   <v>       0.78717929       0.17564151       0.10887717 </v>
   <v>       0.63717925       0.47564155       0.32663199 </v>
   <v>       0.48717916       0.77564162       0.54438674 </v>
   <v>       0.98290563       0.99145281       0.54438674 </v>
   <v>       0.78290558       0.89145279       0.72663218 </v>
   <v>       0.58290541       0.79145271       0.90887743 </v>
   <v>       0.98290563       0.32478613       0.54438674 </v>
   <v>       0.78290558       0.22478609       0.72663218 </v>
   <v>       0.58290541       0.12478605       0.90887743 </v>
   <v>       0.98290563       0.65811950       0.54438674 </v>
   <v>       0.78290558       0.55811942       0.72663218 </v>
   <v>       0.58290541       0.45811933       0.90887743 </v>
   <v>       0.63290566       0.19145286       0.63550919 </v>
   <v>       0.43290559       0.09145281       0.81775457 </v>
   <v>       0.23290552       0.99145275       0.99999994 </v>
   <v>       0.63290566       0.52478611       0.63550919 </v>
   <v>       0.43290559       0.42478603       0.81775457 </v>
   <v>       0.23290552       0.32478604       0.99999994 </v>
   <v>       0.63290566       0.85811943       0.63550919 </v>
   <v>       0.43290559       0.75811928       0.81775457 </v>
   <v>       0.23290552       0.65811938       0.99999994 </v>
   <v>       0.48290563       0.99145281       0.54438674 </v>
   <v>       0.28290555       0.89145279       0.72663218 </v>
   <v>       0.08290544       0.79145277       0.90887743 </v>
   <v>       0.48290563       0.32478607       0.54438674 </v>
   <v>       0.28290555       0.22478601       0.72663218 </v>
   <v>       0.08290544       0.12478600       0.90887743 </v>
   <v>       0.48290563       0.65811950       0.54438674 </v>
   <v>       0.28290555       0.55811948       0.72663218 </v>
   <v>       0.08290544       0.45811933       0.90887743 </v>
   <v>       0.13290568       0.19145283       0.63550919 </v>
   <v>       0.93290555       0.09145278       0.81775457 </v>
   <v>       0.73290551       0.99145275       0.99999994 </v>
   <v>       0.13290568       0.52478611       0.63550919 </v>
   <v>       0.93290555       0.42478609       0.81775457 </v>
   <v>       0.73290551       0.32478604       0.99999994 </v>
   <v>       0.13290568       0.85811943       0.63550919 </v>
   <v>       0.93290555       0.75811934       0.81775457 </v>
   <v>       0.73290551       0.65811938       0.99999994 </v>
  </varray>
 </structure>
 <calculation>
  <scstep>
   <time name="dav">   11.40   11.50</time>
   <time name="total">   12.32   12.43</time>
   <energy>
    <i name="alphaZ">    201.48764413 </i>
    <i name="ewald">  -5667.28995261 </i>
    <i name="hartreedc">   -713.92130261 </i>
    <i name="XCdc">  -3177.99280621 </i>
    <i name="pawpsdc">   7718.42320762 </i>
    <i name="pawaedc">  -4112.57403773 </i>
    <i name="eentropy">     -0.00048030 </i>
    <i name="bandstr">   1525.33673406 </i>
    <i name="atom">   5968.46204355 </i>
    <i name="e_fr_energy">   1741.93104991 </i>
    <i name="e_wo_entrp">   1741.93153021 </i>
    <i name="e_0_energy">   1741.93129006 </i>
   </energy>
  </scstep>
  <scstep>
   <time name="dav">   12.92   13.04</time>
   <time name="total">   12.92   13.04</time>
   <energy>
    <i name="e_fr_energy">    455.24983659 </i>
    <i name="e_wo_entrp">    455.25106462 </i>
    <i name="e_0_energy">    455.25045061 </i>
   </energy>
  </scstep>
  <scstep>
   <time name="dav">   14.21   14.34</time>
   <time name="total">   14.21   14.34</time>
   <energy>
    <i name="e_fr_energy">    323.87882511 </i>
    <i name="e_wo_entrp">    323.88016888 </i>
    <i name="e_0_energy">    323.87949699 </i>
   </energy>
  </scstep>
  <scstep>
   <time name="dav">   14.71   14.84</time>
   <time name="total">   14.71   14.84</time>
   <energy>
    <i name="e_fr_energy">    315.97833979 </i>
    <i name="e_wo_entrp">    315.98035851 </i>
    <i name="e_0_energy">    315.97934915 </i>
   </energy>
  </scstep>
  <scstep>
   <time name="dav">   16.15   16.30</time>
   <time name="total">   17.02   17.17</time>
   <energy>
    <i name="e_fr_energy">    315.48650851 </i>
    <i name="e_wo_entrp">    315.48861253 </i>
    <i name="e_0_energy">    315.48756052 </i>
   </energy>
  </scstep>
  <scstep>
   <time name="dav">   12.43   12.54</time>
   <time name="total">   15.51   15.64</time>
   <energy>
    <i name="e_fr_energy">    340.61746200 </i>
    <i name="e_wo_entrp">    340.61911253 </i>
    <i name="e_0_energy">    340.61828727 </i>
   </energy>
  </scstep>
  <scstep>
   <time name="dav">   14.66   14.80</time>
   <time name="total">   18.27   18.43</time>
   <energy>
    <i name="e_fr_energy">    317.14263977 </i>
    <i name="e_wo_entrp">    317.14386117 </i>
    <i name="e_0_energy">    317.14325047 </i>
   </energy>
  </scstep>
  <scstep>
   <time name="dav">   14.74   14.87</time>
   <time name="total">   16.49   16.64</time>
   <energy>
    <i name="e_fr_energy">    346.03729857 </i>
    <i name="e_wo_entrp">    346.03908281 </i>
    <i name="e_0_energy">    346.03819069 </i>
   </energy>
  </scstep>
  <scstep>
   <time name="dav">   13.71   13.84</time>
   <time name="total">   15.47   15.60</time>
   <energy>
    <i name="e_fr_energy">    344.25537752 </i>
    <i name="e_wo_entrp">    344.25672900 </i>
    <i name="e_0_energy">    344.25605326 </i>
   </energy>
  </scstep>
  <scstep>
   <time name="dav">   14.46   14.59</time>
   <time name="total">   24.30   24.47</time>
   <energy>
    <i name="e_fr_energy">    344.66758676 </i>
    <i name="e_wo_entrp">    344.66924407 </i>
    <i name="e_0_energy">    344.66841541 </i>
   </energy>
  </scstep>
  <scstep>
   <time name="dav">   14.43   14.57</time>
   <time name="total">   16.18   16.33</time>
   <energy>
    <i name="e_fr_energy">    344.61424567 </i>
    <i name="e_wo_entrp">    344.61591557 </i>
    <i name="e_0_energy">    344.61508062 </i>
   </energy>
  </scstep>
  <scstep>
   <time name="dav">   15.81   15.96</time>
   <time name="total">   19.31   19.48</time>
   <energy>
    <i name="e_fr_energy">    344.59997597 </i>
    <i name="e_wo_entrp">    344.60163793 </i>
    <i name="e_0_energy">    344.60080695 </i>
   </energy>
  </scstep>
  <scstep>
   <time name="dav">   13.61   13.73</time>
   <time name="total">   15.37   15.50</time>
   <energy>
    <i name="e_fr_energy">    344.56293459 </i>
    <i name="e_wo_entrp">    344.56459582 </i>
    <i name="e_0_energy">    344.56376520 </i>
   </energy>
  </scstep>
  <scstep>
   <time name="dav">   13.94   14.07</time>
   <time name="total">   15.68   15.82</time>
   <energy>
    <i name="e_fr_energy">    344.57428608 </i>
    <i name="e_wo_entrp">    344.57651763 </i>
    <i name="e_0_energy">    344.57540186 </i>
   </energy>
  </scstep>
  <scstep>
   <time name="dav">   14.93   15.06</time>
   <time name="total">   16.68   16.83</time>
   <energy>
    <i name="e_fr_energy">    344.59038470 </i>
    <i name="e_wo_entrp">    344.59198908 </i>
    <i name="e_0_energy">    344.59118689 </i>
   </energy>
  </scstep>
  <scstep>
   <time name="dav">   14.30   14.41</time>
   <time name="total">   17.96   18.10</time>
   <energy>
    <i name="e_fr_energy">    344.71061909 </i>
    <i name="e_wo_entrp">    344.71236076 </i>
    <i name="e_0_energy">    344.71148992 </i>
   </energy>
  </scstep>
  <scstep>
   <time name="dav">   13.59   13.73</time>
   <time name="total">   17.45   17.69</time>
   <energy>
    <i name="e_fr_energy">    344.74417537 </i>
    <i name="e_wo_entrp">    344.74593578 </i>
    <i name="e_0_energy">    344.74505557 </i>
   </energy>
  </scstep>
  <scstep>
   <time name="dav">   13.64   13.77</time>
   <time name="total">   17.03   17.17</time>
   <energy>
    <i name="e_fr_energy">    344.76207489 </i>
    <i name="e_wo_entrp">    344.76384926 </i>
    <i name="e_0_energy">    344.76296207 </i>
   </energy>
  </scstep>
  <scstep>
   <time name="dav">   12.95   13.07</time>
   <time name="total">   18.42   18.56</time>
   <energy>
    <i name="e_fr_energy">    344.77486434 </i>
    <i name="e_wo_entrp">    344.77662370 </i>
    <i name="e_0_energy">    344.77574402 </i>
   </energy>
  </scstep>
  <scstep>
   <time name="dav">   13.72   13.85</time>
   <time name="total">   15.47   15.61</time>
   <energy>
    <i name="e_fr_energy">    344.78159838 </i>
    <i name="e_wo_entrp">    344.78335013 </i>
    <i name="e_0_energy">    344.78247426 </i>
   </energy>
  </scstep>
  <scstep>
   <time name="dav">   13.78   13.91</time>
   <time name="total">   17.36   17.50</time>
   <energy>
    <i name="e_fr_energy">    344.78204880 </i>
    <i name="e_wo_entrp">    344.78378594 </i>
    <i name="e_0_energy">    344.78291737 </i>
   </energy>
  </scstep>
  <scstep>
   <time name="dav">   13.54   13.69</time>
   <time name="total">   16.86   17.02</time>
   <energy>
    <i name="e_fr_energy">    344.78244568 </i>
    <i name="e_wo_entrp">    344.78417770 </i>
    <i name="e_0_energy">    344.78331169 </i>
   </energy>
  </scstep>
  <scstep>
   <time name="dav">   13.62   13.74</time>
   <time name="total">   15.37   15.51</time>
   <energy>
    <i name="e_fr_energy">    344.78333087 </i>
    <i name="e_wo_entrp">    344.78506462 </i>
    <i name="e_0_energy">    344.78419774 </i>
   </energy>
  </scstep>
  <scstep>
   <time name="dav">   13.45   13.57</time>
   <time name="total">   15.20   15.33</time>
   <energy>
    <i name="e_fr_energy">    344.78416033 </i>
    <i name="e_wo_entrp">    344.78587948 </i>
    <i name="e_0_energy">    344.78501990 </i>
   </energy>
  </scstep>
  <scstep>
   <time name="dav">   15.66   15.80</time>
   <time name="total">   19.50   19.67</time>
   <energy>
    <i name="e_fr_energy">    344.78428516 </i>
    <i name="e_wo_entrp">    344.78600303 </i>
    <i name="e_0_energy">    344.78514410 </i>
   </energy>
  </scstep>
  <scstep>
   <time name="dav">   13.64   13.77</time>
   <time name="total">   15.39   15.54</time>
   <energy>
    <i name="e_fr_energy">    344.78440161 </i>
    <i name="e_wo_entrp">    344.78611893 </i>
    <i name="e_0_energy">    344.78526027 </i>
   </energy>
  </scstep>
  <scstep>
   <time name="dav">   13.55   13.68</time>
   <time name="total">   15.30   15.44</time>
   <energy>
    <i name="e_fr_energy">    344.78459324 </i>
    <i name="e_wo_entrp">    344.78630863 </i>
    <i name="e_0_energy">    344.78545094 </i>
   </energy>
  </scstep>
  <scstep>
   <time name="dav">   16.27   16.42</time>
   <time name="total">   18.02   18.19</time>
   <energy>
    <i name="e_fr_energy">    344.78466580 </i>
    <i name="e_wo_entrp">    344.78638287 </i>
    <i name="e_0_energy">    344.78552434 </i>
   </energy>
  </scstep>
  <scstep>
   <time name="dav">   13.68   13.81</time>
   <time name="total">   15.44   15.58</time>
   <energy>
    <i name="e_fr_energy">    344.78471130 </i>
    <i name="e_wo_entrp">    344.78642822 </i>
    <i name="e_0_energy">    344.78556976 </i>
   </energy>
  </scstep>
  <scstep>
   <time name="dav">   13.59   13.72</time>
   <time name="total">   15.36   15.50</time>
   <energy>
    <i name="e_fr_energy">    344.78480215 </i>
    <i name="e_wo_entrp">    344.78651953 </i>
    <i name="e_0_energy">    344.78566084 </i>
   </energy>
  </scstep>
  <scstep>
   <time name="dav">   15.42   15.57</time>
   <time name="total">   20.23   20.41</time>
   <energy>
    <i name="e_fr_energy">    344.78484595 </i>
    <i name="e_wo_entrp">    344.78656515 </i>
    <i name="e_0_energy">    344.78570555 </i>
   </energy>
  </scstep>
  <scstep>
   <time name="dav">   14.78   14.92</time>
   <time name="total">   17.73   17.88</time>
   <energy>
    <i name="e_fr_energy">    344.78485430 </i>
    <i name="e_wo_entrp">    344.78657382 </i>
    <i name="e_0_energy">    344.78571406 </i>
   </energy>
  </scstep>
  <scstep>
   <time name="dav">   13.90   14.03</time>
   <time name="total">   17.24   17.40</time>
   <energy>
    <i name="e_fr_energy">    344.78485766 </i>
    <i name="e_wo_entrp">    344.78657749 </i>
    <i name="e_0_energy">    344.78571758 </i>
   </energy>
  </scstep>
  <scstep>
   <time name="dav">   14.62   14.75</time>
   <time name="total">   17.79   17.94</time>
   <energy>
    <i name="e_fr_energy">    344.78485914 </i>
    <i name="e_wo_entrp">    344.78657906 </i>
    <i name="e_0_energy">    344.78571910 </i>
   </energy>
  </scstep>
  <scstep>
   <time name="dav">   15.02   15.16</time>
   <time name="total">   20.59   20.76</time>
   <energy>
    <i name="e_fr_energy">    344.78485939 </i>
    <i name="e_wo_entrp">    344.78657966 </i>
    <i name="e_0_energy">    344.78571953 </i>
   </energy>
  </scstep>
  <scstep>
   <time name="dav">   10.56   10.66</time>
   <time name="total">   11.44   11.55</time>
   <energy>
    <i name="alphaZ">    201.48764413 </i>
    <i name="ewald">  -5667.28995261 </i>
    <i name="hartreedc">   -825.43102711 </i>
    <i name="XCdc">  -3154.54155888 </i>
    <i name="pawpsdc">1704815.21060562 </i>
    <i name="pawaedc">**************** </i>
    <i name="eentropy">     -0.00172044 </i>
    <i name="bandstr">    255.72316582 </i>
    <i name="atom">   5968.46204355 </i>
    <i name="e_fr_energy">    344.78485943 </i>
    <i name="e_wo_entrp">    344.78657987 </i>
    <i name="e_0_energy">    344.78571965 </i>
   </energy>
  </scstep>
  <structure>
   <crystal>
    <varray name="basis" >
     <v>      12.97840023       0.00000000       0.00000000 </v>
     <v>       6.48920012      14.51029301       0.00000000 </v>
     <v>       0.00000000       0.00000000       6.66359377 </v>
    </varray>
    <i name="volume">   1254.89057804 </i>
    <varray name="rec_basis" >
     <v>       0.07705110      -0.03445830       0.00000000 </v>
     <v>       0.00000000       0.06891660       0.00000000 </v>
     <v>       0.00000000       0.00000000       0.15006917 </v>
    </varray>
   </crystal>
   <varray name="positions" >
    <v>       0.98717922       0.02564151       0.00000000 </v>
    <v>       0.83717918       0.32564157       0.21775478 </v>
    <v>       0.68717915       0.62564164       0.43550959 </v>
    <v>       0.48717925       0.02564151       0.00000000 </v>
    <v>       0.33717915       0.32564157       0.21775478 </v>
    <v>       0.18717913       0.62564164       0.43550959 </v>
    <v>       0.28717920       0.67564148       0.10887715 </v>
    <v>       0.13717918       0.97564149       0.32663199 </v>
    <v>       0.98717910       0.27564156       0.54438668 </v>
    <v>       0.78717935       0.67564148       0.10887715 </v>
    <v>       0.63717931       0.97564149       0.32663199 </v>
    <v>       0.48717925       0.27564156       0.54438668 </v>
    <v>       0.98717928       0.52564150       0.00000003 </v>
    <v>       0.83717918       0.82564151       0.21775483 </v>
    <v>       0.68717909       0.12564170       0.43550959 </v>
    <v>       0.48717925       0.52564150       0.00000003 </v>
    <v>       0.33717924       0.82564151       0.21775483 </v>
    <v>       0.18717912       0.12564170       0.43550959 </v>
    <v>       0.28717923       0.17564151       0.10887717 </v>
    <v>       0.13717917       0.47564155       0.32663199 </v>
    <v>       0.98717916       0.77564162       0.54438674 </v>
    <v>       0.78717929       0.17564151       0.10887717 </v>
    <v>       0.63717925       0.47564155       0.32663199 </v>
    <v>       0.48717916       0.77564162       0.54438674 </v>
    <v>       0.98290563       0.99145281       0.54438674 </v>
    <v>       0.78290558       0.89145279       0.72663218 </v>
    <v>       0.58290541       0.79145271       0.90887743 </v>
    <v>       0.98290563       0.32478613       0.54438674 </v>
    <v>       0.78290558       0.22478609       0.72663218 </v>
    <v>       0.58290541       0.12478605       0.90887743 </v>
    <v>       0.98290563       0.65811950       0.54438674 </v>
    <v>       0.78290558       0.55811942       0.72663218 </v>
    <v>       0.58290541       0.45811933       0.90887743 </v>
    <v>       0.63290566       0.19145286       0.63550919 </v>
    <v>       0.43290559       0.09145281       0.81775457 </v>
    <v>       0.23290552       0.99145275       0.99999994 </v>
    <v>       0.63290566       0.52478611       0.63550919 </v>
    <v>       0.43290559       0.42478603       0.81775457 </v>
    <v>       0.23290552       0.32478604       0.99999994 </v>
    <v>       0.63290566       0.85811943       0.63550919 </v>
    <v>       0.43290559       0.75811928       0.81775457 </v>
    <v>       0.23290552       0.65811938       0.99999994 </v>
    <v>       0.48290563       0.99145281       0.54438674 </v>
    <v>       0.28290555       0.89145279       0.72663218 </v>
    <v>       0.08290544       0.79145277       0.90887743 </v>
    <v>       0.48290563       0.32478607       0.54438674 </v>
    <v>       0.28290555       0.22478601       0.72663218 </v>
    <v>       0.08290544       0.12478600       0.90887743 </v>
    <v>       0.48290563       0.65811950       0.54438674 </v>
    <v>       0.28290555       0.55811948       0.72663218 </v>
    <v>       0.08290544       0.45811933       0.90887743 </v>
    <v>       0.13290568       0.19145283       0.63550919 </v>
    <v>       0.93290555       0.09145278       0.81775457 </v>
    <v>       0.73290551       0.99145275       0.99999994 </v>
    <v>       0.13290568       0.52478611       0.63550919 </v>
    <v>       0.93290555       0.42478609       0.81775457 </v>
    <v>       0.73290551       0.32478604       0.99999994 </v>
    <v>       0.13290568       0.85811943       0.63550919 </v>
    <v>       0.93290555       0.75811934       0.81775457 </v>
    <v>       0.73290551       0.65811938       0.99999994 </v>
   </varray>
  </structure>
  <varray name="forces" >
   <v>       8.43104074     -37.66259870      44.68249660 </v>
   <v>       9.96171358       1.01460037       9.04352227 </v>
   <v>       2.56089930       2.64388802      -3.79841683 </v>
   <v>       8.43104074     -37.66259870      44.68249660 </v>
   <v>       9.96171358       1.01460037       9.04352227 </v>
   <v>       2.56089930       2.64388802      -3.79841683 </v>
   <v>     118.09043990      36.90056011     103.79833347 </v>
   <v>       0.78598150       0.19885124      -0.14930693 </v>
   <v>    -144.90803557    -349.23953583      -4.86521447 </v>
   <v>     118.09043990      36.90056011     103.79833347 </v>
   <v>       0.78598150       0.19885124      -0.14930693 </v>
   <v>    -144.90803557    -349.23953583      -4.86521447 </v>
   <v>     -47.83668143      62.90056656      39.47968980 </v>
   <v>       0.49880990       0.24048245      -0.50517189 </v>
   <v>       7.58686759     -25.94127846     -34.88524962 </v>
   <v>     -47.83668143      62.90056656      39.47968980 </v>
   <v>       0.49880990       0.24048245      -0.50517189 </v>
   <v>       7.58686759     -25.94127846     -34.88524962 </v>
   <v>      -2.67341819      -3.19203270       2.89578828 </v>
   <v>      -0.88347954      -2.68149423      -3.68181327 </v>
   <v>      13.90243154      20.24525203     -12.12045158 </v>
   <v>      -2.67341819      -3.19203270       2.89578828 </v>
   <v>      -0.88347954      -2.68149423      -3.68181327 </v>
   <v>      13.90243154      20.24525203     -12.12045158 </v>
   <v>      -2.34138775       0.40599203       0.57226819 </v>
   <v>      -0.21134501       0.66869176       0.00146278 </v>
   <v>       0.01045409       0.68768693       1.07978927 </v>
   <v>     131.43175692     362.86162254      -0.29668228 </v>
   <v>       0.98640434       0.98885250      -0.89669236 </v>
   <v>       2.24704503       1.95639665       0.38314440 </v>
   <v>     -10.42786764     -17.67200457      -0.00695320 </v>
   <v>       1.30612427      -1.11898121       2.85244726 </v>
   <v>      49.52731596     -60.00820031     -38.45726608 </v>
   <v>       5.32316747      12.76156657      40.12594608 </v>
   <v>      -9.96437180      33.97482549     -45.27715866 </v>
   <v>       1.47821946      -0.13135969      -1.01800320 </v>
   <v>      -1.23348767      -0.93983829       7.00881019 </v>
   <v>      -2.50660621      -3.09579040      -2.46159407 </v>
   <v>      -7.74992805       2.64046410     -10.76437903 </v>
   <v>      -0.25789425      -0.79696767       0.28708769 </v>
   <v>      -5.30782950      -2.17685832      12.27935837 </v>
   <v>    -117.82633897     -36.43335896    -105.30579118 </v>
   <v>      -2.34138775       0.40599203       0.57226819 </v>
   <v>      -0.21134501       0.66869176       0.00146278 </v>
   <v>       0.01045409       0.68768693       1.07978927 </v>
   <v>     131.43175692     362.86162254      -0.29668228 </v>
   <v>       0.98640434       0.98885250      -0.89669236 </v>
   <v>       2.24704503       1.95639665       0.38314440 </v>
   <v>     -10.42786764     -17.67200457      -0.00695320 </v>
   <v>       1.30612427      -1.11898121       2.85244726 </v>
   <v>      49.52731596     -60.00820031     -38.45726608 </v>
   <v>       5.32316747      12.76156657      40.12594608 </v>
   <v>      -9.96437180      33.97482549     -45.27715866 </v>
   <v>       1.47821946      -0.13135969      -1.01800320 </v>
   <v>      -1.23348767      -0.93983829       7.00881019 </v>
   <v>      -2.50660621      -3.09579040      -2.46159407 </v>
   <v>      -7.74992805       2.64046410     -10.76437903 </v>
   <v>      -0.25789425      -0.79696767       0.28708769 </v>
   <v>      -5.30782950      -2.17685832      12.27935837 </v>
   <v>    -117.82633897     -36.43335896    -105.30579118 </v>
  </varray>
  <varray name="stress" >
   <v>     693.68217621     155.41181055     176.88148127 </v>
   <v>     155.41209117    1247.29230552     114.66684876 </v>
   <v>     176.88134900     114.66670475     785.77209993 </v>
  </varray>
  <energy>
   <i name="e_fr_energy">    344.78485943 </i>
   <i name="e_wo_entrp">    344.78657987 </i>
   <i name="e_0_energy">    344.78571965 </i>
  </energy>
  <time name="totalsc">  627.90  633.61</time>
  <eigenvalues>
   <array>
    <dimension dim="1">band</dimension>
    <dimension dim="2">kpoint</dimension>
    <dimension dim="3">spin</dimension>
    <field>eigene</field>
    <field>occ</field>
    <set>
     <set comment="spin 1">
      <set comment="kpoint 1">
       <r>   -7.4657    1.0000 </r>
       <r>   -7.3122    1.0000 </r>
       <r>   -7.1053    1.0000 </r>
       <r>   -6.6954    1.0000 </r>
       <r>   -6.6294    1.0000 </r>
       <r>   -6.4756    1.0000 </r>
       <r>   -6.1594    1.0000 </r>
       <r>   -6.0358    1.0000 </r>
       <r>   -5.7460    1.0000 </r>
       <r>   -5.2495    1.0000 </r>
       <r>   -5.1845    1.0000 </r>
       <r>   -5.1832    1.0000 </r>
       <r>   -4.5529    1.0000 </r>
       <r>   -4.3018    1.0000 </r>
       <r>   -4.0419    1.0000 </r>
       <r>   -4.0400    1.0000 </r>
       <r>   -3.4237    1.0000 </r>
       <r>   -3.3257    1.0000 </r>
       <r>   -2.9716    1.0000 </r>
       <r>   -2.8215    1.0000 </r>
       <r>   -2.7879    1.0000 </r>
       <r>   -2.7002    1.0000 </r>
       <r>   -2.6306    1.0000 </r>
       <r>   -2.3425    1.0000 </r>
       <r>   -2.1844    1.0000 </r>
       <r>   -2.1477    1.0000 </r>
       <r>   -2.0387    1.0000 </r>
       <r>   -1.9986    1.0000 </r>
       <r>   -1.7325    1.0000 </r>
       <r>   -1.7013    1.0000 </r>
       <r>   -1.6338    1.0000 </r>
       <r>   -1.4525    1.0000 </r>
       <r>   -1.3634    1.0000 </r>
       <r>   -1.1871    1.0000 </r>
       <r>   -1.1509    1.0000 </r>
       <r>   -1.0826    1.0000 </r>
       <r>   -1.0379    1.0000 </r>
       <r>   -0.8402    1.0000 </r>
       <r>   -0.7405    1.0000 </r>
       <r>   -0.5888    1.0000 </r>
       <r>   -0.5101    1.0000 </r>
       <r>   -0.4629    1.0000 </r>
       <r>   -0.3930    1.0000 </r>
       <r>   -0.3417    1.0000 </r>
       <r>   -0.3349    1.0000 </r>
       <r>   -0.2155    1.0000 </r>
       <r>    0.0113    1.0000 </r>
       <r>    0.1300    1.0000 </r>
       <r>    0.1500    1.0000 </r>
       <r>    0.5105    1.0000 </r>
       <r>    0.5674    1.0000 </r>
       <r>    0.7584    1.0000 </r>
       <r>    0.7792    1.0000 </r>
       <r>    0.8116    1.0000 </r>
       <r>    0.8567    1.0000 </r>
       <r>    1.1157    1.0000 </r>
       <r>    1.2533    1.0000 </r>
       <r>    1.2832    1.0000 </r>
       <r>    1.4015    1.0000 </r>
       <r>    1.4434    1.0000 </r>
       <r>    1.5471    1.0000 </r>
       <r>    1.5523    1.0000 </r>
       <r>    1.6536    1.0000 </r>
       <r>    1.8450    1.0000 </r>
       <r>    1.9897    1.0000 </r>
       <r>    2.0383    1.0000 </r>
       <r>    2.2015    1.0000 </r>
       <r>    2.2091    1.0000 </r>
       <r>    2.2958    1.0000 </r>
       <r>    2.3376    1.0000 </r>
       <r>    2.4509    1.0000 </r>
       <r>    2.5951    1.0000 </r>
       <r>    2.6172    1.0000 </r>
       <r>    2.7572    1.0000 </r>
       <r>    2.8965    1.0000 </r>
       <r>    2.9836    1.0000 </r>
       <r>    3.0537    1.0000 </r>
       <r>    3.0850    1.0000 </r>
       <r>    3.1893    1.0000 </r>
       <r>    3.3289    1.0000 </r>
       <r>    3.3775    1.0000 </r>
       <r>    3.4048    1.0000 </r>
       <r>    3.6471    1.0000 </r>
       <r>    3.7384    1.0000 </r>
       <r>    3.7866    1.0000 </r>
       <r>    3.8318    1.0000 </r>
       <r>    3.9804    1.0000 </r>
       <r>    3.9967    1.0000 </r>
       <r>    4.1600    1.0000 </r>
       <r>    4.1852    1.0000 </r>
       <r>    4.2815    1.0000 </r>
       <r>    4.3921    1.0000 </r>
       <r>    4.5153    1.0000 </r>
       <r>    4.5670    1.0000 </r>
       <r>    4.6051    1.0000 </r>
       <r>    4.8108    1.0000 </r>
       <r>    4.9802    1.0000 </r>
       <r>    5.0094    1.0000 </r>
       <r>    5.0154    1.0000 </r>
       <r>    5.0975    1.0000 </r>
       <r>    5.1800    1.0000 </r>
       <r>    5.2144    1.0000 </r>
       <r>    5.2841    1.0000 </r>
       <r>    5.5659    1.0000 </r>
       <r>    5.5850    1.0000 </r>
       <r>    5.6837    1.0000 </r>
       <r>    5.6991    1.0000 </r>
       <r>    5.8010    1.0000 </r>
       <r>    5.8783    1.0000 </r>
       <r>    5.9370    1.0000 </r>
       <r>    6.1903    1.0000 </r>
       <r>    6.2188    1.0000 </r>
       <r>    6.3388    1.0000 </r>
       <r>    6.3598    1.0000 </r>
       <r>    6.5608    1.0000 </r>
       <r>    6.5727    1.0000 </r>
       <r>    6.5954    1.0000 </r>
       <r>    6.6306    1.0000 </r>
       <r>    6.7197    0.0000 </r>
       <r>    6.7352    0.0000 </r>
       <r>    6.8660    0.0000 </r>
       <r>    6.9606    0.0000 </r>
       <r>    7.0445    0.0000 </r>
       <r>    7.1111    0.0000 </r>
       <r>    7.1468    0.0000 </r>
       <r>    7.1541    0.0000 </r>
       <r>    7.1849    0.0000 </r>
       <r>    7.3102    0.0000 </r>
       <r>    7.3252    0.0000 </r>
       <r>    7.4375    0.0000 </r>
       <r>    7.4556    0.0000 </r>
       <r>    7.6173    0.0000 </r>
       <r>    7.8143    0.0000 </r>
       <r>    7.9007    0.0000 </r>
       <r>    7.9230    0.0000 </r>
       <r>    7.9531    0.0000 </r>
       <r>    8.0182    0.0000 </r>
       <r>    8.0806    0.0000 </r>
       <r>    8.0859    0.0000 </r>
       <r>    8.1219    0.0000 </r>
       <r>    8.2064    0.0000 </r>
       <r>    8.2110    0.0000 </r>
       <r>    8.3015    0.0000 </r>
       <r>    8.4409    0.0000 </r>
      </set>
      <set comment="kpoint 2">
       <r>   -7.4274    1.0000 </r>
       <r>   -7.3510    1.0000 </r>
       <r>   -7.0639    1.0000 </r>
       <r>   -6.9143    1.0000 </r>
       <r>   -6.4187    1.0000 </r>
       <r>   -6.4130    1.0000 </r>
       <r>   -6.2050    1.0000 </r>
       <r>   -6.1028    1.0000 </r>
       <r>   -5.5866    1.0000 </r>
       <r>   -5.4476    1.0000 </r>
       <r>   -5.2483    1.0000 </r>
       <r>   -5.0991    1.0000 </r>
       <r>   -4.4832    1.0000 </r>
       <r>   -4.4502    1.0000 </r>
       <r>   -3.9201    1.0000 </r>
       <r>   -3.9130    1.0000 </r>
       <r>   -3.4443    1.0000 </r>
       <r>   -3.3845    1.0000 </r>
       <r>   -3.0818    1.0000 </r>
       <r>   -3.0352    1.0000 </r>
       <r>   -2.7115    1.0000 </r>
       <r>   -2.6032    1.0000 </r>
       <r>   -2.5781    1.0000 </r>
       <r>   -2.3591    1.0000 </r>
       <r>   -2.2662    1.0000 </r>
       <r>   -2.1870    1.0000 </r>
       <r>   -1.8796    1.0000 </r>
       <r>   -1.8539    1.0000 </r>
       <r>   -1.7905    1.0000 </r>
       <r>   -1.7691    1.0000 </r>
       <r>   -1.5479    1.0000 </r>
       <r>   -1.4722    1.0000 </r>
       <r>   -1.3284    1.0000 </r>
       <r>   -1.2618    1.0000 </r>
       <r>   -1.1041    1.0000 </r>
       <r>   -1.0106    1.0000 </r>
       <r>   -0.9951    1.0000 </r>
       <r>   -0.9030    1.0000 </r>
       <r>   -0.7997    1.0000 </r>
       <r>   -0.6146    1.0000 </r>
       <r>   -0.5899    1.0000 </r>
       <r>   -0.5040    1.0000 </r>
       <r>   -0.3847    1.0000 </r>
       <r>   -0.3530    1.0000 </r>
       <r>   -0.2754    1.0000 </r>
       <r>   -0.1313    1.0000 </r>
       <r>   -0.0561    1.0000 </r>
       <r>    0.0704    1.0000 </r>
       <r>    0.4009    1.0000 </r>
       <r>    0.4413    1.0000 </r>
       <r>    0.5234    1.0000 </r>
       <r>    0.6579    1.0000 </r>
       <r>    0.7661    1.0000 </r>
       <r>    0.8720    1.0000 </r>
       <r>    1.0121    1.0000 </r>
       <r>    1.0366    1.0000 </r>
       <r>    1.1494    1.0000 </r>
       <r>    1.2874    1.0000 </r>
       <r>    1.3536    1.0000 </r>
       <r>    1.4063    1.0000 </r>
       <r>    1.5246    1.0000 </r>
       <r>    1.5704    1.0000 </r>
       <r>    1.7379    1.0000 </r>
       <r>    1.8559    1.0000 </r>
       <r>    1.9937    1.0000 </r>
       <r>    2.0275    1.0000 </r>
       <r>    2.1735    1.0000 </r>
       <r>    2.2077    1.0000 </r>
       <r>    2.2727    1.0000 </r>
       <r>    2.3149    1.0000 </r>
       <r>    2.5079    1.0000 </r>
       <r>    2.5822    1.0000 </r>
       <r>    2.6217    1.0000 </r>
       <r>    2.7503    1.0000 </r>
       <r>    2.8698    1.0000 </r>
       <r>    3.0060    1.0000 </r>
       <r>    3.0242    1.0000 </r>
       <r>    3.0658    1.0000 </r>
       <r>    3.0972    1.0000 </r>
       <r>    3.2898    1.0000 </r>
       <r>    3.2934    1.0000 </r>
       <r>    3.4720    1.0000 </r>
       <r>    3.5986    1.0000 </r>
       <r>    3.6718    1.0000 </r>
       <r>    3.7430    1.0000 </r>
       <r>    3.7930    1.0000 </r>
       <r>    4.0424    1.0000 </r>
       <r>    4.0557    1.0000 </r>
       <r>    4.2244    1.0000 </r>
       <r>    4.2913    1.0000 </r>
       <r>    4.3579    1.0000 </r>
       <r>    4.4120    1.0000 </r>
       <r>    4.6297    1.0000 </r>
       <r>    4.6649    1.0000 </r>
       <r>    4.6852    1.0000 </r>
       <r>    4.7387    1.0000 </r>
       <r>    4.9698    1.0000 </r>
       <r>    5.1090    1.0000 </r>
       <r>    5.1454    1.0000 </r>
       <r>    5.1904    1.0000 </r>
       <r>    5.2573    1.0000 </r>
       <r>    5.3060    1.0000 </r>
       <r>    5.3791    1.0000 </r>
       <r>    5.4340    1.0000 </r>
       <r>    5.5262    1.0000 </r>
       <r>    5.5294    1.0000 </r>
       <r>    5.7102    1.0000 </r>
       <r>    5.8448    1.0000 </r>
       <r>    5.9296    1.0000 </r>
       <r>    5.9458    1.0000 </r>
       <r>    6.1322    1.0000 </r>
       <r>    6.1602    1.0000 </r>
       <r>    6.2475    1.0000 </r>
       <r>    6.2626    1.0000 </r>
       <r>    6.3360    1.0000 </r>
       <r>    6.4946    1.0000 </r>
       <r>    6.5540    1.0000 </r>
       <r>    6.6285    1.0000 </r>
       <r>    6.7293    0.0000 </r>
       <r>    6.8187    0.0000 </r>
       <r>    6.8703    0.0000 </r>
       <r>    6.9353    0.0000 </r>
       <r>    7.0098    0.0000 </r>
       <r>    7.0280    0.0000 </r>
       <r>    7.1472    0.0000 </r>
       <r>    7.1705    0.0000 </r>
       <r>    7.2943    0.0000 </r>
       <r>    7.3137    0.0000 </r>
       <r>    7.3813    0.0000 </r>
       <r>    7.4304    0.0000 </r>
       <r>    7.6036    0.0000 </r>
       <r>    7.6351    0.0000 </r>
       <r>    7.6677    0.0000 </r>
       <r>    7.7742    0.0000 </r>
       <r>    7.7870    0.0000 </r>
       <r>    7.8256    0.0000 </r>
       <r>    7.9878    0.0000 </r>
       <r>    8.0396    0.0000 </r>
       <r>    8.1078    0.0000 </r>
       <r>    8.1850    0.0000 </r>
       <r>    8.2587    0.0000 </r>
       <r>    8.3279    0.0000 </r>
       <r>    8.3738    0.0000 </r>
       <r>    8.3870    0.0000 </r>
      </set>
      <set comment="kpoint 3">
       <r>   -7.4497    1.0000 </r>
       <r>   -7.3144    1.0000 </r>
       <r>   -7.1507    1.0000 </r>
       <r>   -6.6894    1.0000 </r>
       <r>   -6.6211    1.0000 </r>
       <r>   -6.3967    1.0000 </r>
       <r>   -6.1806    1.0000 </r>
       <r>   -6.0527    1.0000 </r>
       <r>   -5.7288    1.0000 </r>
       <r>   -5.4302    1.0000 </r>
       <r>   -5.2193    1.0000 </r>
       <r>   -5.0280    1.0000 </r>
       <r>   -4.5513    1.0000 </r>
       <r>   -4.4157    1.0000 </r>
       <r>   -3.9036    1.0000 </r>
       <r>   -3.8467    1.0000 </r>
       <r>   -3.4254    1.0000 </r>
       <r>   -3.3470    1.0000 </r>
       <r>   -3.1390    1.0000 </r>
       <r>   -3.1003    1.0000 </r>
       <r>   -2.7453    1.0000 </r>
       <r>   -2.6610    1.0000 </r>
       <r>   -2.5103    1.0000 </r>
       <r>   -2.3966    1.0000 </r>
       <r>   -2.1968    1.0000 </r>
       <r>   -2.1048    1.0000 </r>
       <r>   -2.0051    1.0000 </r>
       <r>   -1.8436    1.0000 </r>
       <r>   -1.8046    1.0000 </r>
       <r>   -1.5795    1.0000 </r>
       <r>   -1.5592    1.0000 </r>
       <r>   -1.4216    1.0000 </r>
       <r>   -1.3883    1.0000 </r>
       <r>   -1.3850    1.0000 </r>
       <r>   -1.1760    1.0000 </r>
       <r>   -1.1342    1.0000 </r>
       <r>   -1.0488    1.0000 </r>
       <r>   -0.8370    1.0000 </r>
       <r>   -0.7969    1.0000 </r>
       <r>   -0.7301    1.0000 </r>
       <r>   -0.5562    1.0000 </r>
       <r>   -0.4590    1.0000 </r>
       <r>   -0.3535    1.0000 </r>
       <r>   -0.2647    1.0000 </r>
       <r>   -0.2447    1.0000 </r>
       <r>   -0.0529    1.0000 </r>
       <r>    0.0162    1.0000 </r>
       <r>    0.1379    1.0000 </r>
       <r>    0.2617    1.0000 </r>
       <r>    0.4739    1.0000 </r>
       <r>    0.4989    1.0000 </r>
       <r>    0.6737    1.0000 </r>
       <r>    0.7081    1.0000 </r>
       <r>    0.8310    1.0000 </r>
       <r>    0.9490    1.0000 </r>
       <r>    1.0216    1.0000 </r>
       <r>    1.2353    1.0000 </r>
       <r>    1.3333    1.0000 </r>
       <r>    1.3398    1.0000 </r>
       <r>    1.4135    1.0000 </r>
       <r>    1.5126    1.0000 </r>
       <r>    1.7881    1.0000 </r>
       <r>    1.7898    1.0000 </r>
       <r>    1.8448    1.0000 </r>
       <r>    1.9389    1.0000 </r>
       <r>    2.0722    1.0000 </r>
       <r>    2.1398    1.0000 </r>
       <r>    2.2733    1.0000 </r>
       <r>    2.3326    1.0000 </r>
       <r>    2.3929    1.0000 </r>
       <r>    2.4253    1.0000 </r>
       <r>    2.5168    1.0000 </r>
       <r>    2.6676    1.0000 </r>
       <r>    2.7319    1.0000 </r>
       <r>    2.7748    1.0000 </r>
       <r>    2.8433    1.0000 </r>
       <r>    2.8848    1.0000 </r>
       <r>    2.9810    1.0000 </r>
       <r>    3.0063    1.0000 </r>
       <r>    3.3659    1.0000 </r>
       <r>    3.4055    1.0000 </r>
       <r>    3.4345    1.0000 </r>
       <r>    3.6487    1.0000 </r>
       <r>    3.7400    1.0000 </r>
       <r>    3.8003    1.0000 </r>
       <r>    3.8191    1.0000 </r>
       <r>    3.9453    1.0000 </r>
       <r>    4.0523    1.0000 </r>
       <r>    4.1948    1.0000 </r>
       <r>    4.3031    1.0000 </r>
       <r>    4.3660    1.0000 </r>
       <r>    4.5034    1.0000 </r>
       <r>    4.6189    1.0000 </r>
       <r>    4.6708    1.0000 </r>
       <r>    4.7254    1.0000 </r>
       <r>    4.7740    1.0000 </r>
       <r>    4.8842    1.0000 </r>
       <r>    4.9365    1.0000 </r>
       <r>    4.9830    1.0000 </r>
       <r>    5.1071    1.0000 </r>
       <r>    5.1808    1.0000 </r>
       <r>    5.3675    1.0000 </r>
       <r>    5.3826    1.0000 </r>
       <r>    5.4709    1.0000 </r>
       <r>    5.6264    1.0000 </r>
       <r>    5.7434    1.0000 </r>
       <r>    5.7894    1.0000 </r>
       <r>    5.8851    1.0000 </r>
       <r>    5.9427    1.0000 </r>
       <r>    5.9783    1.0000 </r>
       <r>    6.0541    1.0000 </r>
       <r>    6.1481    1.0000 </r>
       <r>    6.1788    1.0000 </r>
       <r>    6.2576    1.0000 </r>
       <r>    6.4117    1.0000 </r>
       <r>    6.4755    1.0000 </r>
       <r>    6.6167    1.0000 </r>
       <r>    6.6337    1.0000 </r>
       <r>    6.7739    0.0000 </r>
       <r>    6.8052    0.0000 </r>
       <r>    6.8113    0.0000 </r>
       <r>    6.9998    0.0000 </r>
       <r>    7.0310    0.0000 </r>
       <r>    7.0401    0.0000 </r>
       <r>    7.0934    0.0000 </r>
       <r>    7.1708    0.0000 </r>
       <r>    7.1851    0.0000 </r>
       <r>    7.3530    0.0000 </r>
       <r>    7.3976    0.0000 </r>
       <r>    7.4514    0.0000 </r>
       <r>    7.5642    0.0000 </r>
       <r>    7.5819    0.0000 </r>
       <r>    7.6197    0.0000 </r>
       <r>    7.7343    0.0000 </r>
       <r>    7.7461    0.0000 </r>
       <r>    7.7862    0.0000 </r>
       <r>    8.0042    0.0000 </r>
       <r>    8.0147    0.0000 </r>
       <r>    8.1517    0.0000 </r>
       <r>    8.1913    0.0000 </r>
       <r>    8.2651    0.0000 </r>
       <r>    8.2668    0.0000 </r>
       <r>    8.3637    0.0000 </r>
       <r>    8.4539    0.0000 </r>
      </set>
      <set comment="kpoint 4">
       <r>   -7.4228    1.0000 </r>
       <r>   -7.3552    1.0000 </r>
       <r>   -7.0775    1.0000 </r>
       <r>   -6.8980    1.0000 </r>
       <r>   -6.4161    1.0000 </r>
       <r>   -6.3888    1.0000 </r>
       <r>   -6.2282    1.0000 </r>
       <r>   -6.1288    1.0000 </r>
       <r>   -5.6158    1.0000 </r>
       <r>   -5.3470    1.0000 </r>
       <r>   -5.2414    1.0000 </r>
       <r>   -5.1568    1.0000 </r>
       <r>   -4.5156    1.0000 </r>
       <r>   -4.3522    1.0000 </r>
       <r>   -4.0030    1.0000 </r>
       <r>   -3.9826    1.0000 </r>
       <r>   -3.4033    1.0000 </r>
       <r>   -3.3749    1.0000 </r>
       <r>   -3.0345    1.0000 </r>
       <r>   -2.9432    1.0000 </r>
       <r>   -2.7626    1.0000 </r>
       <r>   -2.7218    1.0000 </r>
       <r>   -2.4896    1.0000 </r>
       <r>   -2.4127    1.0000 </r>
       <r>   -2.1641    1.0000 </r>
       <r>   -2.0913    1.0000 </r>
       <r>   -2.0062    1.0000 </r>
       <r>   -1.9519    1.0000 </r>
       <r>   -1.8120    1.0000 </r>
       <r>   -1.7398    1.0000 </r>
       <r>   -1.4932    1.0000 </r>
       <r>   -1.4719    1.0000 </r>
       <r>   -1.3149    1.0000 </r>
       <r>   -1.2809    1.0000 </r>
       <r>   -1.1501    1.0000 </r>
       <r>   -1.0579    1.0000 </r>
       <r>   -0.9409    1.0000 </r>
       <r>   -0.8208    1.0000 </r>
       <r>   -0.7262    1.0000 </r>
       <r>   -0.7118    1.0000 </r>
       <r>   -0.5885    1.0000 </r>
       <r>   -0.5039    1.0000 </r>
       <r>   -0.4445    1.0000 </r>
       <r>   -0.3833    1.0000 </r>
       <r>   -0.3058    1.0000 </r>
       <r>   -0.1564    1.0000 </r>
       <r>   -0.0173    1.0000 </r>
       <r>    0.2186    1.0000 </r>
       <r>    0.4062    1.0000 </r>
       <r>    0.4800    1.0000 </r>
       <r>    0.4833    1.0000 </r>
       <r>    0.6096    1.0000 </r>
       <r>    0.7683    1.0000 </r>
       <r>    0.8653    1.0000 </r>
       <r>    0.9406    1.0000 </r>
       <r>    1.0182    1.0000 </r>
       <r>    1.2481    1.0000 </r>
       <r>    1.3076    1.0000 </r>
       <r>    1.3223    1.0000 </r>
       <r>    1.4289    1.0000 </r>
       <r>    1.5441    1.0000 </r>
       <r>    1.6574    1.0000 </r>
       <r>    1.6806    1.0000 </r>
       <r>    1.7638    1.0000 </r>
       <r>    1.9181    1.0000 </r>
       <r>    1.9538    1.0000 </r>
       <r>    2.1566    1.0000 </r>
       <r>    2.2827    1.0000 </r>
       <r>    2.2988    1.0000 </r>
       <r>    2.4654    1.0000 </r>
       <r>    2.4878    1.0000 </r>
       <r>    2.5821    1.0000 </r>
       <r>    2.6699    1.0000 </r>
       <r>    2.6900    1.0000 </r>
       <r>    2.8665    1.0000 </r>
       <r>    2.9163    1.0000 </r>
       <r>    2.9316    1.0000 </r>
       <r>    3.0700    1.0000 </r>
       <r>    3.1664    1.0000 </r>
       <r>    3.2882    1.0000 </r>
       <r>    3.4266    1.0000 </r>
       <r>    3.4728    1.0000 </r>
       <r>    3.5717    1.0000 </r>
       <r>    3.6833    1.0000 </r>
       <r>    3.7281    1.0000 </r>
       <r>    3.9136    1.0000 </r>
       <r>    4.0148    1.0000 </r>
       <r>    4.0484    1.0000 </r>
       <r>    4.1918    1.0000 </r>
       <r>    4.2850    1.0000 </r>
       <r>    4.4947    1.0000 </r>
       <r>    4.4992    1.0000 </r>
       <r>    4.5704    1.0000 </r>
       <r>    4.6046    1.0000 </r>
       <r>    4.6660    1.0000 </r>
       <r>    4.7450    1.0000 </r>
       <r>    4.8070    1.0000 </r>
       <r>    4.9489    1.0000 </r>
       <r>    5.0738    1.0000 </r>
       <r>    5.0740    1.0000 </r>
       <r>    5.1754    1.0000 </r>
       <r>    5.3167    1.0000 </r>
       <r>    5.3316    1.0000 </r>
       <r>    5.4339    1.0000 </r>
       <r>    5.6466    1.0000 </r>
       <r>    5.7162    1.0000 </r>
       <r>    5.7924    1.0000 </r>
       <r>    5.8551    1.0000 </r>
       <r>    5.9630    1.0000 </r>
       <r>    6.0001    1.0000 </r>
       <r>    6.1094    1.0000 </r>
       <r>    6.1806    1.0000 </r>
       <r>    6.2298    1.0000 </r>
       <r>    6.2748    1.0000 </r>
       <r>    6.3298    1.0000 </r>
       <r>    6.4115    1.0000 </r>
       <r>    6.5796    1.0000 </r>
       <r>    6.6199    1.0000 </r>
       <r>    6.7222    0.0000 </r>
       <r>    6.8788    0.0000 </r>
       <r>    6.8969    0.0000 </r>
       <r>    6.9297    0.0000 </r>
       <r>    6.9419    0.0000 </r>
       <r>    7.0460    0.0000 </r>
       <r>    7.1222    0.0000 </r>
       <r>    7.2285    0.0000 </r>
       <r>    7.3225    0.0000 </r>
       <r>    7.3770    0.0000 </r>
       <r>    7.4720    0.0000 </r>
       <r>    7.4950    0.0000 </r>
       <r>    7.5907    0.0000 </r>
       <r>    7.6869    0.0000 </r>
       <r>    7.7113    0.0000 </r>
       <r>    7.7612    0.0000 </r>
       <r>    7.7667    0.0000 </r>
       <r>    7.8755    0.0000 </r>
       <r>    7.9538    0.0000 </r>
       <r>    7.9694    0.0000 </r>
       <r>    8.0280    0.0000 </r>
       <r>    8.0427    0.0000 </r>
       <r>    8.1366    0.0000 </r>
       <r>    8.2335    0.0000 </r>
       <r>    8.3259    0.0000 </r>
       <r>    8.4199    0.0000 </r>
      </set>
      <set comment="kpoint 5">
       <r>   -7.4247    1.0000 </r>
       <r>   -7.2883    1.0000 </r>
       <r>   -7.0530    1.0000 </r>
       <r>   -6.6678    1.0000 </r>
       <r>   -6.5876    1.0000 </r>
       <r>   -6.4275    1.0000 </r>
       <r>   -6.1448    1.0000 </r>
       <r>   -6.1014    1.0000 </r>
       <r>   -5.6984    1.0000 </r>
       <r>   -5.3685    1.0000 </r>
       <r>   -5.2143    1.0000 </r>
       <r>   -5.1832    1.0000 </r>
       <r>   -4.5375    1.0000 </r>
       <r>   -4.3031    1.0000 </r>
       <r>   -4.1174    1.0000 </r>
       <r>   -4.1002    1.0000 </r>
       <r>   -3.6996    1.0000 </r>
       <r>   -3.4886    1.0000 </r>
       <r>   -3.0101    1.0000 </r>
       <r>   -2.9725    1.0000 </r>
       <r>   -2.8772    1.0000 </r>
       <r>   -2.7883    1.0000 </r>
       <r>   -2.5134    1.0000 </r>
       <r>   -2.4570    1.0000 </r>
       <r>   -2.3497    1.0000 </r>
       <r>   -2.1842    1.0000 </r>
       <r>   -2.1010    1.0000 </r>
       <r>   -1.8095    1.0000 </r>
       <r>   -1.7696    1.0000 </r>
       <r>   -1.7430    1.0000 </r>
       <r>   -1.6486    1.0000 </r>
       <r>   -1.5381    1.0000 </r>
       <r>   -1.2754    1.0000 </r>
       <r>   -1.2652    1.0000 </r>
       <r>   -1.1955    1.0000 </r>
       <r>   -1.1021    1.0000 </r>
       <r>   -1.0176    1.0000 </r>
       <r>   -0.8194    1.0000 </r>
       <r>   -0.7777    1.0000 </r>
       <r>   -0.5275    1.0000 </r>
       <r>   -0.4383    1.0000 </r>
       <r>   -0.3143    1.0000 </r>
       <r>   -0.2620    1.0000 </r>
       <r>   -0.2049    1.0000 </r>
       <r>   -0.0645    1.0000 </r>
       <r>    0.0439    1.0000 </r>
       <r>    0.2115    1.0000 </r>
       <r>    0.2230    1.0000 </r>
       <r>    0.2893    1.0000 </r>
       <r>    0.5069    1.0000 </r>
       <r>    0.5653    1.0000 </r>
       <r>    0.7459    1.0000 </r>
       <r>    0.7625    1.0000 </r>
       <r>    0.9666    1.0000 </r>
       <r>    1.0604    1.0000 </r>
       <r>    1.0919    1.0000 </r>
       <r>    1.1707    1.0000 </r>
       <r>    1.2757    1.0000 </r>
       <r>    1.4263    1.0000 </r>
       <r>    1.4489    1.0000 </r>
       <r>    1.5365    1.0000 </r>
       <r>    1.6865    1.0000 </r>
       <r>    1.7222    1.0000 </r>
       <r>    1.9164    1.0000 </r>
       <r>    1.9930    1.0000 </r>
       <r>    2.0924    1.0000 </r>
       <r>    2.0961    1.0000 </r>
       <r>    2.3056    1.0000 </r>
       <r>    2.3198    1.0000 </r>
       <r>    2.4538    1.0000 </r>
       <r>    2.4785    1.0000 </r>
       <r>    2.6566    1.0000 </r>
       <r>    2.6977    1.0000 </r>
       <r>    2.7245    1.0000 </r>
       <r>    2.9674    1.0000 </r>
       <r>    3.0659    1.0000 </r>
       <r>    3.0782    1.0000 </r>
       <r>    3.1524    1.0000 </r>
       <r>    3.1950    1.0000 </r>
       <r>    3.4345    1.0000 </r>
       <r>    3.4420    1.0000 </r>
       <r>    3.6337    1.0000 </r>
       <r>    3.7308    1.0000 </r>
       <r>    3.7693    1.0000 </r>
       <r>    3.8185    1.0000 </r>
       <r>    3.9329    1.0000 </r>
       <r>    4.0631    1.0000 </r>
       <r>    4.1075    1.0000 </r>
       <r>    4.2593    1.0000 </r>
       <r>    4.3052    1.0000 </r>
       <r>    4.3957    1.0000 </r>
       <r>    4.4262    1.0000 </r>
       <r>    4.4731    1.0000 </r>
       <r>    4.5163    1.0000 </r>
       <r>    4.6947    1.0000 </r>
       <r>    4.7654    1.0000 </r>
       <r>    4.8513    1.0000 </r>
       <r>    4.9142    1.0000 </r>
       <r>    5.0788    1.0000 </r>
       <r>    5.1817    1.0000 </r>
       <r>    5.1992    1.0000 </r>
       <r>    5.2021    1.0000 </r>
       <r>    5.2742    1.0000 </r>
       <r>    5.4254    1.0000 </r>
       <r>    5.4997    1.0000 </r>
       <r>    5.6138    1.0000 </r>
       <r>    5.7404    1.0000 </r>
       <r>    5.8032    1.0000 </r>
       <r>    5.9027    1.0000 </r>
       <r>    6.0288    1.0000 </r>
       <r>    6.0385    1.0000 </r>
       <r>    6.1175    1.0000 </r>
       <r>    6.1233    1.0000 </r>
       <r>    6.2280    1.0000 </r>
       <r>    6.2996    1.0000 </r>
       <r>    6.4337    1.0000 </r>
       <r>    6.5240    1.0000 </r>
       <r>    6.6213    1.0000 </r>
       <r>    6.6425    0.9998 </r>
       <r>    6.7286    0.0000 </r>
       <r>    6.7433    0.0000 </r>
       <r>    6.8445    0.0000 </r>
       <r>    6.8490    0.0000 </r>
       <r>    6.9005    0.0000 </r>
       <r>    6.9781    0.0000 </r>
       <r>    6.9949    0.0000 </r>
       <r>    7.1427    0.0000 </r>
       <r>    7.2423    0.0000 </r>
       <r>    7.3376    0.0000 </r>
       <r>    7.3588    0.0000 </r>
       <r>    7.4237    0.0000 </r>
       <r>    7.5691    0.0000 </r>
       <r>    7.5738    0.0000 </r>
       <r>    7.6355    0.0000 </r>
       <r>    7.6440    0.0000 </r>
       <r>    7.7431    0.0000 </r>
       <r>    7.8418    0.0000 </r>
       <r>    7.9381    0.0000 </r>
       <r>    7.9913    0.0000 </r>
       <r>    8.0446    0.0000 </r>
       <r>    8.0604    0.0000 </r>
       <r>    8.1474    0.0000 </r>
       <r>    8.1618    0.0000 </r>
       <r>    8.2275    0.0000 </r>
      </set>
      <set comment="kpoint 6">
       <r>   -7.3901    1.0000 </r>
       <r>   -7.3238    1.0000 </r>
       <r>   -7.0116    1.0000 </r>
       <r>   -6.8595    1.0000 </r>
       <r>   -6.4109    1.0000 </r>
       <r>   -6.3700    1.0000 </r>
       <r>   -6.2032    1.0000 </r>
       <r>   -6.1361    1.0000 </r>
       <r>   -5.5493    1.0000 </r>
       <r>   -5.5461    1.0000 </r>
       <r>   -5.2412    1.0000 </r>
       <r>   -5.0751    1.0000 </r>
       <r>   -4.5132    1.0000 </r>
       <r>   -4.5102    1.0000 </r>
       <r>   -4.0391    1.0000 </r>
       <r>   -3.9899    1.0000 </r>
       <r>   -3.6661    1.0000 </r>
       <r>   -3.5721    1.0000 </r>
       <r>   -3.2613    1.0000 </r>
       <r>   -2.8729    1.0000 </r>
       <r>   -2.7103    1.0000 </r>
       <r>   -2.6545    1.0000 </r>
       <r>   -2.5576    1.0000 </r>
       <r>   -2.5219    1.0000 </r>
       <r>   -2.2690    1.0000 </r>
       <r>   -2.2220    1.0000 </r>
       <r>   -1.9794    1.0000 </r>
       <r>   -1.8748    1.0000 </r>
       <r>   -1.8551    1.0000 </r>
       <r>   -1.8539    1.0000 </r>
       <r>   -1.6434    1.0000 </r>
       <r>   -1.5765    1.0000 </r>
       <r>   -1.4051    1.0000 </r>
       <r>   -1.2952    1.0000 </r>
       <r>   -1.1285    1.0000 </r>
       <r>   -1.1241    1.0000 </r>
       <r>   -0.9492    1.0000 </r>
       <r>   -0.7148    1.0000 </r>
       <r>   -0.6439    1.0000 </r>
       <r>   -0.5880    1.0000 </r>
       <r>   -0.4388    1.0000 </r>
       <r>   -0.4121    1.0000 </r>
       <r>   -0.1665    1.0000 </r>
       <r>   -0.1521    1.0000 </r>
       <r>    0.0094    1.0000 </r>
       <r>    0.0294    1.0000 </r>
       <r>    0.1587    1.0000 </r>
       <r>    0.2444    1.0000 </r>
       <r>    0.3935    1.0000 </r>
       <r>    0.4940    1.0000 </r>
       <r>    0.5753    1.0000 </r>
       <r>    0.7243    1.0000 </r>
       <r>    0.7427    1.0000 </r>
       <r>    0.9274    1.0000 </r>
       <r>    0.9840    1.0000 </r>
       <r>    0.9907    1.0000 </r>
       <r>    1.1614    1.0000 </r>
       <r>    1.3906    1.0000 </r>
       <r>    1.4259    1.0000 </r>
       <r>    1.4670    1.0000 </r>
       <r>    1.5602    1.0000 </r>
       <r>    1.6748    1.0000 </r>
       <r>    1.7495    1.0000 </r>
       <r>    1.8120    1.0000 </r>
       <r>    1.9694    1.0000 </r>
       <r>    2.0695    1.0000 </r>
       <r>    2.1448    1.0000 </r>
       <r>    2.2060    1.0000 </r>
       <r>    2.2988    1.0000 </r>
       <r>    2.3591    1.0000 </r>
       <r>    2.4206    1.0000 </r>
       <r>    2.6391    1.0000 </r>
       <r>    2.6762    1.0000 </r>
       <r>    2.7885    1.0000 </r>
       <r>    2.8707    1.0000 </r>
       <r>    3.0645    1.0000 </r>
       <r>    3.0714    1.0000 </r>
       <r>    3.1735    1.0000 </r>
       <r>    3.2830    1.0000 </r>
       <r>    3.3264    1.0000 </r>
       <r>    3.5418    1.0000 </r>
       <r>    3.6294    1.0000 </r>
       <r>    3.6942    1.0000 </r>
       <r>    3.7144    1.0000 </r>
       <r>    3.8742    1.0000 </r>
       <r>    3.8964    1.0000 </r>
       <r>    4.0800    1.0000 </r>
       <r>    4.1344    1.0000 </r>
       <r>    4.3279    1.0000 </r>
       <r>    4.3462    1.0000 </r>
       <r>    4.4392    1.0000 </r>
       <r>    4.5449    1.0000 </r>
       <r>    4.5598    1.0000 </r>
       <r>    4.6312    1.0000 </r>
       <r>    4.7758    1.0000 </r>
       <r>    4.7791    1.0000 </r>
       <r>    4.8518    1.0000 </r>
       <r>    4.9076    1.0000 </r>
       <r>    5.0765    1.0000 </r>
       <r>    5.1410    1.0000 </r>
       <r>    5.2158    1.0000 </r>
       <r>    5.3233    1.0000 </r>
       <r>    5.3469    1.0000 </r>
       <r>    5.4296    1.0000 </r>
       <r>    5.5306    1.0000 </r>
       <r>    5.5841    1.0000 </r>
       <r>    5.7040    1.0000 </r>
       <r>    5.7398    1.0000 </r>
       <r>    5.8759    1.0000 </r>
       <r>    5.9346    1.0000 </r>
       <r>    6.0262    1.0000 </r>
       <r>    6.0846    1.0000 </r>
       <r>    6.2234    1.0000 </r>
       <r>    6.2800    1.0000 </r>
       <r>    6.3212    1.0000 </r>
       <r>    6.3782    1.0000 </r>
       <r>    6.4543    1.0000 </r>
       <r>    6.5009    1.0000 </r>
       <r>    6.5982    1.0000 </r>
       <r>    6.6666    0.5427 </r>
       <r>    6.7489    0.0000 </r>
       <r>    6.8252    0.0000 </r>
       <r>    6.9226    0.0000 </r>
       <r>    6.9418    0.0000 </r>
       <r>    7.0534    0.0000 </r>
       <r>    7.0907    0.0000 </r>
       <r>    7.2021    0.0000 </r>
       <r>    7.2218    0.0000 </r>
       <r>    7.2991    0.0000 </r>
       <r>    7.3986    0.0000 </r>
       <r>    7.4131    0.0000 </r>
       <r>    7.4970    0.0000 </r>
       <r>    7.5345    0.0000 </r>
       <r>    7.5457    0.0000 </r>
       <r>    7.6829    0.0000 </r>
[...]
       <r>     8.5072     1.0247   288.0000 </r>
       <r>     8.5656     0.0000   288.0000 </r>
       <r>     8.6241     0.0000   288.0000 </r>
       <r>     8.6825     0.0000   288.0000 </r>
       <r>     8.7409     0.0000   288.0000 </r>
       <r>     8.7994     0.0000   288.0000 </r>
       <r>     8.8578     0.0000   288.0000 </r>
       <r>     8.9162     0.0000   288.0000 </r>
       <r>     8.9747     0.0000   288.0000 </r>
       <r>     9.0331     0.0000   288.0000 </r>
       <r>     9.0915     0.0000   288.0000 </r>
       <r>     9.1499     0.0000   288.0000 </r>
       <r>     9.2084     0.0000   288.0000 </r>
       <r>     9.2668     0.0000   288.0000 </r>
      </set>
      <set comment="spin 2">
       <r>    -8.2625     0.0000     0.0000 </r>
       <r>    -8.2040     0.0000     0.0000 </r>
       <r>    -8.1456     0.0000     0.0000 </r>
       <r>    -8.0872     0.0000     0.0000 </r>
       <r>    -8.0287     0.0000     0.0000 </r>
       <r>    -7.9703     0.0000     0.0000 </r>
       <r>    -7.9119     0.0000     0.0000 </r>
       <r>    -7.8535     0.0000     0.0000 </r>
       <r>    -7.7950     0.0000     0.0000 </r>
       <r>    -7.7366     0.0000     0.0000 </r>
       <r>    -7.6782     0.0000     0.0000 </r>
       <r>    -7.6197     0.0000     0.0000 </r>
       <r>    -7.5613     0.0000     0.0000 </r>
       <r>    -7.5029     0.0000     0.0000 </r>
       <r>    -7.4444     1.4867     0.0869 </r>
       <r>    -7.3860    12.1436     0.7964 </r>
       <r>    -7.3276    17.1248     1.7971 </r>
       <r>    -7.2691    27.4515     3.4011 </r>
       <r>    -7.2107    10.2502     4.0000 </r>
       <r>    -7.1523     0.0147     4.0009 </r>
       <r>    -7.0939     1.5602     4.0920 </r>
       <r>    -7.0354     9.1129     4.6245 </r>
       <r>    -6.9770     9.8352     5.1992 </r>
       <r>    -6.9186     4.4794     5.4610 </r>
       <r>    -6.8601    14.5265     6.3098 </r>
       <r>    -6.8017     8.3880     6.8000 </r>
       <r>    -6.7433     6.5648     7.1836 </r>
       <r>    -6.6848     3.1797     7.3694 </r>
       <r>    -6.6264     6.2694     7.7357 </r>
       <r>    -6.5680     9.1700     8.2716 </r>
       <r>    -6.5095     2.2782     8.4047 </r>
       <r>    -6.4511     5.5881     8.7312 </r>
       <r>    -6.3927    13.2357     9.5046 </r>
       <r>    -6.3343    27.3062    11.1002 </r>
       <r>    -6.2758    15.1121    11.9833 </r>
       <r>    -6.2174     9.1036    12.5152 </r>
       <r>    -6.1590    25.0957    13.9816 </r>
       <r>    -6.1005    25.5001    15.4716 </r>
       <r>    -6.0421     7.0502    15.8835 </r>
       <r>    -5.9837     1.9936    16.0000 </r>
       <r>    -5.9252     0.0000    16.0000 </r>
       <r>    -5.8668     0.0000    16.0000 </r>
       <r>    -5.8084     0.0000    16.0000 </r>
       <r>    -5.7499     0.0188    16.0011 </r>
       <r>    -5.6915     2.9626    16.1742 </r>
       <r>    -5.6331    10.5824    16.7926 </r>
       <r>    -5.5746    20.4008    17.9846 </r>
       <r>    -5.5162    16.2448    18.9338 </r>
       <r>    -5.4578     4.2314    19.1812 </r>
       <r>    -5.3994     8.1098    19.6550 </r>
       <r>    -5.3409     3.1280    19.8378 </r>
       <r>    -5.2825     2.0924    19.9600 </r>
       <r>    -5.2241    14.5187    20.8084 </r>
       <r>    -5.1656    26.3536    22.3483 </r>
       <r>    -5.1072    15.7330    23.2676 </r>
       <r>    -5.0488     7.0710    23.6807 </r>
       <r>    -4.9903     5.4637    24.0000 </r>
       <r>    -4.9319     0.0000    24.0000 </r>
       <r>    -4.8735     0.0000    24.0000 </r>
       <r>    -4.8150     0.0000    24.0000 </r>
       <r>    -4.7566     0.0000    24.0000 </r>
       <r>    -4.6982     0.0000    24.0000 </r>
       <r>    -4.6398     0.0000    24.0000 </r>
       <r>    -4.5813     0.0170    24.0010 </r>
       <r>    -4.5229    10.9837    24.6428 </r>
       <r>    -4.4645    22.4546    25.9550 </r>
       <r>    -4.4060    19.0196    27.0663 </r>
       <r>    -4.3476     7.5475    27.5073 </r>
       <r>    -4.2892    11.8046    28.1971 </r>
       <r>    -4.2307    19.1018    29.3133 </r>
       <r>    -4.1723     4.9062    29.6000 </r>
       <r>    -4.1139     0.2140    29.6125 </r>
       <r>    -4.0554     9.2880    30.1552 </r>
       <r>    -3.9970    18.0171    31.2080 </r>
       <r>    -3.9386     8.9903    31.7333 </r>
       <r>    -3.8802     5.6241    32.0620 </r>
       <r>    -3.8217     6.8673    32.4632 </r>
       <r>    -3.7633     3.6272    32.6752 </r>
       <r>    -3.7049     3.1045    32.8566 </r>
       <r>    -3.6464     7.8495    33.3152 </r>
       <r>    -3.5880     9.9340    33.8957 </r>
       <r>    -3.5296     9.9989    34.4799 </r>
       <r>    -3.4711     7.1514    34.8978 </r>
       <r>    -3.4127    10.0913    35.4874 </r>
       <r>    -3.3543    10.2504    36.0865 </r>
       <r>    -3.2958     3.0724    36.2660 </r>
       <r>    -3.2374     9.8694    36.8427 </r>
       <r>    -3.1790     6.2001    37.2050 </r>
       <r>    -3.1206     5.3979    37.5204 </r>
       <r>    -3.0621     9.1744    38.0564 </r>
       <r>    -3.0037    13.1991    38.8277 </r>
       <r>    -2.9453    13.0222    39.5886 </r>
       <r>    -2.8868    16.9416    40.5785 </r>
       <r>    -2.8284    11.7610    41.2657 </r>
       <r>    -2.7700    10.4266    41.8750 </r>
       <r>    -2.7115    14.2010    42.7047 </r>
       <r>    -2.6531    21.6412    43.9693 </r>
       <r>    -2.5947    12.5502    44.7026 </r>
       <r>    -2.5362    20.3297    45.8906 </r>
       <r>    -2.4778    17.1404    46.8922 </r>
       <r>    -2.4194    16.1189    47.8341 </r>
       <r>    -2.3609    15.4601    48.7375 </r>
       <r>    -2.3025    12.5589    49.4713 </r>
       <r>    -2.2441    12.0561    50.1758 </r>
       <r>    -2.1857    13.4511    50.9619 </r>
       <r>    -2.1272    22.5478    52.2795 </r>
       <r>    -2.0688    17.5579    53.3055 </r>
       <r>    -2.0104     3.9314    53.5353 </r>
       <r>    -1.9519    23.2063    54.8913 </r>
       <r>    -1.8935    15.5539    55.8002 </r>
       <r>    -1.8351    22.4852    57.1140 </r>
       <r>    -1.7766    16.1052    58.0552 </r>
       <r>    -1.7182    25.4110    59.5401 </r>
       <r>    -1.6598     8.7223    60.0498 </r>
       <r>    -1.6013    15.6817    60.9661 </r>
       <r>    -1.5429    20.2435    62.1489 </r>
       <r>    -1.4845    17.3863    63.1648 </r>
       <r>    -1.4261    16.7026    64.1408 </r>
       <r>    -1.3676    11.3497    64.8040 </r>
       <r>    -1.3092    16.4213    65.7635 </r>
       <r>    -1.2508    20.2653    66.9476 </r>
       <r>    -1.1923    12.3890    67.6716 </r>
       <r>    -1.1339    18.0893    68.7286 </r>
       <r>    -1.0755    20.5853    69.9314 </r>
       <r>    -1.0170    19.2733    71.0576 </r>
       <r>    -0.9586    22.9640    72.3994 </r>
       <r>    -0.9002    13.0522    73.1622 </r>
       <r>    -0.8417     8.3709    73.6513 </r>
       <r>    -0.7833    22.0538    74.9400 </r>
       <r>    -0.7249    11.4443    75.6087 </r>
       <r>    -0.6665    23.2236    76.9657 </r>
       <r>    -0.6080    15.3990    77.8655 </r>
       <r>    -0.5496    26.9392    79.4396 </r>
       <r>    -0.4912    13.0721    80.2036 </r>
       <r>    -0.4327    14.6669    81.0606 </r>
       <r>    -0.3743    24.5445    82.4948 </r>
       <r>    -0.3159    20.8869    83.7153 </r>
       <r>    -0.2574    16.6556    84.6887 </r>
       <r>    -0.1990    18.9226    85.7944 </r>
       <r>    -0.1406    13.8385    86.6030 </r>
       <r>    -0.0821    21.6568    87.8684 </r>
       <r>    -0.0237    13.1131    88.6346 </r>
       <r>     0.0347    18.5867    89.7208 </r>
       <r>     0.0932    26.1095    91.2465 </r>
       <r>     0.1516    10.0770    91.8353 </r>
       <r>     0.2100    16.4795    92.7982 </r>
       <r>     0.2684    19.3329    93.9278 </r>
       <r>     0.3269    16.0457    94.8654 </r>
       <r>     0.3853    16.0014    95.8006 </r>
       <r>     0.4437    12.9707    96.5585 </r>
       <r>     0.5022    19.7195    97.7108 </r>
       <r>     0.5606    26.5105    99.2599 </r>
       <r>     0.6190    17.4104   100.2772 </r>
       <r>     0.6775    22.2876   101.5795 </r>
       <r>     0.7359    13.3370   102.3588 </r>
       <r>     0.7943    26.5559   103.9105 </r>
       <r>     0.8528    18.5720   104.9958 </r>
       <r>     0.9112    17.1497   105.9979 </r>
       <r>     0.9696    17.9077   107.0444 </r>
       <r>     1.0280    26.0178   108.5647 </r>
       <r>     1.0865    21.1936   109.8032 </r>
       <r>     1.1449    22.1840   111.0994 </r>
       <r>     1.2033    15.9023   112.0286 </r>
       <r>     1.2618    16.0755   112.9680 </r>
       <r>     1.3202    27.6453   114.5834 </r>
       <r>     1.3786    20.3869   115.7748 </r>
       <r>     1.4371    15.9366   116.7060 </r>
       <r>     1.4955    32.8583   118.6260 </r>
       <r>     1.5539    13.9641   119.4419 </r>
       <r>     1.6124    28.8247   121.1262 </r>
       <r>     1.6708    15.1957   122.0141 </r>
       <r>     1.7292    26.9711   123.5901 </r>
       <r>     1.7876    18.1616   124.6513 </r>
       <r>     1.8461    17.7803   125.6902 </r>
       <r>     1.9045    24.7365   127.1357 </r>
       <r>     1.9629    24.3648   128.5594 </r>
       <r>     2.0214    19.5252   129.7003 </r>
       <r>     2.0798    12.2515   130.4162 </r>
       <r>     2.1382    27.3600   132.0149 </r>
       <r>     2.1967    21.5238   133.2726 </r>
       <r>     2.2551    23.3472   134.6368 </r>
       <r>     2.3135    29.6398   136.3687 </r>
       <r>     2.3720    19.5156   137.5092 </r>
       <r>     2.4304    15.8153   138.4333 </r>
       <r>     2.4888    22.6203   139.7550 </r>
       <r>     2.5472    12.2681   140.4719 </r>
       <r>     2.6057    12.1937   141.1845 </r>
       <r>     2.6641    22.7825   142.5157 </r>
       <r>     2.7225    25.8129   144.0240 </r>
       <r>     2.7810    27.9089   145.6547 </r>
       <r>     2.8394     8.3935   146.1454 </r>
       <r>     2.8978    29.7582   147.8842 </r>
       <r>     2.9563    20.6157   149.0888 </r>
       <r>     3.0147    11.9092   149.7848 </r>
       <r>     3.0731    21.8751   151.0630 </r>
       <r>     3.1316    35.3997   153.1315 </r>
       <r>     3.1900    13.6899   153.9315 </r>
       <r>     3.2484    17.2429   154.9390 </r>
       <r>     3.3069    20.7398   156.1509 </r>
       <r>     3.3653    22.4279   157.4614 </r>
       <r>     3.4237    23.6528   158.8436 </r>
       <r>     3.4821    21.1698   160.0805 </r>
       <r>     3.5406    17.5726   161.1075 </r>
       <r>     3.5990    23.6736   162.4908 </r>
       <r>     3.6574    25.5269   163.9824 </r>
       <r>     3.7159    25.3336   165.4626 </r>
       <r>     3.7743    26.9114   167.0351 </r>
       <r>     3.8327    19.7341   168.1883 </r>
       <r>     3.8912    24.8678   169.6414 </r>
       <r>     3.9496    15.6691   170.5571 </r>
       <r>     4.0080    14.9438   171.4302 </r>
       <r>     4.0665    24.7777   172.8780 </r>
       <r>     4.1249    32.2734   174.7639 </r>
       <r>     4.1833    21.5045   176.0204 </r>
       <r>     4.2417    20.8544   177.2390 </r>
       <r>     4.3002    21.1685   178.4759 </r>
       <r>     4.3586    31.9839   180.3448 </r>
       <r>     4.4170    18.1870   181.4076 </r>
       <r>     4.4755    30.7432   183.2040 </r>
       <r>     4.5339    20.2195   184.3854 </r>
       <r>     4.5923    20.6620   185.5928 </r>
       <r>     4.6508    30.3270   187.3648 </r>
       <r>     4.7092    19.9622   188.5312 </r>
       <r>     4.7676    32.8583   190.4512 </r>
       <r>     4.8261    33.2647   192.3949 </r>
       <r>     4.8845    11.8331   193.0865 </r>
       <r>     4.9429    21.3809   194.3358 </r>
       <r>     5.0013    18.6931   195.4281 </r>
       <r>     5.0598    18.6499   196.5179 </r>
       <r>     5.1182    27.3949   198.1186 </r>
       <r>     5.1766    31.8143   199.9778 </r>
       <r>     5.2351    31.7860   201.8351 </r>
       <r>     5.2935    14.8434   202.7025 </r>
       <r>     5.3519    27.4643   204.3072 </r>
       <r>     5.4104    29.0764   206.0063 </r>
       <r>     5.4688    29.5912   207.7354 </r>
       <r>     5.5272    14.1558   208.5627 </r>
       <r>     5.5857    22.0478   209.8510 </r>
       <r>     5.6441    35.1882   211.9071 </r>
       <r>     5.7025    21.5029   213.1636 </r>
       <r>     5.7609    31.6790   215.0146 </r>
       <r>     5.8194    18.6994   216.1073 </r>
       <r>     5.8778    24.7777   217.5551 </r>
       <r>     5.9362    25.8542   219.0658 </r>
       <r>     5.9947    25.5338   220.5578 </r>
       <r>     6.0531    23.9130   221.9552 </r>
       <r>     6.1115    33.1130   223.8900 </r>
       <r>     6.1700    30.8946   225.6952 </r>
       <r>     6.2284    22.5556   227.0132 </r>
       <r>     6.2868    33.9157   228.9950 </r>
       <r>     6.3453    35.0960   231.0457 </r>
       <r>     6.4037    30.2036   232.8107 </r>
       <r>     6.4621    24.9909   234.2710 </r>
       <r>     6.5206    25.4458   235.7578 </r>
       <r>     6.5790    29.1043   237.4585 </r>
       <r>     6.6374    20.3528   238.6478 </r>
       <r>     6.6958    40.7505   241.0289 </r>
       <r>     6.7543    18.6546   242.1191 </r>
       <r>     6.8127    24.9700   243.5781 </r>
       <r>     6.8711    30.6844   245.3711 </r>
       <r>     6.9296    32.0062   247.2415 </r>
       <r>     6.9880    27.8048   248.8662 </r>
       <r>     7.0464    36.7997   251.0165 </r>
       <r>     7.1049    26.7130   252.5773 </r>
       <r>     7.1633    28.9031   254.2662 </r>
       <r>     7.2217    27.3937   255.8669 </r>
       <r>     7.2802    37.7438   258.0723 </r>
       <r>     7.3386    30.8578   259.8753 </r>
       <r>     7.3970    24.9232   261.3318 </r>
       <r>     7.4554    30.3901   263.1075 </r>
       <r>     7.5139    22.4405   264.4188 </r>
       <r>     7.5723    27.5177   266.0266 </r>
       <r>     7.6307    31.7004   267.8789 </r>
       <r>     7.6892    34.3097   269.8837 </r>
       <r>     7.7476    25.9012   271.3972 </r>
       <r>     7.8060    38.3236   273.6365 </r>
       <r>     7.8645    24.2237   275.0520 </r>
       <r>     7.9229    34.7463   277.0823 </r>
       <r>     7.9813    24.5448   278.5166 </r>
       <r>     8.0398    32.4962   280.4154 </r>
       <r>     8.0982    35.6496   282.4985 </r>
       <r>     8.1566    26.3370   284.0374 </r>
       <r>     8.2150    23.9580   285.4373 </r>
       <r>     8.2735    18.1689   286.4990 </r>
       <r>     8.3319    10.4772   287.1112 </r>
       <r>     8.3903     6.2520   287.4765 </r>
       <r>     8.4488     6.1001   287.8330 </r>
       <r>     8.5072     2.8585   288.0000 </r>
       <r>     8.5656     0.0000   288.0000 </r>
       <r>     8.6241     0.0000   288.0000 </r>
       <r>     8.6825     0.0000   288.0000 </r>
       <r>     8.7409     0.0000   288.0000 </r>
       <r>     8.7994     0.0000   288.0000 </r>
       <r>     8.8578     0.0000   288.0000 </r>
       <r>     8.9162     0.0000   288.0000 </r>
       <r>     8.9747     0.0000   288.0000 </r>
       <r>     9.0331     0.0000   288.0000 </r>
       <r>     9.0915     0.0000   288.0000 </r>
       <r>     9.1499     0.0000   288.0000 </r>
       <r>     9.2084     0.0000   288.0000 </r>
       <r>     9.2668     0.0000   288.0000 </r>
      </set>
     </set>
    </array>
   </total>
  </dos>
 </calculation>
 <structure name="finalpos" >
  <crystal>
   <varray name="basis" >
    <v>      12.97840023       0.00000000       0.00000000 </v>
    <v>       6.48920012      14.51029301       0.00000000 </v>
    <v>       0.00000000       0.00000000       6.66359377 </v>
   </varray>
   <i name="volume">   1254.89057804 </i>
   <varray name="rec_basis" >
    <v>       0.07705110      -0.03445830       0.00000000 </v>
    <v>       0.00000000       0.06891660       0.00000000 </v>
    <v>       0.00000000       0.00000000       0.15006917 </v>
   </varray>
  </crystal>
  <varray name="positions" >
   <v>       0.98717922       0.02564151       0.00000000 </v>
   <v>       0.83717918       0.32564157       0.21775478 </v>
   <v>       0.68717915       0.62564164       0.43550959 </v>
   <v>       0.48717925       0.02564151       0.00000000 </v>
   <v>       0.33717915       0.32564157       0.21775478 </v>
   <v>       0.18717913       0.62564164       0.43550959 </v>
   <v>       0.28717920       0.67564148       0.10887715 </v>
   <v>       0.13717918       0.97564149       0.32663199 </v>
   <v>       0.98717910       0.27564156       0.54438668 </v>
   <v>       0.78717935       0.67564148       0.10887715 </v>
   <v>       0.63717931       0.97564149       0.32663199 </v>
   <v>       0.48717925       0.27564156       0.54438668 </v>
   <v>       0.98717928       0.52564150       0.00000003 </v>
   <v>       0.83717918       0.82564151       0.21775483 </v>
   <v>       0.68717909       0.12564170       0.43550959 </v>
   <v>       0.48717925       0.52564150       0.00000003 </v>
   <v>       0.33717924       0.82564151       0.21775483 </v>
   <v>       0.18717912       0.12564170       0.43550959 </v>
   <v>       0.28717923       0.17564151       0.10887717 </v>
   <v>       0.13717917       0.47564155       0.32663199 </v>
   <v>       0.98717916       0.77564162       0.54438674 </v>
   <v>       0.78717929       0.17564151       0.10887717 </v>
   <v>       0.63717925       0.47564155       0.32663199 </v>
   <v>       0.48717916       0.77564162       0.54438674 </v>
   <v>       0.98290563       0.99145281       0.54438674 </v>
   <v>       0.78290558       0.89145279       0.72663218 </v>
   <v>       0.58290541       0.79145271       0.90887743 </v>
   <v>       0.98290563       0.32478613       0.54438674 </v>
   <v>       0.78290558       0.22478609       0.72663218 </v>
   <v>       0.58290541       0.12478605       0.90887743 </v>
   <v>       0.98290563       0.65811950       0.54438674 </v>
   <v>       0.78290558       0.55811942       0.72663218 </v>
   <v>       0.58290541       0.45811933       0.90887743 </v>
   <v>       0.63290566       0.19145286       0.63550919 </v>
   <v>       0.43290559       0.09145281       0.81775457 </v>
   <v>       0.23290552       0.99145275       0.99999994 </v>
   <v>       0.63290566       0.52478611       0.63550919 </v>
   <v>       0.43290559       0.42478603       0.81775457 </v>
   <v>       0.23290552       0.32478604       0.99999994 </v>
   <v>       0.63290566       0.85811943       0.63550919 </v>
   <v>       0.43290559       0.75811928       0.81775457 </v>
   <v>       0.23290552       0.65811938       0.99999994 </v>
   <v>       0.48290563       0.99145281       0.54438674 </v>
   <v>       0.28290555       0.89145279       0.72663218 </v>
   <v>       0.08290544       0.79145277       0.90887743 </v>
   <v>       0.48290563       0.32478607       0.54438674 </v>
   <v>       0.28290555       0.22478601       0.72663218 </v>
   <v>       0.08290544       0.12478600       0.90887743 </v>
   <v>       0.48290563       0.65811950       0.54438674 </v>
   <v>       0.28290555       0.55811948       0.72663218 </v>
   <v>       0.08290544       0.45811933       0.90887743 </v>
   <v>       0.13290568       0.19145283       0.63550919 </v>
   <v>       0.93290555       0.09145278       0.81775457 </v>
   <v>       0.73290551       0.99145275       0.99999994 </v>
   <v>       0.13290568       0.52478611       0.63550919 </v>
   <v>       0.93290555       0.42478609       0.81775457 </v>
   <v>       0.73290551       0.32478604       0.99999994 </v>
   <v>       0.13290568       0.85811943       0.63550919 </v>
   <v>       0.93290555       0.75811934       0.81775457 </v>
   <v>       0.73290551       0.65811938       0.99999994 </v>
  </varray>
 </structure>
</modeling>
