Si and Ge interface calculation         
           1
    12.978400    0.000000    0.000000
   -12.978400   14.510293    0.000000
     0.000000    0.000000    9.190412
   Sn   Ge
    24    24
Direct configuration=     1
   0.97956431  0.03065353  0.00000001
   0.77956426  0.33065358  0.15788515
   0.57956415  0.63065362  0.31577030
   0.47956425  0.03065353  0.00000001
   0.27956420  0.33065358  0.15788515
   0.07956413  0.63065362  0.31577030
   0.25456432  0.68065351  0.07894242
   0.05456416  0.98065347  0.23682758
   0.85456413  0.28065360  0.39471269
   0.75456440  0.68065351  0.07894242
   0.55456424  0.98065347  0.23682758
   0.35456416  0.28065360  0.39471269
   0.22956428  0.53065348  0.00000000
   0.02956419  0.83065349  0.15788515
   0.82956403  0.13065362  0.31577030
   0.72956419  0.53065348  0.00000000
   0.52956414  0.83065349  0.15788515
   0.32956403  0.13065362  0.31577030
   0.00456433  0.18065351  0.07894243
   0.80456418  0.48065358  0.23682758
   0.60456425  0.78065366  0.39471269
   0.50456429  0.18065351  0.07894243
   0.30456418  0.48065358  0.23682758
   0.10456417  0.78065366  0.39471269
   0.33734834  0.40875208  0.55686057
   0.22068167  0.99208534  0.61305881
   0.10401487  0.57541859  0.66925722
   0.98734802  0.15875184  0.72545558
   0.87068135  0.74208522  0.78165376
   0.75401449  0.32541823  0.83785212
   0.83734834  0.65875208  0.55686057
   0.72068155  0.24208522  0.61305881
   0.60401481  0.82541859  0.66925722
   0.48734802  0.40875184  0.72545540
   0.37068129  0.99208510  0.78165370
   0.25401461  0.57541823  0.83785200
   0.83734834  0.90875208  0.55686063
   0.72068155  0.49208534  0.61305892
   0.60401475  0.07541859  0.66925722
   0.48734805  0.65875179  0.72545552
   0.37068135  0.24208510  0.78165376
   0.25401449  0.82541811  0.83785212
   0.33734822  0.15875208  0.55686063
   0.22068155  0.74208528  0.61305892
   0.10401487  0.32541847  0.66925722
   0.98734802  0.90875179  0.72545552
   0.87068129  0.49208510  0.78165382
   0.75401449  0.07541811  0.83785212
