  96  96   0   0
  0.2276159E+02  0.1265123E-08  0.1265123E-08  0.1393391E-08  0.5000000E-15
  1.000000000000000E-004
  CAR 
 Si and Ge interface calculation         
      6.57036547    -11.08524239  301      3.60074227      1.00000000
    -11.085  0.0000E+00  0.0000E+00  0.0000E+00  0.0000E+00
    -11.026  0.0000E+00  0.0000E+00  0.0000E+00  0.0000E+00
    -10.968  0.0000E+00  0.0000E+00  0.0000E+00  0.0000E+00
    -10.909  0.0000E+00  0.0000E+00  0.0000E+00  0.0000E+00
    -10.850  0.0000E+00  0.0000E+00  0.0000E+00  0.0000E+00
    -10.791  0.0000E+00  0.0000E+00  0.0000E+00  0.0000E+00
    -10.732  0.0000E+00  0.0000E+00  0.0000E+00  0.0000E+00
    -10.673  0.0000E+00  0.0000E+00  0.0000E+00  0.0000E+00
    -10.614  0.0000E+00  0.0000E+00  0.0000E+00  0.0000E+00
    -10.556  0.0000E+00  0.0000E+00  0.0000E+00  0.0000E+00
    -10.497  0.0000E+00  0.0000E+00  0.0000E+00  0.0000E+00
    -10.438  0.0000E+00  0.0000E+00  0.0000E+00  0.0000E+00
    -10.379  0.0000E+00  0.0000E+00  0.0000E+00  0.0000E+00
    -10.320  0.1116E-06  0.1227E-10  0.6571E-08  0.7221E-12
    -10.261  0.9666E+01  0.5021E+01  0.5689E+00  0.2955E+00
    -10.202  0.2287E+02  0.2151E+02  0.1915E+01  0.1561E+01
    -10.144  0.1433E+01  0.7452E+01  0.2000E+01  0.2000E+01
    -10.085  0.5267E-01  0.4513E-03  0.2003E+01  0.2000E+01
    -10.026  0.2260E+02  0.2257E+02  0.3333E+01  0.3328E+01
     -9.967  0.5641E+01  0.9689E+00  0.3665E+01  0.3385E+01
     -9.908  0.1874E+02  0.1239E+02  0.4768E+01  0.4114E+01
     -9.849  0.9606E+01  0.2071E+02  0.5333E+01  0.5333E+01
     -9.790  0.2145E+02  0.1558E+02  0.6596E+01  0.6250E+01
     -9.732  0.1949E+02  0.1145E+02  0.7742E+01  0.6924E+01
     -9.673  0.4373E+01  0.1829E+02  0.8000E+01  0.8000E+01
     -9.614  0.0000E+00  0.0000E+00  0.8000E+01  0.8000E+01
     -9.555  0.0000E+00  0.0000E+00  0.8000E+01  0.8000E+01
     -9.496  0.2430E+01  0.1779E+00  0.8143E+01  0.8010E+01
     -9.437  0.4280E+02  0.4031E+02  0.1066E+02  0.1038E+02
     -9.379  0.7743E-01  0.4819E+01  0.1067E+02  0.1067E+02
     -9.320  0.0000E+00  0.0000E+00  0.1067E+02  0.1067E+02
     -9.261  0.0000E+00  0.0000E+00  0.1067E+02  0.1067E+02
     -9.202  0.7933E-03  0.1290E-05  0.1067E+02  0.1067E+02
     -9.143  0.2265E+02  0.2255E+02  0.1200E+02  0.1199E+02
     -9.084  0.1360E+02  0.2702E+01  0.1280E+02  0.1215E+02
     -9.025  0.1452E+02  0.2103E+02  0.1365E+02  0.1339E+02
     -8.967  0.5862E+01  0.1034E+02  0.1400E+02  0.1400E+02
     -8.908  0.0000E+00  0.0000E+00  0.1400E+02  0.1400E+02
     -8.849  0.0000E+00  0.0000E+00  0.1400E+02  0.1400E+02
     -8.790  0.0000E+00  0.0000E+00  0.1400E+02  0.1400E+02
     -8.731  0.1301E-10  0.2096E-15  0.1400E+02  0.1400E+02
     -8.672  0.3776E+01  0.1927E+01  0.1422E+02  0.1411E+02
     -8.613  0.3139E+02  0.3107E+02  0.1607E+02  0.1594E+02
     -8.555  0.1598E+02  0.1186E+02  0.1701E+02  0.1664E+02
     -8.496  0.5495E+01  0.1178E+02  0.1733E+02  0.1733E+02
     -8.437  0.8591E+01  0.7558E+01  0.1784E+02  0.1778E+02
     -8.378  0.1021E+02  0.9984E+01  0.1844E+02  0.1837E+02
     -8.319  0.2585E+02  0.1784E+02  0.1996E+02  0.1942E+02
     -8.260  0.1028E+02  0.1777E+02  0.2057E+02  0.2046E+02
     -8.201  0.1407E+02  0.1477E+02  0.2139E+02  0.2133E+02
     -8.143  0.2315E+02  0.2012E+02  0.2276E+02  0.2251E+02
     -8.084  0.3582E+02  0.3837E+02  0.2486E+02  0.2477E+02
     -8.025  0.2037E+02  0.2086E+02  0.2606E+02  0.2600E+02
     -7.966  0.6596E+01  0.7545E+01  0.2645E+02  0.2644E+02
     -7.907  0.2691E+02  0.1868E+02  0.2804E+02  0.2754E+02
     -7.848  0.2204E+02  0.2823E+02  0.2933E+02  0.2921E+02
     -7.790  0.2976E+02  0.2885E+02  0.3108E+02  0.3090E+02
     -7.731  0.2356E+02  0.2209E+02  0.3247E+02  0.3220E+02
     -7.672  0.4689E+02  0.4639E+02  0.3523E+02  0.3493E+02
     -7.613  0.2767E+02  0.2905E+02  0.3686E+02  0.3664E+02
     -7.554  0.1559E+02  0.1905E+02  0.3778E+02  0.3777E+02
     -7.495  0.1299E+02  0.1190E+02  0.3854E+02  0.3847E+02
     -7.436  0.1525E+02  0.1127E+02  0.3944E+02  0.3913E+02
     -7.378  0.3344E+02  0.3111E+02  0.4141E+02  0.4096E+02
     -7.319  0.4685E+02  0.4495E+02  0.4416E+02  0.4361E+02
     -7.260  0.1272E+02  0.1943E+02  0.4491E+02  0.4475E+02
     -7.201  0.1596E+02  0.1696E+02  0.4585E+02  0.4575E+02
     -7.142  0.2076E+02  0.1554E+02  0.4707E+02  0.4666E+02
     -7.083  0.3296E+02  0.3957E+02  0.4902E+02  0.4899E+02
     -7.024  0.2732E+02  0.2433E+02  0.5062E+02  0.5042E+02
     -6.966  0.1325E+02  0.1479E+02  0.5140E+02  0.5129E+02
     -6.907  0.2614E+02  0.1842E+02  0.5294E+02  0.5238E+02
     -6.848  0.2428E+02  0.2928E+02  0.5437E+02  0.5410E+02
     -6.789  0.3139E+02  0.3066E+02  0.5622E+02  0.5591E+02
     -6.730  0.3571E+02  0.3942E+02  0.5832E+02  0.5823E+02
     -6.671  0.1947E+02  0.2045E+02  0.5947E+02  0.5943E+02
     -6.612  0.2113E+02  0.1627E+02  0.6071E+02  0.6039E+02
     -6.554  0.2387E+02  0.2766E+02  0.6211E+02  0.6202E+02
     -6.495  0.2203E+02  0.2072E+02  0.6341E+02  0.6324E+02
     -6.436  0.4985E+02  0.4608E+02  0.6634E+02  0.6595E+02
     -6.377  0.4490E+02  0.4475E+02  0.6899E+02  0.6858E+02
     -6.318  0.3273E+02  0.3667E+02  0.7091E+02  0.7074E+02
     -6.259  0.1659E+02  0.1930E+02  0.7189E+02  0.7188E+02
     -6.201  0.3532E+02  0.3003E+02  0.7397E+02  0.7364E+02
     -6.142  0.1932E+02  0.2223E+02  0.7511E+02  0.7495E+02
     -6.083  0.4139E+02  0.3586E+02  0.7754E+02  0.7706E+02
     -6.024  0.1560E+02  0.2350E+02  0.7846E+02  0.7844E+02
     -5.965  0.1488E+02  0.1323E+02  0.7934E+02  0.7922E+02
     -5.906  0.3730E+02  0.3779E+02  0.8153E+02  0.8145E+02
     -5.847  0.1829E+02  0.1756E+02  0.8261E+02  0.8248E+02
     -5.789  0.1874E+02  0.1816E+02  0.8371E+02  0.8355E+02
     -5.730  0.3605E+02  0.3481E+02  0.8583E+02  0.8560E+02
     -5.671  0.2266E+02  0.2060E+02  0.8717E+02  0.8681E+02
     -5.612  0.1841E+02  0.2113E+02  0.8825E+02  0.8805E+02
     -5.553  0.2177E+02  0.2124E+02  0.8953E+02  0.8930E+02
     -5.494  0.2988E+02  0.2621E+02  0.9129E+02  0.9085E+02
     -5.435  0.4023E+02  0.4111E+02  0.9366E+02  0.9327E+02
     -5.377  0.2249E+02  0.2668E+02  0.9498E+02  0.9484E+02
     -5.318  0.2472E+02  0.2100E+02  0.9644E+02  0.9607E+02
     -5.259  0.1864E+02  0.2200E+02  0.9753E+02  0.9737E+02
     -5.200  0.2956E+02  0.2736E+02  0.9927E+02  0.9898E+02
     -5.141  0.2118E+02  0.2138E+02  0.1005E+03  0.1002E+03
     -5.082  0.1993E+02  0.2094E+02  0.1017E+03  0.1015E+03
     -5.023  0.3429E+02  0.3432E+02  0.1037E+03  0.1035E+03
     -4.965  0.2185E+02  0.2014E+02  0.1050E+03  0.1047E+03
     -4.906  0.2879E+02  0.2909E+02  0.1067E+03  0.1064E+03
     -4.847  0.3395E+02  0.3315E+02  0.1087E+03  0.1083E+03
     -4.788  0.2667E+02  0.2952E+02  0.1103E+03  0.1101E+03
     -4.729  0.2117E+02  0.1979E+02  0.1115E+03  0.1112E+03
     -4.670  0.2587E+02  0.2780E+02  0.1130E+03  0.1129E+03
     -4.612  0.2607E+02  0.2271E+02  0.1146E+03  0.1142E+03
     -4.553  0.3017E+02  0.3315E+02  0.1163E+03  0.1162E+03
     -4.494  0.1284E+02  0.1307E+02  0.1171E+03  0.1169E+03
     -4.435  0.1138E+02  0.1178E+02  0.1178E+03  0.1176E+03
     -4.376  0.1981E+02  0.2016E+02  0.1189E+03  0.1188E+03
     -4.317  0.8783E+01  0.1057E+02  0.1194E+03  0.1194E+03
     -4.258  0.1489E+02  0.1022E+02  0.1203E+03  0.1200E+03
     -4.200  0.3440E+02  0.3172E+02  0.1223E+03  0.1219E+03
     -4.141  0.2999E+02  0.3384E+02  0.1241E+03  0.1239E+03
     -4.082  0.1540E+02  0.1860E+02  0.1250E+03  0.1250E+03
     -4.023  0.4525E+01  0.4175E+01  0.1253E+03  0.1252E+03
     -3.964  0.1437E+02  0.1371E+02  0.1261E+03  0.1260E+03
     -3.905  0.3099E+02  0.2799E+02  0.1280E+03  0.1277E+03
     -3.846  0.3226E+02  0.3342E+02  0.1299E+03  0.1297E+03
     -3.788  0.2813E+02  0.2495E+02  0.1315E+03  0.1311E+03
     -3.729  0.2159E+02  0.2788E+02  0.1328E+03  0.1328E+03
     -3.670  0.2162E+02  0.1750E+02  0.1341E+03  0.1338E+03
     -3.611  0.2861E+02  0.2841E+02  0.1357E+03  0.1355E+03
     -3.552  0.2913E+02  0.2896E+02  0.1374E+03  0.1372E+03
     -3.493  0.1597E+02  0.1969E+02  0.1384E+03  0.1383E+03
     -3.434  0.3487E+02  0.3167E+02  0.1404E+03  0.1402E+03
     -3.376  0.3705E+02  0.4029E+02  0.1426E+03  0.1426E+03
     -3.317  0.1555E+02  0.1518E+02  0.1435E+03  0.1435E+03
     -3.258  0.9028E+01  0.7893E+01  0.1441E+03  0.1439E+03
     -3.199  0.2338E+02  0.2574E+02  0.1454E+03  0.1454E+03
     -3.140  0.2527E+02  0.2249E+02  0.1469E+03  0.1468E+03
     -3.081  0.3651E+02  0.2926E+02  0.1491E+03  0.1485E+03
     -3.023  0.3083E+02  0.4008E+02  0.1509E+03  0.1508E+03
     -2.964  0.2586E+02  0.2425E+02  0.1524E+03  0.1523E+03
     -2.905  0.3947E+02  0.3625E+02  0.1547E+03  0.1544E+03
     -2.846  0.4130E+02  0.4020E+02  0.1572E+03  0.1568E+03
     -2.787  0.2746E+02  0.3155E+02  0.1588E+03  0.1586E+03
     -2.728  0.1898E+02  0.1266E+02  0.1599E+03  0.1594E+03
     -2.669  0.2909E+02  0.3149E+02  0.1616E+03  0.1612E+03
     -2.611  0.1769E+02  0.2250E+02  0.1627E+03  0.1625E+03
     -2.552  0.2392E+02  0.2129E+02  0.1641E+03  0.1638E+03
     -2.493  0.2753E+02  0.2804E+02  0.1657E+03  0.1655E+03
     -2.434  0.2350E+02  0.2600E+02  0.1671E+03  0.1670E+03
     -2.375  0.1945E+02  0.2003E+02  0.1682E+03  0.1682E+03
     -2.316  0.2140E+02  0.1898E+02  0.1695E+03  0.1693E+03
     -2.257  0.2410E+02  0.2422E+02  0.1709E+03  0.1707E+03
     -2.199  0.2475E+02  0.2495E+02  0.1723E+03  0.1722E+03
     -2.140  0.1109E+02  0.1234E+02  0.1730E+03  0.1729E+03
     -2.081  0.2716E+02  0.2328E+02  0.1746E+03  0.1743E+03
     -2.022  0.8646E+01  0.1391E+02  0.1751E+03  0.1751E+03
     -1.963  0.4835E+01  0.4097E+01  0.1754E+03  0.1753E+03
     -1.904  0.1496E+02  0.1424E+02  0.1763E+03  0.1762E+03
     -1.845  0.8366E+01  0.9151E+01  0.1768E+03  0.1767E+03
     -1.787  0.4327E+01  0.5009E+01  0.1770E+03  0.1770E+03
     -1.728  0.1325E+02  0.1204E+02  0.1778E+03  0.1777E+03
     -1.669  0.1276E+02  0.1115E+02  0.1786E+03  0.1784E+03
     -1.610  0.1315E+02  0.1360E+02  0.1793E+03  0.1792E+03
     -1.551  0.1387E+02  0.1603E+02  0.1801E+03  0.1801E+03
     -1.492  0.1293E+02  0.1012E+02  0.1809E+03  0.1807E+03
     -1.434  0.1314E+02  0.1616E+02  0.1817E+03  0.1817E+03
     -1.375  0.1056E+02  0.8426E+01  0.1823E+03  0.1822E+03
     -1.316  0.1057E+02  0.1227E+02  0.1829E+03  0.1829E+03
     -1.257  0.3241E+01  0.4022E+01  0.1831E+03  0.1831E+03
     -1.198  0.2856E+02  0.2148E+02  0.1848E+03  0.1844E+03
     -1.139  0.1740E+02  0.1862E+02  0.1858E+03  0.1855E+03
     -1.080  0.3187E+02  0.2727E+02  0.1877E+03  0.1871E+03
     -1.022  0.4400E+02  0.4907E+02  0.1903E+03  0.1900E+03
     -0.963  0.2945E+02  0.3265E+02  0.1920E+03  0.1919E+03
     -0.904  0.4378E+02  0.4214E+02  0.1946E+03  0.1944E+03
     -0.845  0.2540E+02  0.2684E+02  0.1961E+03  0.1959E+03
     -0.786  0.2064E+02  0.1932E+02  0.1973E+03  0.1971E+03
     -0.727  0.5827E+02  0.5309E+02  0.2007E+03  0.2002E+03
     -0.668  0.4990E+02  0.5549E+02  0.2037E+03  0.2035E+03
     -0.610  0.5186E+02  0.4369E+02  0.2067E+03  0.2060E+03
     -0.551  0.4696E+02  0.5237E+02  0.2095E+03  0.2091E+03
     -0.492  0.2873E+02  0.2570E+02  0.2112E+03  0.2106E+03
     -0.433  0.4470E+02  0.3725E+02  0.2138E+03  0.2128E+03
     -0.374  0.5823E+02  0.6372E+02  0.2172E+03  0.2166E+03
     -0.315  0.4454E+02  0.5247E+02  0.2199E+03  0.2197E+03
     -0.256  0.3457E+02  0.3110E+02  0.2219E+03  0.2215E+03
     -0.198  0.4850E+02  0.4272E+02  0.2247E+03  0.2240E+03
     -0.139  0.3930E+02  0.4287E+02  0.2271E+03  0.2265E+03
     -0.080  0.5403E+02  0.5019E+02  0.2302E+03  0.2295E+03
     -0.021  0.5018E+02  0.5739E+02  0.2332E+03  0.2329E+03
      0.038  0.4006E+02  0.3919E+02  0.2355E+03  0.2352E+03
      0.097  0.3169E+02  0.3446E+02  0.2374E+03  0.2372E+03
      0.155  0.5316E+02  0.4792E+02  0.2405E+03  0.2400E+03
      0.214  0.5073E+02  0.4863E+02  0.2435E+03  0.2429E+03
      0.273  0.4587E+02  0.5107E+02  0.2462E+03  0.2459E+03
      0.332  0.5109E+02  0.5335E+02  0.2492E+03  0.2490E+03
      0.391  0.3672E+02  0.3076E+02  0.2514E+03  0.2508E+03
      0.450  0.4588E+02  0.4940E+02  0.2541E+03  0.2538E+03
      0.509  0.5317E+02  0.4721E+02  0.2572E+03  0.2565E+03
      0.567  0.4503E+02  0.4880E+02  0.2599E+03  0.2594E+03
      0.626  0.6494E+02  0.6598E+02  0.2637E+03  0.2633E+03
      0.685  0.4215E+02  0.4345E+02  0.2662E+03  0.2658E+03
      0.744  0.5518E+02  0.5336E+02  0.2694E+03  0.2690E+03
      0.803  0.4914E+02  0.5280E+02  0.2723E+03  0.2721E+03
      0.862  0.5372E+02  0.4615E+02  0.2755E+03  0.2748E+03
      0.921  0.4941E+02  0.5331E+02  0.2784E+03  0.2779E+03
      0.979  0.4040E+02  0.4152E+02  0.2808E+03  0.2804E+03
      1.038  0.5652E+02  0.5216E+02  0.2841E+03  0.2835E+03
      1.097  0.6957E+02  0.7308E+02  0.2882E+03  0.2878E+03
      1.156  0.5995E+02  0.5646E+02  0.2917E+03  0.2911E+03
      1.215  0.6845E+02  0.7252E+02  0.2957E+03  0.2953E+03
      1.274  0.2599E+02  0.2934E+02  0.2973E+03  0.2971E+03
      1.333  0.2884E+02  0.2580E+02  0.2990E+03  0.2986E+03
      1.391  0.3577E+02  0.3431E+02  0.3011E+03  0.3006E+03
      1.450  0.5751E+02  0.6012E+02  0.3045E+03  0.3042E+03
      1.509  0.3715E+02  0.3740E+02  0.3066E+03  0.3064E+03
      1.568  0.4406E+02  0.4297E+02  0.3092E+03  0.3089E+03
      1.627  0.5338E+02  0.5298E+02  0.3124E+03  0.3120E+03
      1.686  0.4059E+02  0.4505E+02  0.3148E+03  0.3147E+03
      1.744  0.4050E+02  0.3245E+02  0.3172E+03  0.3166E+03
      1.803  0.3476E+02  0.4160E+02  0.3192E+03  0.3190E+03
      1.862  0.4551E+02  0.3790E+02  0.3219E+03  0.3212E+03
      1.921  0.3387E+02  0.4133E+02  0.3239E+03  0.3237E+03
      1.980  0.3117E+02  0.2876E+02  0.3257E+03  0.3254E+03
      2.039  0.4827E+02  0.4582E+02  0.3285E+03  0.3281E+03
      2.098  0.5098E+02  0.5721E+02  0.3315E+03  0.3314E+03
      2.156  0.3449E+02  0.2810E+02  0.3336E+03  0.3331E+03
      2.215  0.2805E+02  0.3184E+02  0.3352E+03  0.3350E+03
      2.274  0.4692E+02  0.4420E+02  0.3380E+03  0.3376E+03
      2.333  0.3547E+02  0.3829E+02  0.3401E+03  0.3398E+03
      2.392  0.5784E+02  0.5261E+02  0.3435E+03  0.3429E+03
      2.451  0.3689E+02  0.3553E+02  0.3457E+03  0.3450E+03
      2.510  0.2440E+02  0.3117E+02  0.3471E+03  0.3468E+03
      2.568  0.2442E+02  0.2207E+02  0.3485E+03  0.3481E+03
      2.627  0.1501E+02  0.1803E+02  0.3494E+03  0.3492E+03
      2.686  0.3636E+02  0.3354E+02  0.3516E+03  0.3512E+03
      2.745  0.4147E+02  0.4029E+02  0.3540E+03  0.3535E+03
      2.804  0.2682E+02  0.2998E+02  0.3556E+03  0.3553E+03
      2.863  0.4268E+02  0.4242E+02  0.3581E+03  0.3578E+03
      2.922  0.4465E+02  0.3862E+02  0.3607E+03  0.3601E+03
      2.980  0.3105E+02  0.3357E+02  0.3625E+03  0.3621E+03
      3.039  0.4703E+02  0.4830E+02  0.3653E+03  0.3649E+03
      3.098  0.3634E+02  0.4163E+02  0.3674E+03  0.3673E+03
      3.157  0.2151E+02  0.1759E+02  0.3687E+03  0.3684E+03
      3.216  0.4238E+02  0.3888E+02  0.3712E+03  0.3707E+03
      3.275  0.2691E+02  0.3546E+02  0.3728E+03  0.3728E+03
      3.334  0.4061E+02  0.3099E+02  0.3752E+03  0.3746E+03
      3.392  0.2902E+02  0.2952E+02  0.3769E+03  0.3763E+03
      3.451  0.1928E+02  0.2171E+02  0.3780E+03  0.3776E+03
      3.510  0.3202E+02  0.3140E+02  0.3799E+03  0.3794E+03
      3.569  0.3944E+02  0.3504E+02  0.3822E+03  0.3815E+03
      3.628  0.4979E+02  0.5210E+02  0.3852E+03  0.3846E+03
      3.687  0.2220E+02  0.2877E+02  0.3865E+03  0.3863E+03
      3.745  0.4914E+02  0.4192E+02  0.3894E+03  0.3887E+03
      3.804  0.2201E+02  0.2658E+02  0.3907E+03  0.3903E+03
      3.863  0.2786E+02  0.2305E+02  0.3923E+03  0.3917E+03
      3.922  0.3820E+02  0.4488E+02  0.3945E+03  0.3943E+03
      3.981  0.1711E+02  0.1834E+02  0.3955E+03  0.3954E+03
      4.040  0.2475E+02  0.2018E+02  0.3970E+03  0.3966E+03
      4.099  0.4697E+02  0.4792E+02  0.3998E+03  0.3994E+03
      4.157  0.3174E+02  0.3148E+02  0.4016E+03  0.4012E+03
      4.216  0.2081E+02  0.2470E+02  0.4029E+03  0.4027E+03
      4.275  0.4708E+02  0.4418E+02  0.4056E+03  0.4053E+03
      4.334  0.2812E+02  0.2242E+02  0.4073E+03  0.4066E+03
      4.393  0.4212E+02  0.4491E+02  0.4098E+03  0.4092E+03
      4.452  0.5499E+02  0.5885E+02  0.4130E+03  0.4127E+03
      4.511  0.2803E+02  0.2656E+02  0.4147E+03  0.4143E+03
      4.569  0.2774E+02  0.2806E+02  0.4163E+03  0.4159E+03
      4.628  0.3918E+02  0.3520E+02  0.4186E+03  0.4180E+03
      4.687  0.3333E+02  0.3886E+02  0.4206E+03  0.4203E+03
      4.746  0.4558E+02  0.4627E+02  0.4232E+03  0.4230E+03
      4.805  0.3540E+02  0.3543E+02  0.4253E+03  0.4251E+03
      4.864  0.4091E+02  0.3880E+02  0.4277E+03  0.4274E+03
      4.923  0.3717E+02  0.3179E+02  0.4299E+03  0.4292E+03
      4.981  0.3714E+02  0.4313E+02  0.4321E+03  0.4318E+03
      5.040  0.3664E+02  0.3551E+02  0.4343E+03  0.4339E+03
      5.099  0.4760E+02  0.4216E+02  0.4371E+03  0.4364E+03
      5.158  0.4367E+02  0.4350E+02  0.4396E+03  0.4389E+03
      5.217  0.5174E+02  0.6260E+02  0.4427E+03  0.4426E+03
      5.276  0.4505E+02  0.3210E+02  0.4453E+03  0.4445E+03
      5.334  0.3198E+02  0.4361E+02  0.4472E+03  0.4471E+03
      5.393  0.4502E+02  0.4093E+02  0.4499E+03  0.4495E+03
      5.452  0.4405E+02  0.4238E+02  0.4524E+03  0.4520E+03
      5.511  0.5444E+02  0.5149E+02  0.4557E+03  0.4550E+03
      5.570  0.4940E+02  0.5762E+02  0.4586E+03  0.4584E+03
      5.629  0.5037E+02  0.4535E+02  0.4615E+03  0.4611E+03
      5.688  0.3207E+02  0.3678E+02  0.4634E+03  0.4632E+03
      5.746  0.9329E+01  0.7547E+01  0.4640E+03  0.4637E+03
      5.805  0.6726E+00  0.5733E+01  0.4640E+03  0.4640E+03
      5.864  0.0000E+00  0.0000E+00  0.4640E+03  0.4640E+03
      5.923  0.0000E+00  0.0000E+00  0.4640E+03  0.4640E+03
      5.982  0.0000E+00  0.0000E+00  0.4640E+03  0.4640E+03
      6.041  0.0000E+00  0.0000E+00  0.4640E+03  0.4640E+03
      6.100  0.0000E+00  0.0000E+00  0.4640E+03  0.4640E+03
      6.158  0.0000E+00  0.0000E+00  0.4640E+03  0.4640E+03
      6.217  0.0000E+00  0.0000E+00  0.4640E+03  0.4640E+03
      6.276  0.0000E+00  0.0000E+00  0.4640E+03  0.4640E+03
      6.335  0.0000E+00  0.0000E+00  0.4640E+03  0.4640E+03
      6.394  0.0000E+00  0.0000E+00  0.4640E+03  0.4640E+03
      6.453  0.0000E+00  0.0000E+00  0.4640E+03  0.4640E+03
      6.512  0.0000E+00  0.0000E+00  0.4640E+03  0.4640E+03
      6.570  0.0000E+00  0.0000E+00  0.4640E+03  0.4640E+03
