 vasp.6.4.3 19Mar24 (build Oct 22 2024 11:23:12) complex                        
  
 executed on             LinuxIFC date 2025.06.09  05:15:33
 running   64 mpi-ranks, on    4 nodes
 distrk:  each k-point on   64 cores,    1 groups
 distr:  one band on NCORE=  16 cores,    4 groups


--------------------------------------------------------------------------------------------------------


 INCAR:
   SYSTEM = Si and Ge interface calculation
   ISTART = 0
   ICHARG = 2
   LWAVE = .FALSE.
   LREAL = AUTO
   ENCUT = 700
   ENAUG = 900
   ADDGRID = .TRUE.
   LMAXMIX = 6
   LASPH = .TRUE.
   LMIXTAU = .TRUE.
   NCORE = 16
   NELM = 100
   NBANDS = 404
   EDIFF = 1d-7
   AMIX = 0.6
   ISMEAR = 0
   SIGMA = 0.01
   NELECT = 672
   ISPIN = 2
   NUPDOWN = 1
   LVTOT = .FALSE.
   LVHAR = .TRUE.

 POTCAR:    PAW_PBE Sn 08Apr2002                  
 POTCAR:    PAW_PBE Ge 05Jan2001                  
 -----------------------------------------------------------------------------
|                                                                             |
|           W    W    AA    RRRRR   N    N  II  N    N   GGGG   !!!           |
|           W    W   A  A   R    R  NN   N  II  NN   N  G    G  !!!           |
|           W    W  A    A  R    R  N N  N  II  N N  N  G       !!!           |
|           W WW W  AAAAAA  RRRRR   N  N N  II  N  N N  G  GGG   !            |
|           WW  WW  A    A  R   R   N   NN  II  N   NN  G    G                |
|           W    W  A    A  R    R  N    N  II  N    N   GGGG   !!!           |
|                                                                             |
|     You use a magnetic or noncollinear calculation, but did not specify     |
|     the initial magnetic moment with the MAGMOM tag. Note that a            |
|     default of 5.952e-3 will be used for all atoms. This ferromagnetic      |
|     setup may break the symmetry of the crystal, in particular it may       |
|     rule out finding an antiferromagnetic solution. Thence, we              |
|     recommend setting the initial magnetic moment manually or verifying     |
|     carefully that this magnetic setup is desired.                          |
|                                                                             |
 -----------------------------------------------------------------------------

 POTCAR:    PAW_PBE Sn 08Apr2002                  
   VRHFIN =Sn: s2p2                                                                                 
   LEXCH  = PE                                                                                      
   EATOM  =    94.0860 eV,    6.9151 Ry                                                             
                                                                                                    
   TITEL  = PAW_PBE Sn 08Apr2002                                                                    
   LULTRA =        F    use ultrasoft PP ?                                                          
   IUNSCR =        1    unscreen: 0-lin 1-nonlin 2-no                                               
   RPACOR =    2.000    partial core radius                                                         
   POMASS =  118.710; ZVAL   =    4.000    mass and valenz                                          
   RCORE  =    3.000    outmost cutoff radius                                                       
   RWIGS  =    2.960; RWIGS  =    1.566    wigner-seitz radius (au A)                               
   ENMAX  =  103.236; ENMIN  =   77.427 eV                                                          
   ICORE  =        3    local potential                                                             
   LCOR   =        T    correct aug charges                                                         
   LPAW   =        T    paw PP                                                                      
   EAUG   =  263.585                                                                                
   DEXC   =    0.000                                                                                
   RMAX   =    3.078    core radius for proj-oper                                                   
   RAUG   =    1.300    factor for augmentation sphere                                              
   RDEP   =    3.022    radius for radial grids                                                     
   RDEPT  =    2.655    core radius for aug-charge                                                  
                                                                                                    
   Atomic configuration                                                                             
   13 entries                                                                                       
     n  l   j            E        occ.                                                              
     1  0  0.50    -29007.2859   2.0000                                                             
     2  0  0.50     -4378.8056   2.0000                                                             
     2  1  1.50     -3930.4293   6.0000                                                             
     3  0  0.50      -845.0264   2.0000                                                             
     3  1  1.50      -698.5725   6.0000                                                             
     3  2  2.50      -473.2839  10.0000                                                             
     4  0  0.50      -133.9036   2.0000                                                             
     4  1  1.50       -89.6752   6.0000                                                             
     4  2  2.50       -25.8375  10.0000                                                             
     5  0  0.50       -10.5484   2.0000                                                             
     5  1  0.50        -3.6940   2.0000                                                             
     5  2  1.50        -1.3606   0.0000                                                             
     4  3  2.50        -4.0817   0.0000                                                             
   Description                                                                                      
     l       E           TYP  RCUT    TYP  RCUT                                                     
     0    -10.5483727     23  3.000                                                                 
     0     27.2116520     23  3.000                                                                 
     1     -3.6939829     23  3.000                                                                 
     1      1.9821976     23  3.000                                                                 
     2     -1.3605826     23  3.000                                                                 
     3     -2.7211652     23  3.000                                                                 
  local pseudopotential read in
  partial core-charges read in
  partial kinetic energy density read in
  atomic valenz-charges read in
  non local Contribution for L=           0  read in
    real space projection operators read in
  non local Contribution for L=           0  read in
    real space projection operators read in
  non local Contribution for L=           1  read in
    real space projection operators read in
  non local Contribution for L=           1  read in
    real space projection operators read in
  non local Contribution for L=           2  read in
    real space projection operators read in
    PAW grid and wavefunctions read in
 
   number of l-projection  operators is LMAX  =           5
   number of lm-projection operators is LMMAX =          13
 
 POTCAR:    PAW_PBE Ge 05Jan2001                  
   VRHFIN =Ge: s2p2                                                                                 
   LEXCH  = PE                                                                                      
   EATOM  =   104.9960 eV,    7.7170 Ry                                                             
                                                                                                    
   TITEL  = PAW_PBE Ge 05Jan2001                                                                    
   LULTRA =        F    use ultrasoft PP ?                                                          
   IUNSCR =        1    unscreen: 0-lin 1-nonlin 2-no                                               
   RPACOR =    2.170    partial core radius                                                         
   POMASS =   72.610; ZVAL   =    4.000    mass and valenz                                          
   RCORE  =    2.300    outmost cutoff radius                                                       
   RWIGS  =    2.300; RWIGS  =    1.217    wigner-seitz radius (au A)                               
   ENMAX  =  173.807; ENMIN  =  130.355 eV                                                          
   ICORE  =        3    local potential                                                             
   LCOR   =        T    correct aug charges                                                         
   LPAW   =        T    paw PP                                                                      
   EAUG   =  385.843                                                                                
   DEXC   =    0.000                                                                                
   RMAX   =    2.342    core radius for proj-oper                                                   
   RAUG   =    1.300    factor for augmentation sphere                                              
   RDEP   =    2.318    radius for radial grids                                                     
   RDEPT  =    2.103    core radius for aug-charge                                                  
                                                                                                    
   Atomic configuration                                                                             
   10 entries                                                                                       
     n  l   j            E        occ.                                                              
     1  0  0.50    -10959.8463   2.0000                                                             
     2  0  0.50     -1371.6056   2.0000                                                             
     2  1  1.50     -1198.4791   6.0000                                                             
     3  0  0.50      -168.4733   2.0000                                                             
     3  1  1.50      -115.6019   6.0000                                                             
     3  2  2.50       -29.3106  10.0000                                                             
     4  0  0.50       -11.7309   2.0000                                                             
     4  1  0.50        -3.8952   2.0000                                                             
     4  2  1.50        -4.0817   0.0000                                                             
     4  3  2.50        -4.0817   0.0000                                                             
   Description                                                                                      
     l       E           TYP  RCUT    TYP  RCUT                                                     
     0    -11.7309493     23  2.300                                                                 
     0     -7.4578696     23  2.300                                                                 
     1     -3.8952261     23  2.300                                                                 
     1      6.1178114     23  2.300                                                                 
     2     -4.0817478     23  2.300                                                                 
     3     -1.3605826      7  2.300                                                                 
  local pseudopotential read in
  partial core-charges read in
  partial kinetic energy density read in
  atomic valenz-charges read in
  non local Contribution for L=           0  read in
    real space projection operators read in
  non local Contribution for L=           0  read in
    real space projection operators read in
  non local Contribution for L=           1  read in
    real space projection operators read in
  non local Contribution for L=           1  read in
    real space projection operators read in
  non local Contribution for L=           2  read in
    real space projection operators read in
    PAW grid and wavefunctions read in
 
   number of l-projection  operators is LMAX  =           5
   number of lm-projection operators is LMMAX =          13
 
 Optimization of the real space projectors (new method)

 maximal supplied QI-value         = 12.47
 optimisation between [QCUT,QGAM] = [ 12.47, 27.06] = [ 43.56,205.12] Ry 
 Optimized for a Real-space Cutoff    1.58 Angstroem

   l    n(q)    QCUT    max X(q) W(low)/X(q) W(high)/X(q)  e(spline) 
   0     13    12.472    14.688    0.45E-04    0.45E-04    0.25E-05
   0     13    12.472     7.308    0.94E-04    0.11E-03    0.61E-05
   1     12    12.472    45.102    0.34E-03    0.14E-03    0.21E-05
   1     12    12.472    30.691    0.31E-03    0.13E-03    0.20E-05
   2     12    12.472     7.156    0.86E-04    0.11E-03    0.17E-05
 WARNING: PSMAXN for non-local potential too small
          PSMAXN should be >   13.5545592237991       NTYP=           1
 Optimization of the real space projectors (new method)

 maximal supplied QI-value         = 16.25
 optimisation between [QCUT,QGAM] = [ 13.49, 26.98] = [ 50.95,203.80] Ry 
 Optimized for a Real-space Cutoff    1.25 Angstroem

   l    n(q)    QCUT    max X(q) W(low)/X(q) W(high)/X(q)  e(spline) 
   0     10    13.489    65.336    0.91E-04    0.11E-03    0.34E-06
   0     10    13.489    52.220    0.89E-04    0.11E-03    0.34E-06
   1     10    13.489    36.409    0.22E-03    0.27E-03    0.14E-06
   1     10    13.489    21.334    0.21E-03    0.27E-03    0.14E-06
   2      9    13.489     4.673    0.11E-03    0.12E-03    0.19E-06
  PAW_PBE Sn 08Apr2002                  :
 energy of atom  1       EATOM=  -94.0860
 kinetic energy error for atom=    0.0000 (will be added to EATOM!!)
  PAW_PBE Ge 05Jan2001                  :
 energy of atom  2       EATOM= -104.9960
 kinetic energy error for atom=    0.0001 (will be added to EATOM!!)
 
 
 POSCAR: Sn+Ge
  positions in direct lattice
  No initial velocities read in


 exchange-correlation table for PE
   RHO(1)=    0.500       N(1)  =     2000
   RHO(2)=  100.500       N(2)  =     4000
 


--------------------------------------------------------------------------------------------------------


 ion  position               nearest neighbor table
   1  0.000  0.012  0.000- 162 2.64  34 2.81  46 2.81  64 2.81
   2  0.000  0.346  0.185-  35 2.81  47 2.81  65 2.81  10 2.81
   3  0.000  0.679  0.369-  48 2.81  36 2.81  66 2.81  11 2.81  79 3.20
   4  0.333  0.679  0.000- 135 2.55  67 2.81  28 2.81  49 2.81
   5  0.333  0.012  0.185-  68 2.81  29 2.81  13 2.81  50 2.81
   6  0.333  0.346  0.369-  69 2.81  14 2.81  51 2.81  30 2.81
   7  0.667  0.346  0.000- 117 2.68  70 2.81  31 2.81  52 2.81 129 3.30
   8  0.667  0.679  0.185-  71 2.81  16 2.81  32 2.81  53 2.81
   9  0.667  0.012  0.369-  17 2.81  72 2.81  33 2.81  54 2.81
  10  0.000  0.346  0.046-  61 2.81  37 2.81  19 2.81   2 2.81
  11  0.000  0.679  0.231-  62 2.81  20 2.81   3 2.81  38 2.81
  12  0.000  0.012  0.415- 151 2.64  63 2.81  21 2.81  39 2.81 133 3.30
  13  0.333  0.012  0.046-  22 2.81  55 2.81  40 2.81   5 2.81
  14  0.333  0.346  0.231-  23 2.81   6 2.81  41 2.81  56 2.81
  15  0.333  0.679  0.415- 127 2.55  42 2.81  24 2.81  57 2.81
  16  0.667  0.679  0.046-  43 2.81   8 2.81  25 2.81  58 2.81
  17  0.667  0.012  0.231-   9 2.81  44 2.81  26 2.81  59 2.81
  18  0.667  0.346  0.415- 100 2.68  27 2.81  60 2.81  45 2.81
  19  0.167  0.346  0.000- 111 2.68  49 2.81  10 2.81  64 2.81 123 3.30
  20  0.167  0.679  0.185-  50 2.81  11 2.81  28 2.81  65 2.81
  21  0.167  0.012  0.369-  12 2.81  51 2.81  29 2.81  66 2.81
  22  0.500  0.012  0.000- 168 2.64  13 2.81  52 2.81  67 2.81
  23  0.500  0.346  0.185-  14 2.81  68 2.81  53 2.81  31 2.81
  24  0.500  0.679  0.369-  15 2.81  54 2.81  32 2.81  69 2.81  73 3.20
  25  0.833  0.679  0.000- 141 2.55  46 2.81  70 2.81  16 2.81
  26  0.833  0.012  0.185-  47 2.81  17 2.81  34 2.81  71 2.81
  27  0.833  0.346  0.369-  18 2.81  48 2.81  72 2.81  35 2.81
  28  0.167  0.679  0.046-  55 2.81   4 2.81  37 2.81  20 2.81
  29  0.167  0.012  0.231-  56 2.81   5 2.81  38 2.81  21 2.81
  30  0.167  0.346  0.415- 106 2.68  57 2.81   6 2.81  39 2.81
  31  0.500  0.346  0.046-  58 2.81   7 2.81  40 2.81  23 2.81
  32  0.500  0.679  0.231-  41 2.81   8 2.81  59 2.81  24 2.81
  33  0.500  0.012  0.415- 145 2.64  60 2.81  42 2.81   9 2.81 139 3.30
  34  0.833  0.012  0.046-   1 2.81  43 2.81  61 2.81  26 2.81
  35  0.833  0.346  0.231-   2 2.81  44 2.81  62 2.81  27 2.81
  36  0.833  0.679  0.415- 121 2.55   3 2.81  45 2.81  63 2.81
  37  0.000  0.512  0.000- 159 2.64  70 2.81  10 2.81  28 2.81
  38  0.000  0.846  0.185-  71 2.81  46 2.81  29 2.81  11 2.81
  39  0.000  0.179  0.369-  72 2.81  12 2.81  30 2.81  47 2.81  82 3.20
  40  0.333  0.179  0.000- 138 2.55  64 2.81  13 2.81  31 2.81
  41  0.333  0.512  0.185-  65 2.81  32 2.81  14 2.81  49 2.81
  42  0.333  0.846  0.369-  15 2.81  66 2.81  33 2.81  50 2.81
  43  0.667  0.846  0.000- 120 2.68  34 2.81  16 2.81  67 2.81 132 3.30
  44  0.667  0.179  0.185-  35 2.81  17 2.81  52 2.81  68 2.81
  45  0.667  0.512  0.369-  36 2.81  69 2.81  53 2.81  18 2.81
  46  0.000  0.846  0.046-   1 2.81  25 2.81  55 2.81  38 2.81
  47  0.000  0.179  0.231-   2 2.81  26 2.81  56 2.81  39 2.81
  48  0.000  0.512  0.415- 154 2.64   3 2.81  27 2.81  57 2.81 136 3.30
  49  0.333  0.512  0.046-  58 2.81  19 2.81   4 2.81  41 2.81
  50  0.333  0.846  0.231-  59 2.81  20 2.81   5 2.81  42 2.81
  51  0.333  0.179  0.415- 130 2.55   6 2.81  21 2.81  60 2.81
  52  0.667  0.179  0.046-  61 2.81  22 2.81  44 2.81   7 2.81
  53  0.667  0.512  0.231-  62 2.81  23 2.81   8 2.81  45 2.81
  54  0.667  0.846  0.415-  97 2.68  63 2.81  24 2.81   9 2.81
  55  0.167  0.846  0.000- 114 2.68  28 2.81  13 2.81  46 2.81 126 3.30
  56  0.167  0.179  0.185-  29 2.81  64 2.81  14 2.81  47 2.81
  57  0.167  0.512  0.369-  30 2.81  65 2.81  15 2.81  48 2.81
  58  0.500  0.512  0.000- 165 2.64  49 2.81  31 2.81  16 2.81
  59  0.500  0.846  0.185-  50 2.81  67 2.81  32 2.81  17 2.81
  60  0.500  0.179  0.369-  68 2.81  33 2.81  18 2.81  51 2.81  76 3.20
  61  0.833  0.179  0.000- 144 2.55  52 2.81  10 2.81  34 2.81
  62  0.833  0.512  0.185-  53 2.81  11 2.81  35 2.81  70 2.81
  63  0.833  0.846  0.369-  12 2.81  54 2.81  71 2.81  36 2.81
  64  0.167  0.179  0.046-  40 2.81   1 2.81  56 2.81  19 2.81
  65  0.167  0.512  0.231-  57 2.81  41 2.81   2 2.81  20 2.81
  66  0.167  0.846  0.415- 103 2.68  42 2.81   3 2.81  21 2.81
  67  0.500  0.846  0.046-   4 2.81  22 2.81  59 2.81  43 2.81
  68  0.500  0.179  0.231-  60 2.81   5 2.81  23 2.81  44 2.81
  69  0.500  0.512  0.415- 148 2.64   6 2.81  45 2.81  24 2.81 142 3.30
  70  0.833  0.512  0.046-  37 2.81   7 2.81  25 2.81  62 2.81
  71  0.833  0.846  0.231-  38 2.81   8 2.81  63 2.81  26 2.81
  72  0.833  0.179  0.415- 124 2.55  39 2.81   9 2.81  27 2.81
  73  0.511  0.683  0.527- 142 2.44 157 2.44 115 2.44  24 3.20
  74  0.178  0.516  0.687- 116 2.44 143 2.44 158 2.44  94 2.45
  75  0.844  0.349  0.848- 144 2.44 117 2.44 159 2.44  95 2.45
  76  0.511  0.183  0.527- 160 2.44 118 2.44 139 2.44  60 3.20
  77  0.178  0.016  0.687- 119 2.44 161 2.44 140 2.44  91 2.45
  78  0.844  0.849  0.848- 120 2.44 141 2.44 162 2.44  92 2.45
  79  0.011  0.683  0.527- 109 2.44 136 2.44 163 2.44   3 3.20
  80  0.678  0.516  0.687- 137 2.44 110 2.44 164 2.44  88 2.45
  81  0.344  0.349  0.848- 138 2.44 111 2.44 165 2.44  89 2.45
  82  0.011  0.183  0.527- 112 2.44 166 2.44 133 2.44  39 3.20
  83  0.678  0.016  0.687- 113 2.44 167 2.44 134 2.44  85 2.45
  84  0.344  0.849  0.848- 114 2.44 135 2.44 168 2.44  86 2.45
  85  0.678  0.016  0.567- 145 2.44  97 2.44 124 2.44  83 2.45
  86  0.344  0.849  0.728-  98 2.44 146 2.44 125 2.44  84 2.45
  87  0.011  0.683  0.889-  99 2.44 147 2.44 126 2.44
  88  0.678  0.516  0.567- 148 2.44 100 2.44 121 2.44  80 2.45
  89  0.344  0.349  0.728- 101 2.44 122 2.44 149 2.44  81 2.45
  90  0.011  0.183  0.889- 102 2.44 150 2.44 123 2.44
  91  0.178  0.016  0.567- 151 2.44 103 2.44 130 2.44  77 2.45
  92  0.844  0.849  0.728- 152 2.44 104 2.44 131 2.44  78 2.45
  93  0.511  0.683  0.889- 105 2.44 153 2.44 132 2.44
  94  0.178  0.516  0.567- 154 2.44 106 2.44 127 2.44  74 2.45
  95  0.844  0.349  0.728- 155 2.44 128 2.44 107 2.44  75 2.45
  96  0.511  0.183  0.889- 108 2.44 129 2.44 156 2.44
  97  0.761  0.933  0.527-  85 2.44 133 2.44 157 2.44  54 2.68
  98  0.428  0.766  0.687-  86 2.44 134 2.44 158 2.44 115 2.45
  99  0.094  0.599  0.848-  87 2.44 159 2.44 135 2.44 116 2.45
 100  0.761  0.433  0.527- 136 2.44 160 2.44  88 2.44  18 2.68
 101  0.428  0.266  0.687- 161 2.44  89 2.44 137 2.44 118 2.45
 102  0.094  0.099  0.848-  90 2.44 162 2.44 138 2.44 119 2.45
 103  0.261  0.933  0.527- 163 2.44  91 2.44 139 2.44  66 2.68
 104  0.928  0.766  0.687-  92 2.44 164 2.44 140 2.44 109 2.45
 105  0.594  0.599  0.848-  93 2.44 165 2.44 141 2.44 110 2.45
 106  0.261  0.433  0.527- 166 2.44  94 2.44 142 2.44  30 2.68
 107  0.928  0.266  0.687- 167 2.44  95 2.44 143 2.44 112 2.45
 108  0.594  0.099  0.848-  96 2.44 168 2.44 144 2.44 113 2.45
 109  0.928  0.766  0.567-  79 2.44 121 2.44 151 2.44 104 2.45
 110  0.594  0.599  0.728- 122 2.44  80 2.44 152 2.44 105 2.45
 111  0.261  0.433  0.889-  81 2.44 153 2.44 123 2.44  19 2.68
 112  0.928  0.266  0.567-  82 2.44 124 2.44 154 2.44 107 2.45
 113  0.594  0.099  0.728- 125 2.44  83 2.44 155 2.44 108 2.45
 114  0.261  0.933  0.889-  84 2.44 156 2.44 126 2.44  55 2.68
 115  0.428  0.766  0.567-  73 2.44 127 2.44 145 2.44  98 2.45
 116  0.094  0.599  0.728-  74 2.44 146 2.44 128 2.44  99 2.45
 117  0.761  0.433  0.889-  75 2.44 147 2.44 129 2.44   7 2.68
 118  0.428  0.266  0.567-  76 2.44 148 2.44 130 2.44 101 2.45
 119  0.094  0.099  0.728-  77 2.44 149 2.44 131 2.44 102 2.45
 120  0.761  0.933  0.889-  78 2.44 150 2.44 132 2.44  43 2.68
 121  0.761  0.683  0.527- 157 2.44 109 2.44  88 2.44  36 2.55
 122  0.428  0.516  0.687- 110 2.44 158 2.44  89 2.44 142 2.45
 123  0.094  0.349  0.848- 159 2.44  90 2.44 111 2.44 143 2.45  19 3.30
 124  0.761  0.183  0.527- 160 2.44 112 2.44  85 2.44  72 2.55
 125  0.428  0.016  0.687- 113 2.44 161 2.44  86 2.44 139 2.45
 126  0.094  0.849  0.848- 162 2.44 114 2.44  87 2.44 140 2.45  55 3.30
 127  0.261  0.683  0.527- 163 2.44  94 2.44 115 2.44  15 2.55
 128  0.928  0.516  0.687- 164 2.44  95 2.44 116 2.44 136 2.45
 129  0.594  0.349  0.848- 165 2.44  96 2.44 117 2.44 137 2.45   7 3.30
 130  0.261  0.183  0.527- 166 2.44 118 2.44  91 2.44  51 2.55
 131  0.928  0.016  0.687- 167 2.44 119 2.44  92 2.44 133 2.45
 132  0.594  0.849  0.848- 168 2.44  93 2.44 120 2.44 134 2.45  43 3.30
 133  0.928  0.016  0.567-  97 2.44 151 2.44  82 2.44 131 2.45  12 3.30
 134  0.594  0.849  0.728- 152 2.44  98 2.44  83 2.44 132 2.45
 135  0.261  0.683  0.889- 153 2.44  84 2.44  99 2.44   4 2.55
 136  0.928  0.516  0.567- 100 2.44  79 2.44 154 2.44 128 2.45  48 3.30
 137  0.594  0.349  0.728- 101 2.44  80 2.44 155 2.44 129 2.45
 138  0.261  0.183  0.889-  81 2.44 156 2.44 102 2.44  40 2.55
 139  0.428  0.016  0.567- 145 2.44 103 2.44  76 2.44 125 2.45  33 3.30
 140  0.094  0.849  0.728- 146 2.44 104 2.44  77 2.44 126 2.45
 141  0.761  0.683  0.889- 147 2.44  78 2.44 105 2.44  25 2.55
 142  0.428  0.516  0.567-  73 2.44 106 2.44 148 2.44 122 2.45  69 3.30
 143  0.094  0.349  0.728- 149 2.44  74 2.44 107 2.44 123 2.45
 144  0.761  0.183  0.889-  75 2.44 150 2.44 108 2.44  61 2.55
 145  0.511  0.933  0.527-  85 2.44 139 2.44 115 2.44  33 2.64
 146  0.178  0.766  0.687- 140 2.44 116 2.44  86 2.44 163 2.45
 147  0.844  0.599  0.848- 141 2.44  87 2.44 117 2.44 164 2.45
 148  0.511  0.433  0.527-  88 2.44 118 2.44 142 2.44  69 2.64
 149  0.178  0.266  0.687- 143 2.44 119 2.44  89 2.44 166 2.45
 150  0.844  0.099  0.848-  90 2.44 144 2.44 120 2.44 167 2.45
 151  0.011  0.933  0.527-  91 2.44 133 2.44 109 2.44  12 2.64
 152  0.678  0.766  0.687- 134 2.44  92 2.44 110 2.44 157 2.45
 153  0.344  0.599  0.848- 135 2.44 111 2.44  93 2.44 158 2.45
 154  0.011  0.433  0.527- 112 2.44  94 2.44 136 2.44  48 2.64
 155  0.678  0.266  0.687-  95 2.44 113 2.44 137 2.44 160 2.45
 156  0.344  0.099  0.848- 138 2.44 114 2.44  96 2.44 161 2.45
 157  0.678  0.766  0.567- 121 2.44  73 2.44  97 2.44 152 2.45
 158  0.344  0.599  0.728- 122 2.44  98 2.44  74 2.44 153 2.45
 159  0.011  0.433  0.889- 123 2.44  99 2.44  75 2.44  37 2.64
 160  0.678  0.266  0.567- 124 2.44  76 2.44 100 2.44 155 2.45
 161  0.344  0.099  0.728- 101 2.44 125 2.44  77 2.44 156 2.45
 162  0.011  0.933  0.889- 126 2.44 102 2.44  78 2.44   1 2.64
 163  0.178  0.766  0.567- 127 2.44 103 2.44  79 2.44 146 2.45
 164  0.844  0.599  0.728- 128 2.44 104 2.44  80 2.44 147 2.45
 165  0.511  0.433  0.889- 129 2.44 105 2.44  81 2.44  58 2.64
 166  0.178  0.266  0.567- 130 2.44 106 2.44  82 2.44 149 2.45
 167  0.844  0.099  0.728- 107 2.44 131 2.44  83 2.44 150 2.45
 168  0.511  0.933  0.889- 132 2.44 108 2.44  84 2.44  22 2.64
 
  LATTYP: Found a hexagonal cell.
 ALAT       =    15.8952283860
 C/A-ratio  =     1.2773651248
  
  Lattice vectors:
  
 A1 = (  15.8952283860,   0.0000000000,   0.0000000000)
 A2 = (  -7.9476151470,  13.7656726840,   0.0000000000)
 A3 = (   0.0000000000,   0.0000000000,  20.3040103910)


Analysis of symmetry for initial positions (statically):
=====================================================================
 Subroutine PRICEL returns following result:
 
  LATTYP: Found a hexagonal cell.
 ALAT       =     7.9476141056
 C/A-ratio  =     2.5547302777
  
  Lattice vectors:
  
 A1 = (   7.9476141056,   0.0000001514,   0.0000000609)
 A2 = (  -3.9738078676,   6.8828368513,   0.0000000000)
 A3 = (   0.0000000000,   0.0000000000,  20.3040103910)
 
   4 primitive cells build up your supercell.
 

 Routine SETGRP: Setting up the symmetry group for a 
 hexagonal supercell.


 Subroutine GETGRP returns: Found  1 space group operations
 (whereof  1 operations were pure point group operations)
 out of a pool of 24 trial point group operations.


The static configuration has the point symmetry C_1 .


Analysis of symmetry for dynamics (positions and initial velocities):
=====================================================================
 Subroutine PRICEL returns following result:
 
  LATTYP: Found a hexagonal cell.
 ALAT       =     7.9476141056
 C/A-ratio  =     2.5547302777
  
  Lattice vectors:
  
 A1 = (   7.9476141056,   0.0000001514,   0.0000000609)
 A2 = (  -3.9738078676,   6.8828368513,   0.0000000000)
 A3 = (   0.0000000000,   0.0000000000,  20.3040103910)
 
   4 primitive cells build up your supercell.
 

 Routine SETGRP: Setting up the symmetry group for a 
 hexagonal supercell.


 Subroutine GETGRP returns: Found  1 space group operations
 (whereof  1 operations were pure point group operations)
 out of a pool of 24 trial point group operations.


The dynamic configuration has the point symmetry C_1 .


Analysis of structural, dynamic, and magnetic symmetry:
=====================================================================
 Subroutine PRICEL returns following result:
 
  LATTYP: Found a hexagonal cell.
 ALAT       =     7.9476141056
 C/A-ratio  =     2.5547302777
  
  Lattice vectors:
  
 A1 = (   7.9476141056,   0.0000001514,   0.0000000609)
 A2 = (  -3.9738078676,   6.8828368513,   0.0000000000)
 A3 = (   0.0000000000,   0.0000000000,  20.3040103910)
 
   4 primitive cells build up your supercell.
 

 Routine SETGRP: Setting up the symmetry group for a 
 hexagonal supercell.


 Subroutine GETGRP returns: Found  1 space group operations
 (whereof  1 operations were pure point group operations)
 out of a pool of 24 trial point group operations.


The overall configuration has the point symmetry C_1 .


 Subroutine INISYM returns: Found  1 space group operations
 (whereof  1 operations are pure point group operations),
 and found     4 'primitive' translations


----------------------------------------------------------------------------------------

                                     Primitive cell                                     

  volume of cell :    1110.6727

  direct lattice vectors                    reciprocal lattice vectors
     7.947614106  0.000000151  0.000000061     0.125823923  0.072644479  0.000000000
    -3.973807868  6.882836851  0.000000000    -0.000000003  0.145288928  0.000000000
     0.000000000  0.000000000 20.304010391    -0.000000000 -0.000000000  0.049251354

  length of vectors
     7.947614106  7.947615497 20.304010391     0.145288954  0.145288928  0.049251354

  position of ions in fractional coordinates (direct lattice)
     0.000000000  0.024818344  0.000000020
     0.000000000  0.691485041  0.184522256
     0.000000000  0.358151885  0.369044572
     0.666666746  0.358151671  0.000000025
     0.666666866  0.024818619  0.184522251
     0.666666746  0.691485242  0.369044508
     0.333333402  0.691485033  0.000000029
     0.333333402  0.358151640  0.184522255
     0.333333374  0.024818649  0.369044571
     0.000000000  0.691485041  0.046130553
     0.000000000  0.358151885  0.230652809
     0.000000000  0.024818418  0.415175140
     0.666666866  0.024818381  0.046130511
     0.666666866  0.691485004  0.230652834
     0.666666866  0.358151849  0.415175075
     0.333333374  0.358151522  0.046130589
     0.333333402  0.024818649  0.230652793
     0.333333374  0.691484915  0.415175139
     0.022167444  0.365514250  0.526596308
     0.355500698  0.032180776  0.687477528
     0.688833952  0.698847011  0.848358686
     0.355500698  0.032180538  0.566816627
     0.688833952  0.698846893  0.727697725
     0.022167206  0.365513774  0.888578951
     0.522167444  0.865513868  0.526596303
     0.855500698  0.532180394  0.687477523
     0.188833714  0.198847275  0.848358690
     0.855500818  0.532180512  0.566816562
     0.188834190  0.198847275  0.727697729
     0.522167444  0.865513748  0.888578946
     0.522167564  0.365514217  0.526596303
     0.855500698  0.032180743  0.687477523
     0.188833714  0.698847044  0.848358690
     0.855500818  0.032180743  0.566816562
     0.188834190  0.698846926  0.727697669
     0.522167444  0.365513979  0.888578946
     0.022167444  0.865513901  0.526596308
     0.355500698  0.532180427  0.687477528
     0.688833952  0.198847242  0.848358686
     0.355500936  0.532180545  0.566816627
     0.688834190  0.198847480  0.727697725
     0.022167444  0.865513781  0.888578951

  ion indices of the primitive-cell ions
   primitive index   ion index
                 1           1
                 2          38
                 3          39
                 4          61
                 5          26
                 6          63
                 7          55
                 8          56
                 9          21
                10          46
                11          47
                12          12
                13          34
                14          71
                15          72
                16          64
                17          29
                18          66
                19          82
                20          77
                21          78
                22          91
                23          92
                24          90
                25          97
                26         104
                27         102
                28         109
                29         119
                30         120
                31         124
                32         131
                33         126
                34         133
                35         140
                36         144
                37         151
                38         146
                39         150
                40         163
                41         167
                42         162

----------------------------------------------------------------------------------------

 
 
 KPOINTS: Automatic KPOINTS generated             

Automatic generation of k-mesh.
 Grid dimensions read from file:
 generate k-points for:    2    2    2

 Generating k-lattice:

  Cartesian coordinates                     Fractional coordinates (reciprocal lattice)
     0.031455981  0.018161120  0.000000000     0.500000000 -0.000000000  0.000000000
     0.000000000  0.036322235  0.000000000     0.000000000  0.500000000  0.000000000
     0.000000000  0.000000000  0.024625677     0.000000000  0.000000000  0.500000000

  Length of vectors
     0.036322238  0.036322235  0.024625677

  Shift w.r.t. Gamma in fractional coordinates (k-lattice)
     0.000000000  0.000000000  0.000000000

 
 Subroutine IBZKPT returns following result:
 ===========================================
 
 Found      8 irreducible k-points:
 
 Following reciprocal coordinates:
            Coordinates               Weight
  0.000000  0.000000  0.000000      1.000000
  0.500000  0.000000  0.000000      1.000000
  0.000000  0.500000  0.000000      1.000000
  0.500000  0.500000  0.000000      1.000000
  0.000000  0.000000  0.500000      1.000000
  0.500000  0.000000  0.500000      1.000000
  0.000000  0.500000  0.500000      1.000000
  0.500000  0.500000  0.500000      1.000000
 
 Following cartesian coordinates:
            Coordinates               Weight
  0.000000  0.000000  0.000000      1.000000
  0.031456  0.018161  0.000000      1.000000
  0.000000  0.036322  0.000000      1.000000
  0.031456  0.054483  0.000000      1.000000
  0.000000  0.000000  0.024626      1.000000
  0.031456  0.018161  0.024626      1.000000
  0.000000  0.036322  0.024626      1.000000
  0.031456  0.054483  0.024626      1.000000
 


--------------------------------------------------------------------------------------------------------




 Dimension of arrays:
   k-points           NKPTS =      8   k-points in BZ     NKDIM =      8   number of bands    NBANDS=    404
   number of dos      NEDOS =    301   number of ions     NIONS =    168
   non local maximal  LDIM  =      5   non local SUM 2l+1 LMDIM =     13
   total plane-waves  NPLWV = ******
   max r-space proj   IRMAX =   6105   max aug-charges    IRDMAX= 283212
   dimension x,y,z NGX =   108 NGY =  108 NGZ =  140
   dimension x,y,z NGXF=   216 NGYF=  216 NGZF=  280
   support grid    NGXF=   432 NGYF=  432 NGZF=  560
   ions per type =              72  96
   NGX,Y,Z   is equivalent  to a cutoff of  11.30, 11.30, 11.46 a.u.
   NGXF,Y,Z  is equivalent  to a cutoff of  22.59, 22.59, 22.93 a.u.

 SYSTEM =  Si and Ge interface calculation         
 POSCAR =  Sn+Ge                                   

 Startparameter for this run:
   NWRITE =      2    write-flag & timer
   PREC   = normal    normal or accurate (medium, high low for compatibility)
   ISTART =      0    job   : 0-new  1-cont  2-samecut
   ICHARG =      2    charge: 1-file 2-atom 10-const
   ISPIN  =      2    spin polarized calculation?
   LNONCOLLINEAR =      F non collinear calculations
   LSORBIT =      F    spin-orbit coupling
   INIWAV =      1    electr: 0-lowe 1-rand  2-diag
   LASPH  =      T    aspherical Exc in radial PAW
 Electronic Relaxation 1
   ENCUT  =  700.0 eV  51.45 Ry    7.17 a.u.  34.29 34.29 43.80*2*pi/ulx,y,z
   ENINI  =  700.0     initial cutoff
   ENAUG  =  900.0 eV  augmentation charge cutoff
   NELM   =    100;   NELMIN=  2; NELMDL= -5     # of ELM steps 
   EDIFF  = 0.1E-06   stopping-criterion for ELM
   LREAL  =      T    real-space projection
   NLSPLINE    = F    spline interpolate recip. space projectors
   LCOMPAT=      F    compatible to vasp.4.4
   GGA_COMPAT  = T    GGA compatible to vasp.4.4-vasp.4.6
   LMAXPAW     = -100 max onsite density
   LMAXMIX     =    6 max onsite mixed and CHGCAR
   VOSKOWN=      0    Vosko Wilk Nusair interpolation
   ROPT   =   -0.00050  -0.00050
 Ionic relaxation
   EDIFFG = 0.1E-05   stopping-criterion for IOM
   NSW    =      0    number of steps for IOM
   NBLOCK =      1;   KBLOCK =      1    inner block; outer block 
   IBRION =     -1    ionic relax: 0-MD 1-quasi-New 2-CG
   NFREE  =      0    steps in history (QN), initial steepest desc. (CG)
   ISIF   =      2    stress and relaxation
   IWAVPR =     10    prediction:  0-non 1-charg 2-wave 3-comb
   ISYM   =      2    0-nonsym 1-usesym 2-fastsym
   LCORR  =      T    Harris-Foulkes like correction to forces

   POTIM  = 0.5000    time-step for ionic-motion
   TEIN   =    0.0    initial temperature
   TEBEG  =    0.0;   TEEND  =   0.0 temperature during run
   SMASS  =  -3.00    Nose mass-parameter (am)
   estimated Nose-frequenzy (Omega)   =  0.10E-29 period in steps = 0.13E+47 mass=  -0.577E-26a.u.
   SCALEE = 1.0000    scale energy and forces
   NPACO  =    256;   APACO  = 10.0  distance and # of slots for P.C.
   PSTRESS=    0.0 pullay stress

  Mass of Ions in am
   POMASS = 118.71 72.61
  Ionic Valenz
   ZVAL   =   4.00  4.00
  Atomic Wigner-Seitz radii
   RWIGS  =  -1.00 -1.00
  virtual crystal weights 
   VCA    =   1.00  1.00
   NELECT =     672.0000    total number of electrons
   NUPDOWN=       1.0000    fix difference up-down

 DOS related values:
   EMIN   =  10.00;   EMAX   =-10.00  energy-range for DOS
   EFERMI =   0.00;   METHOD = LEGACY      
   ISMEAR =     0;   SIGMA  =   0.01  broadening in eV -4-tet -1-fermi 0-gaus

 Electronic relaxation 2 (details)
   IALGO  =     38    algorithm
   LDIAG  =      T    sub-space diagonalisation (order eigenvalues)
   LSUBROT=      F    optimize rotation matrix (better conditioning)
   TURBO    =      0    0=normal 1=particle mesh
   IRESTART =      0    0=no restart 2=restart with 2 vectors
   NREBOOT  =      0    no. of reboots
   NMIN     =      0    reboot dimension
   EREF     =   0.00    reference energy to select bands
   IMIX   =      4    mixing-type and parameters
     AMIX     =   0.60;   BMIX     =  1.00
     AMIX_MAG =   2.40;   BMIX_MAG =  1.00
     AMIN     =   0.10
     WC   =   100.;   INIMIX=   1;  MIXPRE=   1;  MAXMIX= -45

 Intra band minimization:
   WEIMIN = 0.0000     energy-eigenvalue tresh-hold
   EBREAK =  0.62E-10  absolut break condition
   DEPER  =   0.30     relativ break condition  

   TIME   =   0.40     timestep for ELM

  volume/ion in A,a.u.               =      26.44       178.46
  Fermi-wavevector in a.u.,A,eV,Ry     =   0.872267  1.648345 10.351979  0.760849
  Thomas-Fermi vector in A             =   1.991492
 
 Write flags
   LWAVE        =      F    write WAVECAR
   LDOWNSAMPLE  =      F    k-point downsampling of WAVECAR
   LCHARG       =      T    write CHGCAR
   LVTOT        =      F    write LOCPOT, total local potential
   LVHAR        =      T    write LOCPOT, Hartree potential only
   WRT_POTENTIAL=  hartree ionic  ! write potential to hdf5 file
   LELF         =      F    write electronic localiz. function (ELF)
   LORBIT       =      0    0 simple, 1 ext, 2 COOP (PROOUT), +10 PAW based schemes


 Dipole corrections
   LMONO      =      F    monopole corrections only (constant potential shift)
   LDIPOL     =      F    correct potential (dipole corrections)
   IDIPOL     =      0    1-x, 2-y, 3-z, 4-all directions 
   EPSILON    =  1.0000000 bulk dielectric constant
   LVACPOTAV  =      F  vacuum potentials using an averaging scheme for the charge density
   VACPOTFLAT =  0.1000000 required flatness to determine vacuum potential
 Exchange correlation treatment:
   GGA     = PE    functional components
   XC_C    = 1    coefficients multiplying the functional components
   LIBXC   =     F    Libxc                    
   VOSKOWN =     0    Vosko Wilk Nusair interpolation
   LHFCALC =     F    Hartree Fock is set to
   LHFONE  =     F    Hartree Fock one center treatment
   AEXX    =    0.0000 exact exchange contribution

 Parameters of functionals:
   PE:
     No parameter
 
 Van der Waals corrections
   IVDW    =     0    specifies the selected vdW correction

 Linear response parameters
   LEPSILON=     F    determine dielectric tensor
   LRPA    =     F    only Hartree local field effects (RPA)
   LNABLA  =     F    use nabla operator in PAW spheres
   LVEL    =     F    velocity operator in full k-point grid
   CSHIFT  =0.1000    complex shift for real part using Kramers Kronig
   OMEGAMAX=  -1.0    maximum frequency
   DEG_THRESHOLD= 0.2000000E-02 threshold for treating states as degnerate
   RTIME   =   -0.100 relaxation time in fs
  (WPLASMAI=    0.000 imaginary part of plasma frequency in eV, 0.658/RTIME)
   DFIELD  = 0.0000000 0.0000000 0.0000000 field for delta impulse in time
 
  Optional k-point grid parameters
   LKPOINTS_OPT  =     F    use optional k-point grid
   KPOINTS_OPT_MODE=     1    mode for optional k-point grid
 
 Orbital magnetization related:
   ORBITALMAG=     F  switch on orbital magnetization
   LCHIMAG   =     F  perturbation theory with respect to B field
   DQ        =  0.001000  dq finite difference perturbation B field
   LLRAUG    =     F  two centre corrections for induced B field
   LBONE     =     F  B-component reconstruction in AE one-centre
   LVGVCALC  =     T  calculate vGv susceptibility
   LVGVAPPL  =     F  apply vGv susceptibility instead of pGv for G=0

 Random number generation:
   RANDOM_GENERATOR = DEFAULT
   PCG_SEED         = not used


--------------------------------------------------------------------------------------------------------


 Static calculation
 charge density and potential will be updated during run
 spin polarized calculation
 Variant of blocked Davidson
 Davidson routine will perform the subspace rotation
 perform sub-space diagonalisation
    after iterative eigenvector-optimisation
 modified Broyden-mixing scheme, WC =      100.0
 initial mixing is a Kerker type mixing with AMIX =  0.6000 and BMIX =      1.0000
 Hartree-type preconditioning will be used
 using additional bands           68
 real space projection scheme for non local part
 use partial core corrections
 calculate Harris-corrections to forces 
   (improved forces if not selfconsistent)
 use gradient corrections 
 use of overlap-Matrix (Vanderbilt PP)
 Gauss-broadening in eV      SIGMA  =   0.01


--------------------------------------------------------------------------------------------------------


  energy-cutoff  :      700.00
  volume of cell :     4442.69
      direct lattice vectors                 reciprocal lattice vectors
    15.895228386  0.000000000  0.000000000     0.062911962  0.036322239  0.000000000
    -7.947615147 13.765672684  0.000000000     0.000000000  0.072644470  0.000000000
     0.000000000  0.000000000 20.304010391     0.000000000  0.000000000  0.049251354

  length of vectors
    15.895228386 15.895229818 20.304010391     0.072644477  0.072644470  0.049251354


 
 k-points in units of 2pi/SCALE and weight: Automatic KPOINTS generated             
   0.00000000  0.00000000  0.00000000       0.125
   0.03145598  0.01816112  0.00000000       0.125
   0.00000000  0.03632224  0.00000000       0.125
   0.03145598  0.05448335  0.00000000       0.125
   0.00000000  0.00000000  0.02462568       0.125
   0.03145598  0.01816112  0.02462568       0.125
   0.00000000  0.03632224  0.02462568       0.125
   0.03145598  0.05448335  0.02462568       0.125
 
 k-points in reciprocal lattice and weights: Automatic KPOINTS generated             
   0.00000000  0.00000000  0.00000000       0.125
   0.50000000  0.00000000  0.00000000       0.125
   0.00000000  0.50000000  0.00000000       0.125
   0.50000000  0.50000000  0.00000000       0.125
   0.00000000  0.00000000  0.50000000       0.125
   0.50000000  0.00000000  0.50000000       0.125
   0.00000000  0.50000000  0.50000000       0.125
   0.50000000  0.50000000  0.50000000       0.125
 
 position of ions in fractional coordinates (direct lattice) 
   0.00000000  0.01240917  0.00000002
   0.00000000  0.34574255  0.18452229
   0.00000000  0.67907596  0.36904457
   0.33333337  0.67907590  0.00000000
   0.33333340  0.01240933  0.18452227
   0.33333340  0.34574270  0.36904451
   0.66666675  0.34574255  0.00000002
   0.66666675  0.67907596  0.18452227
   0.66666675  0.01240933  0.36904451
   0.00000000  0.34574255  0.04613059
   0.00000000  0.67907590  0.23065287
   0.00000000  0.01240921  0.41517514
   0.33333340  0.01240921  0.04613056
   0.33333340  0.34574258  0.23065284
   0.33333340  0.67907608  0.41517514
   0.66666675  0.67907596  0.04613060
   0.66666675  0.01240933  0.23065287
   0.66666675  0.34574258  0.41517508
   0.16666669  0.34574255  0.00000002
   0.16666670  0.67907596  0.18452229
   0.16666669  0.01240933  0.36904457
   0.50000000  0.01240918  0.00000002
   0.50000000  0.34574258  0.18452229
   0.50000000  0.67907602  0.36904457
   0.83333343  0.67907590  0.00000000
   0.83333343  0.01240933  0.18452226
   0.83333343  0.34574270  0.36904457
   0.16666670  0.67907596  0.04613055
   0.16666670  0.01240933  0.23065279
   0.16666672  0.34574282  0.41517508
   0.50000006  0.34574258  0.04613055
   0.50000006  0.67907596  0.23065284
   0.50000006  0.01240933  0.41517508
   0.83333343  0.01240921  0.04613052
   0.83333343  0.34574258  0.23065279
   0.83333343  0.67907596  0.41517508
   0.00000000  0.51240921  0.00000001
   0.00000000  0.84574258  0.18452226
   0.00000000  0.17907596  0.36904457
   0.33333337  0.17907585  0.00000002
   0.33333337  0.51240927  0.18452229
   0.33333337  0.84574264  0.36904457
   0.66666675  0.84574258  0.00000000
   0.66666675  0.17907596  0.18452226
   0.66666681  0.51240945  0.36904457
   0.00000000  0.84574258  0.04613055
   0.00000000  0.17907596  0.23065281
   0.00000000  0.51240945  0.41517508
   0.33333337  0.51240921  0.04613055
   0.33333337  0.84574258  0.23065281
   0.33333340  0.17907608  0.41517514
   0.66666675  0.17907581  0.04613055
   0.66666675  0.51240921  0.23065282
   0.66666675  0.84574264  0.41517514
   0.16666670  0.84574258  0.00000003
   0.16666670  0.17907584  0.18452226
   0.16666670  0.51240933  0.36904451
   0.50000000  0.51240921  0.00000001
   0.50000000  0.84574264  0.18452229
   0.50000006  0.17907596  0.36904451
   0.83333337  0.17907587  0.00000003
   0.83333337  0.51240927  0.18452229
   0.83333337  0.84574270  0.36904451
   0.16666669  0.17907578  0.04613059
   0.16666669  0.51240915  0.23065288
   0.16666669  0.84574252  0.41517514
   0.50000000  0.84574252  0.04613059
   0.50000000  0.17907596  0.23065288
   0.50000000  0.51240921  0.41517514
   0.83333343  0.51240921  0.04613056
   0.83333343  0.84574258  0.23065284
   0.83333343  0.17907596  0.41517508
   0.51108384  0.68275696  0.52659631
   0.17775035  0.51609027  0.68747753
   0.84441698  0.34942353  0.84835863
   0.51108384  0.18275714  0.52659631
   0.17775035  0.01609039  0.68747753
   0.84441698  0.84942359  0.84835869
   0.01108372  0.68275702  0.52659631
   0.67775035  0.51609027  0.68747753
   0.34441686  0.34942353  0.84835869
   0.01108372  0.18275714  0.52659631
   0.67775035  0.01609039  0.68747753
   0.34441686  0.84942359  0.84835869
   0.67775041  0.01609027  0.56681663
   0.34441709  0.84942353  0.72769773
   0.01108360  0.68275684  0.88857895
   0.67775041  0.51609033  0.56681663
   0.34441709  0.34942365  0.72769773
   0.01108360  0.18275690  0.88857895
   0.17775035  0.01609027  0.56681663
   0.84441698  0.84942353  0.72769773
   0.51108360  0.68275684  0.88857895
   0.17775035  0.51609033  0.56681663
   0.84441698  0.34942365  0.72769773
   0.51108360  0.18275690  0.88857895
   0.76108372  0.93275702  0.52659631
   0.42775035  0.76609033  0.68747753
   0.09441686  0.59942353  0.84835869
   0.76108378  0.43275702  0.52659631
   0.42775035  0.26609030  0.68747753
   0.09441686  0.09942365  0.84835869
   0.26108372  0.93275696  0.52659631
   0.92775035  0.76609027  0.68747753
   0.59441686  0.59942353  0.84835869
   0.26108372  0.43275702  0.52659631
   0.92775035  0.26609030  0.68747753
   0.59441692  0.09942365  0.84835869
   0.92775041  0.76609033  0.56681657
   0.59441698  0.59942359  0.72769773
   0.26108360  0.43275690  0.88857895
   0.92775041  0.26609039  0.56681657
   0.59441698  0.09942365  0.72769773
   0.26108360  0.93275696  0.88857895
   0.42775047  0.76609027  0.56681657
   0.09441709  0.59942359  0.72769767
   0.76108372  0.43275687  0.88857895
   0.42775047  0.26609039  0.56681657
   0.09441709  0.09942365  0.72769773
   0.76108372  0.93275696  0.88857895
   0.76108372  0.68275702  0.52659631
   0.42775035  0.51609027  0.68747753
   0.09441686  0.34942353  0.84835869
   0.76108378  0.18275714  0.52659631
   0.42775035  0.01609039  0.68747753
   0.09441686  0.84942359  0.84835869
   0.26108372  0.68275702  0.52659631
   0.92775035  0.51609027  0.68747753
   0.59441686  0.34942353  0.84835869
   0.26108372  0.18275714  0.52659631
   0.92775035  0.01609039  0.68747753
   0.59441692  0.84942359  0.84835869
   0.92775041  0.01609039  0.56681657
   0.59441698  0.84942353  0.72769767
   0.26108360  0.68275690  0.88857895
   0.92775041  0.51609039  0.56681657
   0.59441698  0.34942365  0.72769773
   0.26108360  0.18275702  0.88857895
   0.42775047  0.01609027  0.56681657
   0.09441709  0.84942353  0.72769767
   0.76108372  0.68275690  0.88857883
   0.42775047  0.51609039  0.56681657
   0.09441709  0.34942365  0.72769773
   0.76108372  0.18275702  0.88857895
   0.51108384  0.93275702  0.52659631
   0.17775035  0.76609027  0.68747753
   0.84441698  0.59942359  0.84835863
   0.51108384  0.43275702  0.52659631
   0.17775035  0.26609030  0.68747753
   0.84441698  0.09942365  0.84835869
   0.01108372  0.93275702  0.52659631
   0.67775035  0.76609033  0.68747753
   0.34441686  0.59942353  0.84835869
   0.01108372  0.43275702  0.52659631
   0.67775035  0.26609030  0.68747753
   0.34441686  0.09942365  0.84835869
   0.67775047  0.76609033  0.56681657
   0.34441709  0.59942365  0.72769773
   0.01108372  0.43275696  0.88857895
   0.67775047  0.26609039  0.56681657
   0.34441709  0.09942377  0.72769773
   0.01108372  0.93275696  0.88857895
   0.17775047  0.76609033  0.56681663
   0.84441709  0.59942365  0.72769773
   0.51108372  0.43275693  0.88857895
   0.17775047  0.26609039  0.56681657
   0.84441709  0.09942377  0.72769773
   0.51108372  0.93275696  0.88857895
 
 position of ions in cartesian coordinates  (Angst):
  -0.09862333  0.17082061  0.00000041
  -2.74782875  4.75937882  3.74654241
  -5.39703435  9.34793734  7.49308482
  -0.09862379  9.34793653  0.00000000
   5.19978600  0.17082276  3.74654211
   2.55058063  4.75938087  7.49308363
   7.84899143  4.75937882  0.00000032
   5.19978583  9.34793734  3.74654211
  10.49819561  0.17082276  7.49308363
  -2.74782875  4.75937882  0.93663590
  -5.39703388  9.34793653  4.68317825
  -0.09862363  0.17082112  8.42972036
   5.19978694  0.17082112  0.93663545
   2.55058158  4.75937923  4.68317764
  -0.09862474  9.34793899  8.42972036
   5.19978583  9.34793734  0.93663614
  10.49819561  0.17082276  4.68317825
   7.84899120  4.75937923  8.42971914
  -0.09862370  4.75937882  0.00000032
  -2.74782908  9.34793734  3.74654241
   2.55058048  0.17082276  7.49308482
   7.84899077  0.17082077  0.00000047
   5.19978520  4.75937923  3.74654241
   2.55057936  9.34793816  7.49308482
   7.84899135  9.34793653  0.00000000
  13.14740067  0.17082276  3.74654180
  10.49819530  4.75938087  7.49308482
  -2.74782908  9.34793734  0.93663523
   2.55058071  0.17082276  4.68317673
  -0.09862537  4.75938252  8.42971914
   5.19978616  4.75937923  0.93663523
   2.55058079  9.34793734  4.68317764
   7.84899058  0.17082276  8.42971914
  13.14740161  0.17082112  0.93663448
  10.49819625  4.75937923  4.68317673
   7.84899089  9.34793734  8.42971914
  -4.07243120  7.05365747  0.00000030
  -6.72163656 11.64221557  3.74654180
  -1.42322678  2.46510100  7.49308482
   3.87518414  2.46509956  0.00000032
   1.22597842  7.05365829  3.74654241
  -1.42322695 11.64221640  7.49308482
   3.87518362 11.64221557  0.00000000
   9.17359340  2.46510100  3.74654180
   6.52438804  7.05366076  7.49308482
  -6.72163656 11.64221557  0.93663523
  -1.42322678  2.46510100  4.68317703
  -4.07243310  7.05366076  8.42971914
   1.22597889  7.05365747  0.93663523
  -1.42322647 11.64221557  4.68317703
   3.87518284  2.46510265  8.42972036
   9.17359459  2.46509894  0.93663515
   6.52438899  7.05365747  4.68317734
   3.87518315 11.64221640  8.42972036
  -4.07243129 11.64221557  0.00000061
   1.22597944  2.46509936  3.74654180
  -1.42322687  7.05365910  7.49308363
   3.87518299  7.05365747  0.00000028
   1.22597715 11.64221640  3.74654241
   6.52438837  2.46510100  7.49308363
  11.82279821  2.46509977  0.00000061
   9.17359261  7.05365829  3.74654241
   6.52438678 11.64221721  7.49308363
   1.22597969  2.46509855  0.93663598
  -1.42322568  7.05365665  4.68317855
  -4.07243104 11.64221476  8.42972036
   1.22597810 11.64221476  0.93663606
   6.52438741  2.46510100  4.68317855
   3.87518299  7.05365747  8.42972036
   9.17359404  7.05365747  0.93663545
   6.52438868 11.64221557  4.68317764
  11.82279846  2.46510100  8.42971914
   2.69750482  9.39860883 10.69201691
  -1.27630449  7.10432979 13.95855089
  10.64511696  4.81004991 17.22508246
   6.67131097  2.51577496 10.69201691
   2.69750214  0.22149508 13.95855089
   6.67130892 11.69288707 17.22508368
  -5.25011174  9.39860966 10.69201691
   6.67130971  7.10432979 13.95855089
   2.69750088  4.81004991 17.22508368
  -1.27630511  2.51577496 10.69201691
  10.64511633  0.22149508 13.95855089
  -1.27630716 11.69288707 17.22508368
  10.64511823  0.22149345 11.50865070
  -1.27630291 11.69288626 14.77518227
  -5.25011221  9.39860720 18.04171625
   6.67131019  7.10433060 11.50865070
   2.69750372  4.81005155 14.77518227
  -1.27630511  2.51577168 18.04171625
   2.69750309  0.22149345 11.50865070
   6.67130939 11.69288626 14.77518227
   2.69750198  9.39860720 18.04171625
  -1.27630495  7.10433060 11.50865070
  10.64511602  4.81005155 14.77518227
   6.67130908  2.51577168 18.04171625
   4.68440576 12.84002783 10.69201691
   0.71059836 10.54574877 13.95855089
  -3.26321001  8.25146809 17.22508368
   8.65821429  5.95719149 10.69201691
   4.68440616  3.66291203 13.95855089
   0.71059662  1.36863338 17.22508368
  -3.26320795 12.84002701 10.69201691
   8.65821302 10.54574796 13.95855089
   4.68440419  8.25146809 17.22508368
   0.71059914  5.95719149 10.69201691
  12.63202035  3.66291203 13.95855089
   8.65821175  1.36863338 17.22508368
   8.65821350 10.54574877 11.50864949
   4.68440561  8.25146890 14.77518227
   0.71059820  5.95718985 18.04171625
  12.63202060  3.66291325 11.50864949
   8.65821271  1.36863338 14.77518227
  -3.26320985 12.84002701 18.04171625
   0.71060072 10.54574796 11.50864949
  -3.26320669  8.25146890 14.77518105
   8.65821452  5.95718944 18.04171625
   4.68440734  3.66291325 11.50864949
   0.71060041  1.36863338 14.77518227
   4.68440624 12.84002701 18.04171625
   6.67130955  9.39860966 10.69201691
   2.69750261  7.10432979 13.95855089
  -1.27630622  4.81004991 17.22508368
  10.64511713  2.51577496 10.69201691
   6.67130924  0.22149508 13.95855089
  -5.25011426 11.69288707 17.22508368
  -1.27630464  9.39860966 10.69201691
  10.64511680  7.10432979 13.95855089
   6.67130797  4.81004991 17.22508368
   2.69750198  2.51577496 10.69201691
  14.61892343  0.22149508 13.95855089
   2.69750087 11.69288707 17.22508368
  14.61892439  0.22149508 11.50864949
   2.69750229 11.69288626 14.77518105
  -1.27630559  9.39860802 18.04171625
  10.64511681  7.10433143 11.50864949
   6.67130892  4.81005155 14.77518227
   2.69750104  2.51577332 18.04171625
   6.67131208  0.22149345 11.50864949
  -5.25011001 11.69288626 14.77518105
   6.67131049  9.39860802 18.04171384
   2.69750356  7.10433143 11.50864949
  -1.27630338  4.81005155 14.77518227
  10.64511712  2.51577332 18.04171625
   0.71060056 12.84002783 10.69201691
  -3.26320827 10.54574796 13.95855089
   8.65821271  8.25146890 17.22508246
   4.68440813  5.95719149 10.69201691
   0.71059906  3.66291203 13.95855089
  12.63201980  1.36863338 17.22508368
  -7.23701553 12.84002783 10.69201691
   4.68440545 10.54574877 13.95855089
   0.71059709  8.25146809 17.22508368
  -3.26320795  5.95719149 10.69201691
   8.65821326  3.66291203 13.95855089
   4.68440372  1.36863338 17.22508368
   4.68440734 10.54574877 11.50864949
   0.71059993  8.25146972 14.77518227
  -3.26320748  5.95719066 18.04171625
   8.65821444  3.66291325 11.50864949
   4.68440656  1.36863502 14.77518227
  -7.23701505 12.84002701 18.04171625
  -3.26320685 10.54574877 11.50865070
   8.65821412  8.25146972 14.77518227
   4.68440695  5.95719026 18.04171625
   0.71060025  3.66291325 11.50864949
  12.63202075  1.36863502 14.77518227
   0.71059914 12.84002701 18.04171625
 


--------------------------------------------------------------------------------------------------------


 k-point     1 :   0.0000 0.0000 0.0000  plane waves:  186879
 k-point     2 :   0.5000 0.0000 0.0000  plane waves:  186842
 k-point     3 :   0.0000 0.5000 0.0000  plane waves:  186842
 k-point     4 :   0.5000 0.5000 0.0000  plane waves:  186842
 k-point     5 :   0.0000 0.0000 0.5000  plane waves:  186880
 k-point     6 :   0.5000 0.0000 0.5000  plane waves:  186856
 k-point     7 :   0.0000 0.5000 0.5000  plane waves:  186856
 k-point     8 :   0.5000 0.5000 0.5000  plane waves:  186856

 maximum and minimum number of plane-waves per node :     11726    11620

 maximum number of plane-waves:    186880
 maximum index in each direction: 
   IXMAX=   34   IYMAX=   34   IZMAX=   43
   IXMIN=  -34   IYMIN=  -34   IZMIN=  -44


 real space projection operators:
  total allocation   :      71186.38 KBytes
  max/ min on nodes  :       4693.61       3855.11


 parallel 3D FFT for wavefunctions:
    minimum data exchange during FFTs selected (reduces bandwidth)
 parallel 3D FFT for charge:
    minimum data exchange during FFTs selected (reduces bandwidth)


 total amount of memory used by VASP MPI-rank0   422222. kBytes
=======================================================================

   base      :      30000. kBytes
   nonlr-proj:      23074. kBytes
   fftplans  :      34260. kBytes
   grid      :      27955. kBytes
   one-center:        178. kBytes
   wavefun   :     306755. kBytes
 
     INWAV:  cpu time      0.0000: real time      0.0003
 Broyden mixing: mesh for mixing (old mesh)
   NGX = 69   NGY = 69   NGZ = 87
  (NGX  =216   NGY  =216   NGZ  =280)
  gives a total of 414207 points

 initial charge density was supplied:
 charge density of overlapping atoms calculated
 number of electron     672.0000000 magnetization       1.0000000
 keeping initial charge density in first step


--------------------------------------------------------------------------------------------------------


 Maximum index for non-local projection operator          416
 Maximum index for augmentation-charges         4666 (set IRDMAX)


--------------------------------------------------------------------------------------------------------


 First call to EWALD:  gamma=   0.108
 Maximum number of real-space cells 3x 3x 2
 Maximum number of reciprocal cells 3x 3x 3

    FEWALD:  cpu time      0.0046: real time      0.0046


--------------------------------------- Ionic step        1  -------------------------------------------




--------------------------------------- Iteration      1(   1)  ---------------------------------------


    POTLOK:  cpu time      0.4499: real time      0.4550
    SETDIJ:  cpu time      2.5669: real time      2.5849
     EDDAV:  cpu time     77.5874: real time     78.5347
       DOS:  cpu time      0.0030: real time      0.0030
    --------------------------------------------
      LOOP:  cpu time     80.6072: real time     81.5777

 eigenvalue-minimisations  : 12928
 total energy-change (2. order) : 0.3404581E+04  (-0.2827636E+05)
 number of electron     672.0000000 magnetization       1.0000000
 augmentation part      672.0000000 magnetization       1.0000000

 Free energy of the ion-electron system (eV)
  ---------------------------------------------------
  alpha Z        PSCENC =      1034.43981023
  Ewald energy   TEWEN  =    -14154.70064745
  -Hartree energ DENC   =     -4384.11930536
  -exchange      EXHF   =         0.00000000
  -V(xc)+E(xc)   XCENC  =     -9232.53428690
  PAW double counting   =     22099.84193803   -11791.56227843
  entropy T*S    EENTRO =        -0.00168280
  eigenvalues    EBANDS =      2979.41909707
  atomic energy  EATOM  =     16853.79812076
  Solvation  Ediel_sol  =         0.00000000
  ---------------------------------------------------
  free energy    TOTEN  =      3404.58076516 eV

  energy without entropy =     3404.58244796  energy(sigma->0) =     3404.58160656


--------------------------------------------------------------------------------------------------------




--------------------------------------- Iteration      1(   2)  ---------------------------------------


     EDDAV:  cpu time     87.6869: real time     88.5865
       DOS:  cpu time      0.0033: real time      0.0033
    --------------------------------------------
      LOOP:  cpu time     87.6902: real time     88.5899

 eigenvalue-minimisations  : 15112
 total energy-change (2. order) :-0.3675742E+04  (-0.3552304E+04)
 number of electron     672.0000000 magnetization       1.0000000
 augmentation part      672.0000000 magnetization       1.0000000

 Free energy of the ion-electron system (eV)
  ---------------------------------------------------
  alpha Z        PSCENC =      1034.43981023
  Ewald energy   TEWEN  =    -14154.70064745
  -Hartree energ DENC   =     -4384.11930536
  -exchange      EXHF   =         0.00000000
  -V(xc)+E(xc)   XCENC  =     -9232.53428690
  PAW double counting   =     22099.84193803   -11791.56227843
  entropy T*S    EENTRO =        -0.00204833
  eigenvalues    EBANDS =      -696.32208477
  atomic energy  EATOM  =     16853.79812076
  Solvation  Ediel_sol  =         0.00000000
  ---------------------------------------------------
  free energy    TOTEN  =      -271.16078221 eV

  energy without entropy =     -271.15873388  energy(sigma->0) =     -271.15975804


--------------------------------------------------------------------------------------------------------




--------------------------------------- Iteration      1(   3)  ---------------------------------------


     EDDAV:  cpu time     91.4806: real time     92.4314
       DOS:  cpu time      0.0033: real time      0.0033
    --------------------------------------------
      LOOP:  cpu time     91.4839: real time     92.4347

 eigenvalue-minimisations  : 15936
 total energy-change (2. order) :-0.4034595E+03  (-0.3911980E+03)
 number of electron     672.0000000 magnetization       1.0000000
 augmentation part      672.0000000 magnetization       1.0000000

 Free energy of the ion-electron system (eV)
  ---------------------------------------------------
  alpha Z        PSCENC =      1034.43981023
  Ewald energy   TEWEN  =    -14154.70064745
  -Hartree energ DENC   =     -4384.11930536
  -exchange      EXHF   =         0.00000000
  -V(xc)+E(xc)   XCENC  =     -9232.53428690
  PAW double counting   =     22099.84193803   -11791.56227843
  entropy T*S    EENTRO =        -0.00065450
  eigenvalues    EBANDS =     -1099.78302727
  atomic energy  EATOM  =     16853.79812076
  Solvation  Ediel_sol  =         0.00000000
  ---------------------------------------------------
  free energy    TOTEN  =      -674.62033088 eV

  energy without entropy =     -674.61967638  energy(sigma->0) =     -674.62000363


--------------------------------------------------------------------------------------------------------




--------------------------------------- Iteration      1(   4)  ---------------------------------------


     EDDAV:  cpu time     90.0213: real time     91.1105
       DOS:  cpu time      0.0041: real time      0.0041
    --------------------------------------------
      LOOP:  cpu time     90.0253: real time     91.1146

 eigenvalue-minimisations  : 15656
 total energy-change (2. order) :-0.1659724E+02  (-0.1628252E+02)
 number of electron     672.0000000 magnetization       1.0000000
 augmentation part      672.0000000 magnetization       1.0000000

 Free energy of the ion-electron system (eV)
  ---------------------------------------------------
  alpha Z        PSCENC =      1034.43981023
  Ewald energy   TEWEN  =    -14154.70064745
  -Hartree energ DENC   =     -4384.11930536
  -exchange      EXHF   =         0.00000000
  -V(xc)+E(xc)   XCENC  =     -9232.53428690
  PAW double counting   =     22099.84193803   -11791.56227843
  entropy T*S    EENTRO =        -0.00218960
  eigenvalues    EBANDS =     -1116.37873425
  atomic energy  EATOM  =     16853.79812076
  Solvation  Ediel_sol  =         0.00000000
  ---------------------------------------------------
  free energy    TOTEN  =      -691.21757296 eV

  energy without entropy =     -691.21538336  energy(sigma->0) =     -691.21647816


--------------------------------------------------------------------------------------------------------




--------------------------------------- Iteration      1(   5)  ---------------------------------------


     EDDAV:  cpu time     95.6888: real time     96.8450
       DOS:  cpu time      0.0028: real time      0.0028
    CHARGE:  cpu time      4.5533: real time      4.6187
    MIXING:  cpu time      0.0176: real time      0.0178
    --------------------------------------------
      LOOP:  cpu time    100.2625: real time    101.4843

 eigenvalue-minimisations  : 16896
 total energy-change (2. order) :-0.6687615E+00  (-0.6638680E+00)
 number of electron     671.9999993 magnetization       1.0000000
 augmentation part     -141.4134929 magnetization      -0.1336986

 Broyden mixing:
  rms(total) = 0.28888E+01    rms(broyden)= 0.28888E+01
  rms(prec ) = 0.30924E+01
  weight for this iteration     100.00

 Free energy of the ion-electron system (eV)
  ---------------------------------------------------
  alpha Z        PSCENC =      1034.43981023
  Ewald energy   TEWEN  =    -14154.70064745
  -Hartree energ DENC   =     -4384.11930536
  -exchange      EXHF   =         0.00000000
  -V(xc)+E(xc)   XCENC  =     -9232.53428690
  PAW double counting   =     22099.84193803   -11791.56227843
  entropy T*S    EENTRO =        -0.00226761
  eigenvalues    EBANDS =     -1117.04741776
  atomic energy  EATOM  =     16853.79812076
  Solvation  Ediel_sol  =         0.00000000
  ---------------------------------------------------
  free energy    TOTEN  =      -691.88633448 eV

  energy without entropy =     -691.88406687  energy(sigma->0) =     -691.88520068


--------------------------------------------------------------------------------------------------------




--------------------------------------- Iteration      1(   6)  ---------------------------------------


    POTLOK:  cpu time      0.4351: real time      0.4397
    SETDIJ:  cpu time      2.5605: real time      2.5792
     EDDAV:  cpu time    108.0984: real time    109.4263
       DOS:  cpu time      0.0030: real time      0.0030
    CHARGE:  cpu time      4.6550: real time      4.7135
    MIXING:  cpu time      0.0212: real time      0.0213
    --------------------------------------------
      LOOP:  cpu time    115.7732: real time    117.1831

 eigenvalue-minimisations  : 19632
 total energy-change (2. order) : 0.9097153E+01  (-0.1765135E+01)
 number of electron     671.9999993 magnetization       1.0000000
 augmentation part     -141.4999775 magnetization      -0.1090963

 Broyden mixing:
  rms(total) = 0.14180E+01    rms(broyden)= 0.14180E+01
  rms(prec ) = 0.15502E+01
  weight for this iteration     100.00

 eigenvalues of (default mixing * dielectric matrix)
  average eigenvalue GAMMA=   1.7742
  1.7742

 Free energy of the ion-electron system (eV)
  ---------------------------------------------------
  alpha Z        PSCENC =      1034.43981023
  Ewald energy   TEWEN  =    -14154.70064745
  -Hartree energ DENC   =     -4552.84186499
  -exchange      EXHF   =         0.00000000
  -V(xc)+E(xc)   XCENC  =     -9204.81515036
  PAW double counting   =     31567.07379399   -21280.88804675
  entropy T*S    EENTRO =        -0.00640007
  eigenvalues    EBANDS =      -944.84879669
  atomic energy  EATOM  =     16853.79812076
  Solvation  Ediel_sol  =         0.00000000
  ---------------------------------------------------
  free energy    TOTEN  =      -682.78918133 eV

  energy without entropy =     -682.78278126  energy(sigma->0) =     -682.78598130


--------------------------------------------------------------------------------------------------------




--------------------------------------- Iteration      1(   7)  ---------------------------------------


    POTLOK:  cpu time      0.4358: real time      0.4411
    SETDIJ:  cpu time      2.5676: real time      2.5862
     EDDAV:  cpu time     93.6072: real time     94.7445
       DOS:  cpu time      0.0032: real time      0.0032
    CHARGE:  cpu time      4.6376: real time      4.6961
    MIXING:  cpu time      0.0211: real time      0.0212
    --------------------------------------------
      LOOP:  cpu time    101.2726: real time    102.4924

 eigenvalue-minimisations  : 16440
 total energy-change (2. order) :-0.2861914E+00  (-0.1893527E+01)
 number of electron     671.9999993 magnetization       1.0000000
 augmentation part     -140.5669598 magnetization      -0.1298018

 Broyden mixing:
  rms(total) = 0.57437E+00    rms(broyden)= 0.57437E+00
  rms(prec ) = 0.90776E+00
  weight for this iteration     100.00

 eigenvalues of (default mixing * dielectric matrix)
  average eigenvalue GAMMA=   1.2070
  1.8739  0.5402

 Free energy of the ion-electron system (eV)
  ---------------------------------------------------
  alpha Z        PSCENC =      1034.43981023
  Ewald energy   TEWEN  =    -14154.70064745
  -Hartree energ DENC   =     -4578.20073580
  -exchange      EXHF   =         0.00000000
  -V(xc)+E(xc)   XCENC  =     -9187.18066365
  PAW double counting   =     39503.17112177   -29232.16495822
  entropy T*S    EENTRO =        -0.00235341
  eigenvalues    EBANDS =      -922.23506693
  atomic energy  EATOM  =     16853.79812076
  Solvation  Ediel_sol  =         0.00000000
  ---------------------------------------------------
  free energy    TOTEN  =      -683.07537268 eV

  energy without entropy =     -683.07301928  energy(sigma->0) =     -683.07419598


--------------------------------------------------------------------------------------------------------




--------------------------------------- Iteration      1(   8)  ---------------------------------------


    POTLOK:  cpu time      0.4369: real time      0.4413
    SETDIJ:  cpu time      2.5682: real time      2.5848
     EDDAV:  cpu time     91.9629: real time     92.9139
       DOS:  cpu time      0.0033: real time      0.0033
    CHARGE:  cpu time      4.6514: real time      4.7030
    MIXING:  cpu time      0.0166: real time      0.0167
    --------------------------------------------
      LOOP:  cpu time     99.6392: real time    100.6630

 eigenvalue-minimisations  : 16040
 total energy-change (2. order) : 0.1580572E+01  (-0.6034192E+00)
 number of electron     671.9999993 magnetization       1.0000000
 augmentation part     -140.4121144 magnetization      -0.1075132

 Broyden mixing:
  rms(total) = 0.16654E+00    rms(broyden)= 0.16654E+00
  rms(prec ) = 0.24042E+00
  weight for this iteration     100.00

 eigenvalues of (default mixing * dielectric matrix)
  average eigenvalue GAMMA=   1.0739
  1.8777  0.6829  0.6611

 Free energy of the ion-electron system (eV)
  ---------------------------------------------------
  alpha Z        PSCENC =      1034.43981023
  Ewald energy   TEWEN  =    -14154.70064745
  -Hartree energ DENC   =     -4618.35182742
  -exchange      EXHF   =         0.00000000
  -V(xc)+E(xc)   XCENC  =     -9180.62418605
  PAW double counting   =     43196.32799696   -32930.75925588
  entropy T*S    EENTRO =        -0.00392827
  eigenvalues    EBANDS =      -881.62088317
  atomic energy  EATOM  =     16853.79812076
  Solvation  Ediel_sol  =         0.00000000
  ---------------------------------------------------
  free energy    TOTEN  =      -681.49480030 eV

  energy without entropy =     -681.49087203  energy(sigma->0) =     -681.49283617


--------------------------------------------------------------------------------------------------------




--------------------------------------- Iteration      1(   9)  ---------------------------------------


    POTLOK:  cpu time      0.4349: real time      0.4384
    SETDIJ:  cpu time      2.5687: real time      2.5861
     EDDAV:  cpu time     89.8194: real time     90.7488
       DOS:  cpu time      0.0039: real time      0.0039
    CHARGE:  cpu time      4.6530: real time      4.7045
    MIXING:  cpu time      0.0195: real time      0.0196
    --------------------------------------------
      LOOP:  cpu time     97.4993: real time     98.5012

 eigenvalue-minimisations  : 15488
 total energy-change (2. order) :-0.4009725E-01  (-0.1819278E+00)
 number of electron     671.9999993 magnetization       1.0000000
 augmentation part     -140.3430155 magnetization      -0.0968864

 Broyden mixing:
  rms(total) = 0.10765E+00    rms(broyden)= 0.10765E+00
  rms(prec ) = 0.11849E+00
  weight for this iteration     100.00

 eigenvalues of (default mixing * dielectric matrix)
  average eigenvalue GAMMA=   1.1224
  1.6915  1.6915  0.5533  0.5533

 Free energy of the ion-electron system (eV)
  ---------------------------------------------------
  alpha Z        PSCENC =      1034.43981023
  Ewald energy   TEWEN  =    -14154.70064745
  -Hartree energ DENC   =     -4623.52624359
  -exchange      EXHF   =         0.00000000
  -V(xc)+E(xc)   XCENC  =     -9180.41624761
  PAW double counting   =     43699.49874232   -33434.27991900
  entropy T*S    EENTRO =        -0.00381685
  eigenvalues    EBANDS =      -876.34469636
  atomic energy  EATOM  =     16853.79812076
  Solvation  Ediel_sol  =         0.00000000
  ---------------------------------------------------
  free energy    TOTEN  =      -681.53489755 eV

  energy without entropy =     -681.53108070  energy(sigma->0) =     -681.53298913


--------------------------------------------------------------------------------------------------------




--------------------------------------- Iteration      1(  10)  ---------------------------------------


    POTLOK:  cpu time      0.4368: real time      0.4410
    SETDIJ:  cpu time      2.5714: real time      2.5887
     EDDAV:  cpu time     87.6919: real time     88.5883
       DOS:  cpu time      0.0048: real time      0.0048
    CHARGE:  cpu time      4.6570: real time      4.7079
    MIXING:  cpu time      0.0193: real time      0.0194
    --------------------------------------------
      LOOP:  cpu time     95.3811: real time     96.3501

 eigenvalue-minimisations  : 15104
 total energy-change (2. order) : 0.1830049E-02  (-0.3384514E-01)
 number of electron     671.9999993 magnetization       1.0000000
 augmentation part     -140.3671792 magnetization      -0.0974896

 Broyden mixing:
  rms(total) = 0.49540E-01    rms(broyden)= 0.49540E-01
  rms(prec ) = 0.54489E-01
  weight for this iteration     100.00

 eigenvalues of (default mixing * dielectric matrix)
  average eigenvalue GAMMA=   1.1156
  1.8748  1.8748  0.6148  0.6148  0.5989

 Free energy of the ion-electron system (eV)
  ---------------------------------------------------
  alpha Z        PSCENC =      1034.43981023
  Ewald energy   TEWEN  =    -14154.70064745
  -Hartree energ DENC   =     -4616.50075034
  -exchange      EXHF   =         0.00000000
  -V(xc)+E(xc)   XCENC  =     -9181.00250119
  PAW double counting   =     43830.68934048   -33565.22268210
  entropy T*S    EENTRO =        -0.00389100
  eigenvalues    EBANDS =      -883.02986690
  atomic energy  EATOM  =     16853.79812076
  Solvation  Ediel_sol  =         0.00000000
  ---------------------------------------------------
  free energy    TOTEN  =      -681.53306750 eV

  energy without entropy =     -681.52917650  energy(sigma->0) =     -681.53112200


--------------------------------------------------------------------------------------------------------




--------------------------------------- Iteration      1(  11)  ---------------------------------------


    POTLOK:  cpu time      0.4366: real time      0.4405
    SETDIJ:  cpu time      2.5746: real time      2.5905
     EDDAV:  cpu time     88.6411: real time     89.5681
       DOS:  cpu time      0.0026: real time      0.0026
    CHARGE:  cpu time      4.5723: real time      4.6202
    MIXING:  cpu time      0.0180: real time      0.0181
    --------------------------------------------
      LOOP:  cpu time     96.2452: real time     97.2400

 eigenvalue-minimisations  : 15352
 total energy-change (2. order) :-0.2246028E-02  (-0.4570914E-02)
 number of electron     671.9999993 magnetization       1.0000000
 augmentation part     -140.3736893 magnetization      -0.0980668

 Broyden mixing:
  rms(total) = 0.26695E-01    rms(broyden)= 0.26695E-01
  rms(prec ) = 0.28459E-01
  weight for this iteration     100.00

 eigenvalues of (default mixing * dielectric matrix)
  average eigenvalue GAMMA=   1.0438
  1.8442  1.8442  0.6755  0.6755  0.6706  0.5525

 Free energy of the ion-electron system (eV)
  ---------------------------------------------------
  alpha Z        PSCENC =      1034.43981023
  Ewald energy   TEWEN  =    -14154.70064745
  -Hartree energ DENC   =     -4613.46747825
  -exchange      EXHF   =         0.00000000
  -V(xc)+E(xc)   XCENC  =     -9181.11359279
  PAW double counting   =     43985.49742668   -33720.01667479
  entropy T*S    EENTRO =        -0.00385486
  eigenvalues    EBANDS =      -885.96842306
  atomic energy  EATOM  =     16853.79812076
  Solvation  Ediel_sol  =         0.00000000
  ---------------------------------------------------
  free energy    TOTEN  =      -681.53531353 eV

  energy without entropy =     -681.53145867  energy(sigma->0) =     -681.53338610


--------------------------------------------------------------------------------------------------------




--------------------------------------- Iteration      1(  12)  ---------------------------------------


    POTLOK:  cpu time      0.4336: real time      0.4380
    SETDIJ:  cpu time      2.5769: real time      2.5932
     EDDAV:  cpu time     85.4726: real time     86.3577
       DOS:  cpu time      0.0045: real time      0.0045
    CHARGE:  cpu time      4.6015: real time      4.6503
    MIXING:  cpu time      0.0183: real time      0.0184
    --------------------------------------------
      LOOP:  cpu time     93.1073: real time     94.0622

 eigenvalue-minimisations  : 14648
 total energy-change (2. order) : 0.4442574E-03  (-0.9098624E-03)
 number of electron     671.9999993 magnetization       1.0000000
 augmentation part     -140.3743578 magnetization      -0.1004678

 Broyden mixing:
  rms(total) = 0.16647E-01    rms(broyden)= 0.16647E-01
  rms(prec ) = 0.17033E-01
  weight for this iteration     100.00

 eigenvalues of (default mixing * dielectric matrix)
  average eigenvalue GAMMA=   1.0196
  1.8251  1.8251  0.8867  0.8867  0.6115  0.6115  0.4904

 Free energy of the ion-electron system (eV)
[...]
   -.315E+00 0.140E+00 -.848E+01   -.471E-01 0.240E-02 0.876E+01   0.907E-01 -.369E-01 -.382E+00   -.119E-05 -.732E-05 -.370E-04
   0.664E+01 -.197E+00 -.782E+02   -.635E+01 0.382E+00 0.778E+02   -.278E+00 -.822E-01 -.335E+00   -.185E-04 0.921E-05 0.439E-04
   -.387E+01 0.662E+01 0.811E+02   0.411E+01 -.626E+01 -.811E+02   -.168E+00 -.146E+00 0.122E+00   0.605E-05 -.749E-05 -.147E-05
   0.102E+00 -.319E+00 0.872E+01   0.295E-01 -.434E-01 -.878E+01   -.367E-01 0.882E-01 0.153E+00   -.363E-06 0.554E-05 -.629E-04
   -.105E+01 0.214E+01 -.558E+02   0.102E+01 -.124E+01 0.554E+02   0.167E-01 -.708E+00 -.871E-01   -.281E-04 -.375E-04 0.127E-04
   -.387E+01 0.662E+01 0.811E+02   0.411E+01 -.626E+01 -.811E+02   -.168E+00 -.146E+00 0.122E+00   0.298E-05 0.430E-05 0.416E-05
   0.102E+00 -.319E+00 0.872E+01   0.295E-01 -.434E-01 -.878E+01   -.367E-01 0.882E-01 0.153E+00   0.395E-05 -.955E-05 -.483E-04
   -.105E+01 0.214E+01 -.558E+02   0.102E+01 -.124E+01 0.554E+02   0.167E-01 -.708E+00 -.871E-01   -.105E-04 0.722E-05 0.221E-04
   -.387E+01 0.662E+01 0.811E+02   0.411E+01 -.626E+01 -.811E+02   -.168E+00 -.146E+00 0.122E+00   0.265E-05 -.103E-04 -.189E-05
   0.102E+00 -.319E+00 0.872E+01   0.295E-01 -.434E-01 -.878E+01   -.367E-01 0.882E-01 0.153E+00   0.899E-05 0.345E-05 -.667E-04
   -.105E+01 0.214E+01 -.558E+02   0.102E+01 -.124E+01 0.554E+02   0.167E-01 -.708E+00 -.871E-01   -.294E-04 -.301E-04 0.387E-05
   -.387E+01 0.662E+01 0.811E+02   0.411E+01 -.626E+01 -.811E+02   -.168E+00 -.146E+00 0.122E+00   0.113E-04 -.217E-05 -.390E-05
   0.102E+00 -.319E+00 0.872E+01   0.294E-01 -.435E-01 -.878E+01   -.367E-01 0.882E-01 0.153E+00   0.209E-05 -.307E-05 -.258E-04
   -.105E+01 0.214E+01 -.558E+02   0.102E+01 -.124E+01 0.554E+02   0.167E-01 -.708E+00 -.871E-01   0.561E-05 0.384E-05 0.244E-04
   -.162E+01 0.241E+01 0.563E+02   0.114E+01 -.174E+01 -.558E+02   0.527E+00 -.481E+00 -.396E-01   0.262E-05 -.208E-04 -.188E-04
   0.747E-01 -.331E+00 -.858E+01   0.278E-01 -.358E-01 0.877E+01   -.468E-01 0.968E-01 -.277E+00   -.814E-05 -.811E-05 -.652E-04
   -.414E+01 0.475E+01 -.799E+02   0.370E+01 -.445E+01 0.796E+02   0.166E+00 -.846E-01 0.593E-01   -.452E-05 -.417E-04 0.527E-04
   -.162E+01 0.241E+01 0.563E+02   0.114E+01 -.174E+01 -.558E+02   0.527E+00 -.481E+00 -.396E-01   -.140E-04 -.107E-04 0.499E-06
   0.747E-01 -.331E+00 -.858E+01   0.278E-01 -.360E-01 0.877E+01   -.468E-01 0.968E-01 -.277E+00   -.105E-04 0.660E-05 -.386E-04
   -.414E+01 0.475E+01 -.799E+02   0.370E+01 -.445E+01 0.796E+02   0.166E+00 -.846E-01 0.593E-01   -.642E-05 0.161E-04 0.492E-04
   -.162E+01 0.241E+01 0.563E+02   0.114E+01 -.174E+01 -.558E+02   0.527E+00 -.481E+00 -.396E-01   -.111E-04 -.104E-04 -.219E-04
   0.747E-01 -.331E+00 -.858E+01   0.277E-01 -.359E-01 0.877E+01   -.468E-01 0.968E-01 -.277E+00   -.181E-04 -.131E-04 -.548E-04
   -.414E+01 0.475E+01 -.799E+02   0.370E+01 -.445E+01 0.796E+02   0.166E+00 -.846E-01 0.593E-01   0.201E-04 -.352E-04 0.506E-04
   -.162E+01 0.241E+01 0.563E+02   0.114E+01 -.174E+01 -.558E+02   0.527E+00 -.481E+00 -.396E-01   -.234E-05 -.950E-05 -.143E-04
   0.747E-01 -.331E+00 -.858E+01   0.277E-01 -.360E-01 0.877E+01   -.468E-01 0.968E-01 -.277E+00   -.145E-04 0.355E-05 -.329E-04
   -.414E+01 0.475E+01 -.799E+02   0.370E+01 -.445E+01 0.796E+02   0.166E+00 -.846E-01 0.593E-01   -.155E-05 0.319E-04 0.496E-04
 -----------------------------------------------------------------------------------------------
   -.221E+01 -.498E+00 0.568E+01   0.551E-13 0.199E-12 -.108E-11   0.198E+01 0.589E-01 -.553E+01   -.101E-05 0.295E-06 0.380E-04
 
 
 POSITION                                       TOTAL-FORCE (eV/Angst)
 -----------------------------------------------------------------------------------
     -0.09862      0.17082      0.00000        -0.055141      0.092494      0.368534
     -2.74783      4.75938      3.74654         0.093046     -0.101404      0.144735
     -5.39703      9.34794      7.49308        -0.049852     -0.002997      0.662402
     -0.09862      9.34794      0.00000         0.249993      0.103046      0.944676
      5.19979      0.17082      3.74654         0.063510      0.111625      0.153831
      2.55058      4.75938      7.49308         0.005710     -0.025677     -0.594982
      7.84899      4.75938      0.00000         0.105023     -0.162279      0.250722
      5.19979      9.34794      3.74654        -0.108842     -0.017194      0.111896
     10.49820      0.17082      7.49308        -0.041033      0.037312     -0.743541
     -2.74783      4.75938      0.93664        -0.107455      0.109415      0.259196
     -5.39703      9.34794      4.68318        -0.006834      0.003957     -0.394732
     -0.09862      0.17082      8.42972         0.341270     -0.395917     -0.514807
      5.19979      0.17082      0.93664        -0.077210     -0.108818      0.223339
      2.55058      4.75938      4.68318        -0.002848      0.018399     -0.066920
     -0.09862      9.34794      8.42972        -0.232501     -0.082324     -0.969387
      5.19979      9.34794      0.93664         0.176216     -0.015230      0.334309
     10.49820      0.17082      4.68318         0.010890      0.006704     -0.029890
      7.84899      4.75938      8.42972         0.212796      0.538995     -0.250391
     -0.09862      4.75938      0.00000         0.105023     -0.162279      0.250722
     -2.74783      9.34794      3.74654        -0.108842     -0.017194      0.111896
      2.55058      0.17082      7.49308        -0.041033      0.037312     -0.743541
      7.84899      0.17082      0.00000        -0.055141      0.092494      0.368534
      5.19979      4.75938      3.74654         0.093046     -0.101404      0.144735
      2.55058      9.34794      7.49308        -0.049852     -0.002997      0.662402
      7.84899      9.34794      0.00000         0.249993      0.103046      0.944676
     13.14740      0.17082      3.74654         0.063510      0.111625      0.153831
     10.49820      4.75938      7.49308         0.005710     -0.025677     -0.594982
     -2.74783      9.34794      0.93664         0.176216     -0.015230      0.334309
      2.55058      0.17082      4.68318         0.010890      0.006704     -0.029890
     -0.09863      4.75938      8.42972         0.212796      0.538995     -0.250391
      5.19979      4.75938      0.93664        -0.107455      0.109415      0.259196
      2.55058      9.34794      4.68318        -0.006834      0.003957     -0.394732
      7.84899      0.17082      8.42972         0.341270     -0.395917     -0.514807
     13.14740      0.17082      0.93663        -0.077210     -0.108818      0.223339
     10.49820      4.75938      4.68318        -0.002848      0.018399     -0.066920
      7.84899      9.34794      8.42972        -0.232501     -0.082324     -0.969387
     -4.07243      7.05366      0.00000        -0.055141      0.092494      0.368534
     -6.72164     11.64222      3.74654         0.093046     -0.101404      0.144735
     -1.42323      2.46510      7.49308        -0.049852     -0.002997      0.662402
      3.87518      2.46510      0.00000         0.249993      0.103046      0.944676
      1.22598      7.05366      3.74654         0.063510      0.111625      0.153831
     -1.42323     11.64222      7.49308         0.005710     -0.025677     -0.594982
      3.87518     11.64222      0.00000         0.105023     -0.162279      0.250722
      9.17359      2.46510      3.74654        -0.108842     -0.017194      0.111896
      6.52439      7.05366      7.49308        -0.041033      0.037312     -0.743541
     -6.72164     11.64222      0.93664        -0.107455      0.109415      0.259196
     -1.42323      2.46510      4.68318        -0.006834      0.003957     -0.394732
     -4.07243      7.05366      8.42972         0.341270     -0.395917     -0.514807
      1.22598      7.05366      0.93664        -0.077210     -0.108818      0.223339
     -1.42323     11.64222      4.68318        -0.002848      0.018399     -0.066920
      3.87518      2.46510      8.42972        -0.232501     -0.082324     -0.969387
      9.17359      2.46510      0.93664         0.176216     -0.015230      0.334309
      6.52439      7.05366      4.68318         0.010890      0.006704     -0.029890
      3.87518     11.64222      8.42972         0.212796      0.538995     -0.250391
     -4.07243     11.64222      0.00000         0.105023     -0.162279      0.250722
      1.22598      2.46510      3.74654        -0.108842     -0.017194      0.111896
     -1.42323      7.05366      7.49308        -0.041033      0.037312     -0.743541
      3.87518      7.05366      0.00000        -0.055141      0.092494      0.368534
      1.22598     11.64222      3.74654         0.093046     -0.101404      0.144735
      6.52439      2.46510      7.49308        -0.049852     -0.002997      0.662402
     11.82280      2.46510      0.00000         0.249993      0.103046      0.944676
      9.17359      7.05366      3.74654         0.063510      0.111625      0.153831
      6.52439     11.64222      7.49308         0.005710     -0.025677     -0.594982
      1.22598      2.46510      0.93664         0.176216     -0.015230      0.334309
     -1.42323      7.05366      4.68318         0.010890      0.006704     -0.029890
     -4.07243     11.64221      8.42972         0.212796      0.538995     -0.250391
      1.22598     11.64221      0.93664        -0.107455      0.109415      0.259196
      6.52439      2.46510      4.68318        -0.006834      0.003957     -0.394732
      3.87518      7.05366      8.42972         0.341270     -0.395917     -0.514807
      9.17359      7.05366      0.93664        -0.077210     -0.108818      0.223339
      6.52439     11.64222      4.68318        -0.002848      0.018399     -0.066920
     11.82280      2.46510      8.42972        -0.232501     -0.082324     -0.969387
      2.69750      9.39861     10.69202         0.043650      0.052247     -0.457040
     -1.27630      7.10433     13.95855        -0.010377     -0.023396     -0.119855
     10.64512      4.81005     17.22508         0.010559     -0.032209     -0.156752
      6.67131      2.51577     10.69202         0.043650      0.052247     -0.457040
      2.69750      0.22150     13.95855        -0.010377     -0.023396     -0.119855
      6.67131     11.69289     17.22508         0.010559     -0.032209     -0.156752
     -5.25011      9.39861     10.69202         0.043650      0.052247     -0.457040
      6.67131      7.10433     13.95855        -0.010377     -0.023396     -0.119855
      2.69750      4.81005     17.22508         0.010559     -0.032209     -0.156752
     -1.27631      2.51577     10.69202         0.043650      0.052247     -0.457040
     10.64512      0.22150     13.95855        -0.010377     -0.023396     -0.119855
     -1.27631     11.69289     17.22508         0.010559     -0.032209     -0.156752
     10.64512      0.22149     11.50865        -0.006467      0.030350      0.343992
     -1.27630     11.69289     14.77518        -0.037904     -0.000912     -0.035565
     -5.25011      9.39861     18.04172         0.040154     -0.016882      1.043386
      6.67131      7.10433     11.50865        -0.006467      0.030350      0.343992
      2.69750      4.81005     14.77518        -0.037904     -0.000912     -0.035565
     -1.27631      2.51577     18.04172         0.040154     -0.016882      1.043386
      2.69750      0.22149     11.50865        -0.006467      0.030350      0.343992
      6.67131     11.69289     14.77518        -0.037904     -0.000912     -0.035565
      2.69750      9.39861     18.04172         0.040154     -0.016882      1.043386
     -1.27630      7.10433     11.50865        -0.006467      0.030350      0.343992
     10.64512      4.81005     14.77518        -0.037904     -0.000912     -0.035565
      6.67131      2.51577     18.04172         0.040154     -0.016882      1.043386
      4.68441     12.84003     10.69202        -0.354205     -0.166706     -0.105705
      0.71060     10.54575     13.95855         0.199072      0.165509      0.121447
     -3.26321      8.25147     17.22508        -0.162253     -0.075800     -0.484684
      8.65821      5.95719     10.69202        -0.354205     -0.166706     -0.105705
      4.68441      3.66291     13.95855         0.199072      0.165509      0.121447
      0.71060      1.36863     17.22508        -0.162253     -0.075800     -0.484684
     -3.26321     12.84003     10.69202        -0.354205     -0.166706     -0.105705
      8.65821     10.54575     13.95855         0.199072      0.165509      0.121447
      4.68440      8.25147     17.22508        -0.162253     -0.075800     -0.484684
      0.71060      5.95719     10.69202        -0.354205     -0.166706     -0.105705
     12.63202      3.66291     13.95855         0.199072      0.165509      0.121447
      8.65821      1.36863     17.22508        -0.162253     -0.075800     -0.484684
      8.65821     10.54575     11.50865        -0.188029     -0.036653      0.384575
      4.68441      8.25147     14.77518         0.187479      0.178382     -0.048221
      0.71060      5.95719     18.04172        -0.047452     -0.315234     -0.057966
     12.63202      3.66291     11.50865        -0.188029     -0.036653      0.384575
      8.65821      1.36863     14.77518         0.187479      0.178382     -0.048221
     -3.26321     12.84003     18.04172        -0.047452     -0.315234     -0.057966
      0.71060     10.54575     11.50865        -0.188029     -0.036653      0.384575
     -3.26321      8.25147     14.77518         0.187479      0.178382     -0.048221
      8.65821      5.95719     18.04172        -0.047452     -0.315234     -0.057966
      4.68441      3.66291     11.50865        -0.188029     -0.036653      0.384575
      0.71060      1.36863     14.77518         0.187479      0.178382     -0.048221
      4.68441     12.84003     18.04172        -0.047452     -0.315234     -0.057966
      6.67131      9.39861     10.69202         0.009923     -0.182034      0.647179
      2.69750      7.10433     13.95855        -0.267927      0.062572      0.139901
     -1.27631      4.81005     17.22508         0.141126     -0.131348     -0.559300
     10.64512      2.51577     10.69202         0.009923     -0.182034      0.647179
      6.67131      0.22150     13.95855        -0.267927      0.062572      0.139901
     -5.25011     11.69289     17.22508         0.141126     -0.131348     -0.559300
     -1.27630      9.39861     10.69202         0.009923     -0.182034      0.647179
     10.64512      7.10433     13.95855        -0.267927      0.062572      0.139901
      6.67131      4.81005     17.22508         0.141126     -0.131348     -0.559300
      2.69750      2.51577     10.69202         0.009923     -0.182034      0.647179
     14.61892      0.22150     13.95855        -0.267927      0.062572      0.139901
      2.69750     11.69289     17.22508         0.141126     -0.131348     -0.559300
     14.61892      0.22150     11.50865         0.140113     -0.109319      0.510234
      2.69750     11.69289     14.77518        -0.270438      0.108354     -0.100401
     -1.27631      9.39861     18.04172         0.015183      0.105886     -0.747472
     10.64512      7.10433     11.50865         0.140113     -0.109319      0.510234
      6.67131      4.81005     14.77518        -0.270438      0.108354     -0.100401
      2.69750      2.51577     18.04172         0.015183      0.105886     -0.747472
      6.67131      0.22149     11.50865         0.140113     -0.109319      0.510234
     -5.25011     11.69289     14.77518        -0.270438      0.108354     -0.100401
      6.67131      9.39861     18.04171         0.015183      0.105886     -0.747472
      2.69750      7.10433     11.50865         0.140113     -0.109319      0.510234
     -1.27630      4.81005     14.77518        -0.270438      0.108354     -0.100401
     10.64512      2.51577     18.04172         0.015183      0.105886     -0.747472
      0.71060     12.84003     10.69202         0.069479      0.209566      0.078547
     -3.26321     10.54575     13.95855         0.096172     -0.271701      0.091606
      8.65821      8.25147     17.22508        -0.009158      0.200513     -0.498580
      4.68441      5.95719     10.69202         0.069479      0.209566      0.078547
      0.71060      3.66291     13.95855         0.096172     -0.271701      0.091606
     12.63202      1.36863     17.22508        -0.009158      0.200513     -0.498580
     -7.23702     12.84003     10.69202         0.069479      0.209566      0.078547
      4.68441     10.54575     13.95855         0.096172     -0.271701      0.091606
      0.71060      8.25147     17.22508        -0.009158      0.200513     -0.498580
     -3.26321      5.95719     10.69202         0.069479      0.209566      0.078547
      8.65821      3.66291     13.95855         0.096172     -0.271701      0.091606
      4.68440      1.36863     17.22508        -0.009158      0.200513     -0.498580
      4.68441     10.54575     11.50865         0.041058      0.188351      0.455224
      0.71060      8.25147     14.77518         0.056963     -0.267593     -0.090387
     -3.26321      5.95719     18.04172        -0.273457      0.217947     -0.243155
      8.65821      3.66291     11.50865         0.041058      0.188351      0.455224
      4.68441      1.36864     14.77518         0.056963     -0.267593     -0.090387
     -7.23702     12.84003     18.04172        -0.273457      0.217947     -0.243155
     -3.26321     10.54575     11.50865         0.041058      0.188351      0.455224
      8.65821      8.25147     14.77518         0.056963     -0.267593     -0.090387
      4.68441      5.95719     18.04172        -0.273457      0.217947     -0.243155
      0.71060      3.66291     11.50865         0.041058      0.188351      0.455224
     12.63202      1.36864     14.77518         0.056963     -0.267593     -0.090387
      0.71060     12.84003     18.04172        -0.273457      0.217947     -0.243155
 -----------------------------------------------------------------------------------
    total drift:                               -0.225311     -0.439080      0.155325


--------------------------------------------------------------------------------------------------------



  FREE ENERGIE OF THE ION-ELECTRON SYSTEM (eV)
  ---------------------------------------------------
  free  energy   TOTEN  =      -681.53544882 eV

  energy  without entropy=     -681.53158873  energy(sigma->0) =     -681.53351878
 


--------------------------------------------------------------------------------------------------------


    POTLOK:  cpu time      2.9897: real time      3.0096


--------------------------------------------------------------------------------------------------------


     LOOP+:  cpu time   2137.6247: real time   2162.3496
    4ORBIT:  cpu time      0.0000: real time      0.0000

 total amount of memory used by VASP MPI-rank0   422222. kBytes
=======================================================================

   base      :      30000. kBytes
   nonlr-proj:      23074. kBytes
   fftplans  :      34260. kBytes
   grid      :      27955. kBytes
   one-center:        178. kBytes
   wavefun   :     306755. kBytes
 
  
  
 General timing and accounting informations for this job:
 ========================================================
  
                  Total CPU time used (sec):     2287.696
                            User time (sec):     2160.323
                          System time (sec):      127.373
                         Elapsed time (sec):     2316.813
  
                   Maximum memory used (kb):      748116.
                   Average memory used (kb):          N/A
  
                          Minor page faults:       383710
                          Major page faults:           38
                 Voluntary context switches:         1841
