 216 216   0   0
  0.2272619E+02  0.1600268E-08  0.1697340E-08  0.1807253E-08  0.5000000E-15
  1.000000000000000E-004
  CAR 
 Si and Ge interface calculation         
      6.94334073     -9.41191064  301      3.93135240      1.00000000
     -9.412  0.0000E+00  0.0000E+00  0.0000E+00  0.0000E+00
     -9.357  0.0000E+00  0.0000E+00  0.0000E+00  0.0000E+00
     -9.303  0.0000E+00  0.0000E+00  0.0000E+00  0.0000E+00
     -9.248  0.0000E+00  0.0000E+00  0.0000E+00  0.0000E+00
     -9.194  0.0000E+00  0.0000E+00  0.0000E+00  0.0000E+00
     -9.139  0.0000E+00  0.0000E+00  0.0000E+00  0.0000E+00
     -9.085  0.0000E+00  0.0000E+00  0.0000E+00  0.0000E+00
     -9.030  0.0000E+00  0.0000E+00  0.0000E+00  0.0000E+00
     -8.976  0.0000E+00  0.0000E+00  0.0000E+00  0.0000E+00
     -8.921  0.0000E+00  0.0000E+00  0.0000E+00  0.0000E+00
     -8.867  0.0000E+00  0.0000E+00  0.0000E+00  0.0000E+00
     -8.812  0.0000E+00  0.0000E+00  0.0000E+00  0.0000E+00
     -8.758  0.0000E+00  0.0000E+00  0.0000E+00  0.0000E+00
     -8.703  0.2128E-05  0.2760E-06  0.1160E-06  0.1505E-07
     -8.649  0.7430E+01  0.6776E+01  0.4051E+00  0.3694E+00
     -8.594  0.1920E+01  0.2454E+01  0.5098E+00  0.5032E+00
     -8.540  0.2824E+02  0.2679E+02  0.2049E+01  0.1964E+01
     -8.485  0.1525E+02  0.1473E+02  0.2881E+01  0.2767E+01
     -8.431  0.1711E+02  0.1846E+02  0.3814E+01  0.3773E+01
     -8.376  0.2548E+02  0.2507E+02  0.5203E+01  0.5140E+01
     -8.322  0.2112E+02  0.1900E+02  0.6354E+01  0.6176E+01
     -8.267  0.1783E+02  0.2019E+02  0.7326E+01  0.7277E+01
     -8.213  0.2245E+02  0.2194E+02  0.8550E+01  0.8473E+01
     -8.158  0.5302E+02  0.5174E+02  0.1144E+02  0.1129E+02
     -8.103  0.3626E+02  0.3730E+02  0.1342E+02  0.1333E+02
     -8.049  0.4301E+02  0.4292E+02  0.1576E+02  0.1567E+02
     -7.994  0.3528E+02  0.3608E+02  0.1769E+02  0.1763E+02
     -7.940  0.4013E+02  0.3603E+02  0.1987E+02  0.1960E+02
     -7.885  0.3423E+02  0.3636E+02  0.2174E+02  0.2158E+02
     -7.831  0.3384E+02  0.3511E+02  0.2358E+02  0.2350E+02
     -7.776  0.1956E+02  0.2013E+02  0.2465E+02  0.2459E+02
     -7.722  0.4445E+02  0.4110E+02  0.2707E+02  0.2683E+02
     -7.667  0.5385E+02  0.5343E+02  0.3001E+02  0.2975E+02
     -7.613  0.7323E+02  0.7518E+02  0.3400E+02  0.3385E+02
     -7.558  0.3521E+02  0.3638E+02  0.3592E+02  0.3583E+02
     -7.504  0.6518E+02  0.6326E+02  0.3948E+02  0.3928E+02
     -7.449  0.3183E+02  0.3198E+02  0.4121E+02  0.4102E+02
     -7.395  0.4440E+02  0.4654E+02  0.4363E+02  0.4356E+02
     -7.340  0.4270E+02  0.4204E+02  0.4596E+02  0.4585E+02
     -7.286  0.5108E+02  0.4839E+02  0.4874E+02  0.4849E+02
     -7.231  0.6684E+02  0.6846E+02  0.5239E+02  0.5222E+02
     -7.177  0.2711E+02  0.2659E+02  0.5387E+02  0.5367E+02
     -7.122  0.3904E+02  0.3935E+02  0.5599E+02  0.5582E+02
     -7.068  0.6219E+02  0.6090E+02  0.5938E+02  0.5914E+02
     -7.013  0.4386E+02  0.4770E+02  0.6178E+02  0.6174E+02
     -6.959  0.5636E+02  0.5521E+02  0.6485E+02  0.6475E+02
     -6.904  0.4332E+02  0.3782E+02  0.6721E+02  0.6681E+02
     -6.850  0.6844E+02  0.7383E+02  0.7094E+02  0.7083E+02
     -6.795  0.4816E+02  0.4835E+02  0.7357E+02  0.7347E+02
     -6.741  0.6397E+02  0.6392E+02  0.7705E+02  0.7695E+02
     -6.686  0.8150E+02  0.7941E+02  0.8150E+02  0.8128E+02
     -6.632  0.8788E+02  0.8811E+02  0.8629E+02  0.8609E+02
     -6.577  0.7170E+02  0.7221E+02  0.9020E+02  0.9002E+02
     -6.522  0.9772E+02  0.9206E+02  0.9553E+02  0.9504E+02
     -6.468  0.8807E+02  0.9191E+02  0.1003E+03  0.1001E+03
     -6.413  0.5990E+02  0.6150E+02  0.1036E+03  0.1034E+03
     -6.359  0.5617E+02  0.5603E+02  0.1067E+03  0.1065E+03
     -6.304  0.7141E+02  0.7195E+02  0.1105E+03  0.1104E+03
     -6.250  0.9249E+02  0.9077E+02  0.1156E+03  0.1153E+03
     -6.195  0.7035E+02  0.7010E+02  0.1194E+03  0.1192E+03
     -6.141  0.3525E+02  0.3608E+02  0.1213E+03  0.1211E+03
     -6.086  0.7366E+02  0.7554E+02  0.1254E+03  0.1252E+03
     -6.032  0.3082E+02  0.3122E+02  0.1270E+03  0.1269E+03
     -5.977  0.7773E+02  0.7501E+02  0.1313E+03  0.1310E+03
     -5.923  0.9938E+02  0.1032E+03  0.1367E+03  0.1367E+03
     -5.868  0.7333E+02  0.6655E+02  0.1407E+03  0.1403E+03
     -5.814  0.1021E+03  0.1052E+03  0.1463E+03  0.1460E+03
     -5.759  0.5584E+02  0.5665E+02  0.1493E+03  0.1491E+03
     -5.705  0.6362E+02  0.6581E+02  0.1528E+03  0.1527E+03
     -5.650  0.3354E+02  0.3059E+02  0.1546E+03  0.1544E+03
     -5.596  0.5167E+02  0.5194E+02  0.1574E+03  0.1572E+03
     -5.541  0.5389E+02  0.5475E+02  0.1604E+03  0.1602E+03
     -5.487  0.4783E+02  0.4524E+02  0.1630E+03  0.1626E+03
     -5.432  0.5310E+02  0.5696E+02  0.1659E+03  0.1657E+03
     -5.378  0.4150E+02  0.3915E+02  0.1681E+03  0.1679E+03
     -5.323  0.2954E+02  0.3169E+02  0.1697E+03  0.1696E+03
     -5.269  0.5579E+02  0.5357E+02  0.1728E+03  0.1725E+03
     -5.214  0.3195E+02  0.3620E+02  0.1745E+03  0.1745E+03
     -5.160  0.5838E+02  0.5264E+02  0.1777E+03  0.1774E+03
     -5.105  0.7353E+02  0.7476E+02  0.1817E+03  0.1814E+03
     -5.051  0.4655E+02  0.4540E+02  0.1842E+03  0.1839E+03
     -4.996  0.5441E+02  0.5873E+02  0.1872E+03  0.1871E+03
     -4.941  0.3705E+02  0.3337E+02  0.1892E+03  0.1889E+03
     -4.887  0.2615E+02  0.2993E+02  0.1907E+03  0.1906E+03
     -4.832  0.6020E+02  0.5317E+02  0.1939E+03  0.1935E+03
     -4.778  0.6682E+02  0.7089E+02  0.1976E+03  0.1973E+03
     -4.723  0.5522E+02  0.5606E+02  0.2006E+03  0.2004E+03
     -4.669  0.4491E+02  0.4539E+02  0.2030E+03  0.2029E+03
     -4.614  0.6434E+02  0.5971E+02  0.2066E+03  0.2061E+03
     -4.560  0.5878E+02  0.6616E+02  0.2098E+03  0.2097E+03
     -4.505  0.5350E+02  0.5209E+02  0.2127E+03  0.2126E+03
     -4.451  0.1550E+02  0.1693E+02  0.2135E+03  0.2135E+03
     -4.396  0.4179E+02  0.3814E+02  0.2158E+03  0.2156E+03
     -4.342  0.3686E+02  0.3910E+02  0.2178E+03  0.2177E+03
     -4.287  0.4899E+02  0.4568E+02  0.2205E+03  0.2202E+03
     -4.233  0.6742E+02  0.6818E+02  0.2242E+03  0.2239E+03
     -4.178  0.5640E+02  0.5447E+02  0.2272E+03  0.2269E+03
     -4.124  0.2645E+02  0.3078E+02  0.2287E+03  0.2286E+03
     -4.069  0.6349E+02  0.6306E+02  0.2321E+03  0.2320E+03
     -4.015  0.4490E+02  0.4286E+02  0.2346E+03  0.2343E+03
     -3.960  0.4863E+02  0.5087E+02  0.2372E+03  0.2371E+03
     -3.906  0.4760E+02  0.4407E+02  0.2398E+03  0.2395E+03
     -3.851  0.5538E+02  0.5923E+02  0.2428E+03  0.2427E+03
     -3.797  0.5234E+02  0.4900E+02  0.2457E+03  0.2454E+03
     -3.742  0.6693E+02  0.6654E+02  0.2493E+03  0.2490E+03
     -3.688  0.7840E+02  0.7776E+02  0.2536E+03  0.2533E+03
     -3.633  0.8541E+02  0.8724E+02  0.2583E+03  0.2580E+03
     -3.579  0.9318E+02  0.9536E+02  0.2634E+03  0.2632E+03
     -3.524  0.6334E+02  0.6450E+02  0.2668E+03  0.2668E+03
     -3.470  0.7269E+02  0.6930E+02  0.2708E+03  0.2705E+03
     -3.415  0.6769E+02  0.6600E+02  0.2745E+03  0.2741E+03
     -3.360  0.9014E+02  0.8918E+02  0.2794E+03  0.2790E+03
     -3.306  0.5723E+02  0.6083E+02  0.2825E+03  0.2823E+03
     -3.251  0.7204E+02  0.7366E+02  0.2864E+03  0.2863E+03
     -3.197  0.5405E+02  0.5342E+02  0.2894E+03  0.2892E+03
     -3.142  0.7046E+02  0.6875E+02  0.2932E+03  0.2930E+03
     -3.088  0.6027E+02  0.5912E+02  0.2965E+03  0.2962E+03
     -3.033  0.5353E+02  0.5506E+02  0.2994E+03  0.2992E+03
     -2.979  0.7146E+02  0.7129E+02  0.3033E+03  0.3031E+03
     -2.924  0.6454E+02  0.6553E+02  0.3068E+03  0.3067E+03
     -2.870  0.5491E+02  0.4829E+02  0.3098E+03  0.3093E+03
     -2.815  0.6532E+02  0.7223E+02  0.3134E+03  0.3132E+03
     -2.761  0.5407E+02  0.5077E+02  0.3163E+03  0.3160E+03
     -2.706  0.7750E+02  0.7726E+02  0.3206E+03  0.3202E+03
     -2.652  0.5224E+02  0.5494E+02  0.3234E+03  0.3232E+03
     -2.597  0.7226E+02  0.7045E+02  0.3273E+03  0.3271E+03
     -2.543  0.5290E+02  0.5566E+02  0.3302E+03  0.3301E+03
     -2.488  0.5105E+02  0.5027E+02  0.3330E+03  0.3328E+03
     -2.434  0.4649E+02  0.4045E+02  0.3355E+03  0.3350E+03
     -2.379  0.5594E+02  0.6284E+02  0.3386E+03  0.3385E+03
     -2.325  0.5856E+02  0.5651E+02  0.3418E+03  0.3415E+03
     -2.270  0.5893E+02  0.5795E+02  0.3450E+03  0.3447E+03
     -2.216  0.2687E+02  0.3015E+02  0.3465E+03  0.3463E+03
     -2.161  0.2961E+02  0.2847E+02  0.3481E+03  0.3479E+03
     -2.107  0.6688E+02  0.5682E+02  0.3517E+03  0.3510E+03
     -2.052  0.4202E+02  0.5105E+02  0.3540E+03  0.3538E+03
     -1.998  0.4025E+02  0.4124E+02  0.3562E+03  0.3560E+03
     -1.943  0.5943E+02  0.5659E+02  0.3595E+03  0.3591E+03
     -1.888  0.5797E+02  0.5712E+02  0.3626E+03  0.3622E+03
     -1.834  0.3967E+02  0.4365E+02  0.3648E+03  0.3646E+03
     -1.779  0.2834E+02  0.2546E+02  0.3663E+03  0.3660E+03
     -1.725  0.6270E+02  0.5749E+02  0.3697E+03  0.3691E+03
     -1.670  0.6779E+02  0.7227E+02  0.3734E+03  0.3731E+03
     -1.616  0.3365E+02  0.3867E+02  0.3753E+03  0.3752E+03
     -1.561  0.4097E+02  0.3967E+02  0.3775E+03  0.3773E+03
     -1.507  0.4653E+02  0.4461E+02  0.3800E+03  0.3798E+03
     -1.452  0.2582E+02  0.2877E+02  0.3814E+03  0.3813E+03
     -1.398  0.3380E+02  0.3083E+02  0.3833E+03  0.3830E+03
     -1.343  0.5486E+02  0.5236E+02  0.3863E+03  0.3859E+03
     -1.289  0.4777E+02  0.5314E+02  0.3889E+03  0.3888E+03
     -1.234  0.2332E+02  0.2424E+02  0.3902E+03  0.3901E+03
     -1.180  0.3413E+02  0.3211E+02  0.3920E+03  0.3918E+03
     -1.125  0.5116E+02  0.4971E+02  0.3948E+03  0.3946E+03
     -1.071  0.3093E+02  0.3158E+02  0.3965E+03  0.3963E+03
     -1.016  0.4081E+02  0.3646E+02  0.3987E+03  0.3983E+03
     -0.962  0.4202E+02  0.4650E+02  0.4010E+03  0.4008E+03
     -0.907  0.3275E+02  0.3314E+02  0.4028E+03  0.4026E+03
     -0.853  0.2585E+02  0.2766E+02  0.4042E+03  0.4041E+03
     -0.798  0.1395E+02  0.1383E+02  0.4050E+03  0.4049E+03
     -0.744  0.1609E+02  0.1646E+02  0.4058E+03  0.4058E+03
     -0.689  0.3020E+02  0.2957E+02  0.4075E+03  0.4074E+03
     -0.635  0.1019E+02  0.1095E+02  0.4080E+03  0.4080E+03
     -0.580  0.5317E+02  0.4980E+02  0.4109E+03  0.4107E+03
     -0.526  0.3968E+02  0.4215E+02  0.4131E+03  0.4130E+03
     -0.471  0.3248E+02  0.3184E+02  0.4149E+03  0.4147E+03
     -0.417  0.3624E+02  0.3652E+02  0.4168E+03  0.4167E+03
     -0.362  0.1605E+02  0.1613E+02  0.4177E+03  0.4176E+03
     -0.307  0.3997E+02  0.3714E+02  0.4199E+03  0.4196E+03
     -0.253  0.8648E+02  0.8322E+02  0.4246E+03  0.4242E+03
     -0.198  0.1276E+03  0.1269E+03  0.4316E+03  0.4311E+03
     -0.144  0.8522E+02  0.8664E+02  0.4362E+03  0.4358E+03
     -0.089  0.8259E+02  0.8467E+02  0.4407E+03  0.4404E+03
     -0.035  0.1188E+03  0.1161E+03  0.4472E+03  0.4467E+03
      0.020  0.1186E+03  0.1180E+03  0.4537E+03  0.4532E+03
      0.074  0.1096E+03  0.1080E+03  0.4596E+03  0.4591E+03
      0.129  0.1204E+03  0.1252E+03  0.4662E+03  0.4659E+03
      0.183  0.1131E+03  0.1097E+03  0.4724E+03  0.4719E+03
      0.238  0.1282E+03  0.1282E+03  0.4794E+03  0.4789E+03
      0.292  0.1195E+03  0.1239E+03  0.4859E+03  0.4856E+03
      0.347  0.1464E+03  0.1424E+03  0.4939E+03  0.4934E+03
      0.401  0.1093E+03  0.1101E+03  0.4998E+03  0.4994E+03
      0.456  0.1260E+03  0.1267E+03  0.5067E+03  0.5063E+03
      0.510  0.1256E+03  0.1226E+03  0.5135E+03  0.5130E+03
      0.565  0.1190E+03  0.1202E+03  0.5200E+03  0.5195E+03
      0.619  0.1163E+03  0.1153E+03  0.5264E+03  0.5258E+03
      0.674  0.1261E+03  0.1258E+03  0.5332E+03  0.5327E+03
      0.728  0.1190E+03  0.1195E+03  0.5397E+03  0.5392E+03
      0.783  0.1059E+03  0.1075E+03  0.5455E+03  0.5450E+03
      0.837  0.1193E+03  0.1196E+03  0.5520E+03  0.5516E+03
      0.892  0.1185E+03  0.1185E+03  0.5584E+03  0.5580E+03
      0.946  0.1446E+03  0.1421E+03  0.5663E+03  0.5658E+03
      1.001  0.1039E+03  0.1052E+03  0.5720E+03  0.5715E+03
      1.055  0.1573E+03  0.1537E+03  0.5806E+03  0.5799E+03
      1.110  0.1463E+03  0.1496E+03  0.5885E+03  0.5880E+03
      1.164  0.1563E+03  0.1535E+03  0.5971E+03  0.5964E+03
      1.219  0.1443E+03  0.1459E+03  0.6049E+03  0.6044E+03
      1.274  0.1422E+03  0.1443E+03  0.6127E+03  0.6122E+03
      1.328  0.1408E+03  0.1389E+03  0.6204E+03  0.6198E+03
      1.383  0.1212E+03  0.1204E+03  0.6270E+03  0.6264E+03
      1.437  0.1292E+03  0.1299E+03  0.6340E+03  0.6335E+03
      1.492  0.1270E+03  0.1249E+03  0.6409E+03  0.6403E+03
      1.546  0.1147E+03  0.1198E+03  0.6472E+03  0.6468E+03
      1.601  0.1326E+03  0.1303E+03  0.6544E+03  0.6539E+03
      1.655  0.1221E+03  0.1171E+03  0.6611E+03  0.6603E+03
      1.710  0.1379E+03  0.1391E+03  0.6686E+03  0.6679E+03
      1.764  0.1298E+03  0.1358E+03  0.6757E+03  0.6753E+03
      1.819  0.1194E+03  0.1187E+03  0.6822E+03  0.6817E+03
      1.873  0.1139E+03  0.1150E+03  0.6884E+03  0.6880E+03
      1.928  0.1359E+03  0.1358E+03  0.6958E+03  0.6954E+03
      1.982  0.1179E+03  0.1160E+03  0.7022E+03  0.7017E+03
      2.037  0.1171E+03  0.1224E+03  0.7086E+03  0.7084E+03
      2.091  0.1143E+03  0.1081E+03  0.7148E+03  0.7143E+03
      2.146  0.1095E+03  0.1136E+03  0.7208E+03  0.7205E+03
      2.200  0.1322E+03  0.1295E+03  0.7280E+03  0.7276E+03
      2.255  0.1144E+03  0.1174E+03  0.7343E+03  0.7340E+03
      2.309  0.8270E+02  0.8024E+02  0.7388E+03  0.7383E+03
      2.364  0.8776E+02  0.8882E+02  0.7435E+03  0.7432E+03
      2.418  0.1029E+03  0.1017E+03  0.7492E+03  0.7487E+03
      2.473  0.1113E+03  0.1071E+03  0.7552E+03  0.7546E+03
      2.527  0.7926E+02  0.8481E+02  0.7595E+03  0.7592E+03
      2.582  0.1074E+03  0.1088E+03  0.7654E+03  0.7651E+03
      2.636  0.9091E+02  0.8714E+02  0.7704E+03  0.7699E+03
      2.691  0.8724E+02  0.8957E+02  0.7751E+03  0.7747E+03
      2.745  0.6011E+02  0.6040E+02  0.7784E+03  0.7780E+03
      2.800  0.1217E+03  0.1213E+03  0.7850E+03  0.7847E+03
      2.855  0.6000E+02  0.5870E+02  0.7883E+03  0.7879E+03
      2.909  0.8037E+02  0.8054E+02  0.7927E+03  0.7922E+03
      2.964  0.7902E+02  0.8219E+02  0.7970E+03  0.7967E+03
      3.018  0.7402E+02  0.7062E+02  0.8010E+03  0.8006E+03
      3.073  0.6635E+02  0.6822E+02  0.8046E+03  0.8043E+03
      3.127  0.5147E+02  0.5090E+02  0.8074E+03  0.8071E+03
      3.182  0.8447E+02  0.8649E+02  0.8121E+03  0.8118E+03
      3.236  0.5183E+02  0.5170E+02  0.8149E+03  0.8146E+03
      3.291  0.6906E+02  0.6621E+02  0.8186E+03  0.8182E+03
      3.345  0.6825E+02  0.7183E+02  0.8224E+03  0.8221E+03
      3.400  0.7870E+02  0.7486E+02  0.8267E+03  0.8262E+03
      3.454  0.5964E+02  0.6116E+02  0.8299E+03  0.8295E+03
      3.509  0.8008E+02  0.7627E+02  0.8343E+03  0.8337E+03
      3.563  0.5868E+02  0.6234E+02  0.8375E+03  0.8371E+03
      3.618  0.5840E+02  0.5565E+02  0.8407E+03  0.8401E+03
      3.672  0.7326E+02  0.6129E+02  0.8447E+03  0.8435E+03
      3.727  0.5251E+02  0.6403E+02  0.8475E+03  0.8470E+03
      3.781  0.9668E+02  0.9316E+02  0.8528E+03  0.8520E+03
      3.836  0.7297E+02  0.6569E+02  0.8568E+03  0.8556E+03
      3.890  0.8498E+02  0.8354E+02  0.8614E+03  0.8602E+03
      3.945  0.5327E+02  0.6237E+02  0.8643E+03  0.8636E+03
      3.999  0.6645E+02  0.6764E+02  0.8679E+03  0.8673E+03
      4.054  0.6433E+02  0.6251E+02  0.8714E+03  0.8707E+03
      4.108  0.6047E+02  0.6646E+02  0.8747E+03  0.8743E+03
      4.163  0.7817E+02  0.6714E+02  0.8790E+03  0.8780E+03
      4.217  0.8489E+02  0.8588E+02  0.8836E+03  0.8826E+03
      4.272  0.6324E+02  0.7666E+02  0.8871E+03  0.8868E+03
      4.327  0.7584E+02  0.6644E+02  0.8912E+03  0.8904E+03
      4.381  0.5638E+02  0.6240E+02  0.8943E+03  0.8938E+03
      4.436  0.7827E+02  0.6654E+02  0.8985E+03  0.8975E+03
      4.490  0.6804E+02  0.8280E+02  0.9023E+03  0.9020E+03
      4.545  0.5842E+02  0.5543E+02  0.9054E+03  0.9050E+03
      4.599  0.5914E+02  0.6261E+02  0.9087E+03  0.9084E+03
      4.654  0.7888E+02  0.6988E+02  0.9130E+03  0.9122E+03
      4.708  0.5380E+02  0.5576E+02  0.9159E+03  0.9153E+03
      4.763  0.5701E+02  0.6438E+02  0.9190E+03  0.9188E+03
      4.817  0.6016E+02  0.5589E+02  0.9223E+03  0.9218E+03
      4.872  0.5348E+02  0.5189E+02  0.9252E+03  0.9247E+03
      4.926  0.6797E+02  0.7054E+02  0.9289E+03  0.9285E+03
      4.981  0.6201E+02  0.6424E+02  0.9323E+03  0.9320E+03
      5.035  0.4730E+02  0.5076E+02  0.9349E+03  0.9348E+03
      5.090  0.6086E+02  0.5736E+02  0.9382E+03  0.9379E+03
      5.144  0.6398E+02  0.6261E+02  0.9417E+03  0.9413E+03
      5.199  0.7931E+02  0.8429E+02  0.9460E+03  0.9459E+03
      5.253  0.7696E+02  0.7351E+02  0.9502E+03  0.9499E+03
      5.308  0.7878E+02  0.7904E+02  0.9545E+03  0.9542E+03
      5.362  0.6681E+02  0.6641E+02  0.9581E+03  0.9578E+03
      5.417  0.8876E+02  0.8933E+02  0.9630E+03  0.9627E+03
      5.471  0.8274E+02  0.7791E+02  0.9675E+03  0.9670E+03
      5.526  0.9501E+02  0.9508E+02  0.9727E+03  0.9721E+03
      5.580  0.8860E+02  0.9219E+02  0.9775E+03  0.9772E+03
      5.635  0.1032E+03  0.1036E+03  0.9831E+03  0.9828E+03
      5.689  0.9885E+02  0.9849E+02  0.9885E+03  0.9882E+03
      5.744  0.1242E+03  0.1175E+03  0.9953E+03  0.9946E+03
      5.798  0.1043E+03  0.1069E+03  0.1001E+04  0.1000E+04
      5.853  0.1298E+03  0.1326E+03  0.1008E+04  0.1008E+04
      5.908  0.1134E+03  0.1132E+03  0.1014E+04  0.1014E+04
      5.962  0.1070E+03  0.1063E+03  0.1020E+04  0.1020E+04
      6.017  0.1279E+03  0.1249E+03  0.1027E+04  0.1026E+04
      6.071  0.1137E+03  0.1203E+03  0.1033E+04  0.1033E+04
      6.126  0.8494E+02  0.8450E+02  0.1038E+04  0.1038E+04
      6.180  0.3127E+02  0.3635E+02  0.1040E+04  0.1040E+04
      6.235  0.8133E+01  0.7707E+01  0.1040E+04  0.1040E+04
      6.289  0.0000E+00  0.0000E+00  0.1040E+04  0.1040E+04
      6.344  0.0000E+00  0.0000E+00  0.1040E+04  0.1040E+04
      6.398  0.0000E+00  0.0000E+00  0.1040E+04  0.1040E+04
      6.453  0.0000E+00  0.0000E+00  0.1040E+04  0.1040E+04
      6.507  0.0000E+00  0.0000E+00  0.1040E+04  0.1040E+04
      6.562  0.0000E+00  0.0000E+00  0.1040E+04  0.1040E+04
      6.616  0.0000E+00  0.0000E+00  0.1040E+04  0.1040E+04
      6.671  0.0000E+00  0.0000E+00  0.1040E+04  0.1040E+04
      6.725  0.0000E+00  0.0000E+00  0.1040E+04  0.1040E+04
      6.780  0.0000E+00  0.0000E+00  0.1040E+04  0.1040E+04
      6.834  0.0000E+00  0.0000E+00  0.1040E+04  0.1040E+04
      6.889  0.0000E+00  0.0000E+00  0.1040E+04  0.1040E+04
      6.943  0.0000E+00  0.0000E+00  0.1040E+04  0.1040E+04
