<?xml version="1.0" encoding="ISO-8859-1"?>
<modeling>
 <generator>
  <i name="program" type="string">vasp </i>
  <i name="version" type="string">6.4.3  </i>
  <i name="subversion" type="string">19Mar24 (build Oct 22 2024 11:23:12) complex                          parallel </i>
  <i name="platform" type="string">LinuxIFC </i>
  <i name="date" type="string">2025 04 30 </i>
  <i name="time" type="string">04:08:26 </i>
 </generator>
 <incar>
  <i type="string" name="SYSTEM">Si122 and Ge001 interface calculation</i>
  <i type="int" name="ISTART">     0</i>
  <i type="logical" name="ADDGRID"> T  </i>
  <i type="int" name="ISPIN">     2</i>
  <i name="AMIX">      0.60000000</i>
  <i type="int" name="ICHARG">     2</i>
  <i type="int" name="NELM">   100</i>
  <i name="EDIFF">      0.00000010</i>
  <i name="ENCUT">    700.00000000</i>
  <i name="ENAUG">    900.00000000</i>
  <i type="int" name="NBANDS">   188</i>
  <i name="NUPDOWN">      1.00000000</i>
  <i name="NELECT">    312.00000000</i>
  <i type="string" name="LREAL">AUTO</i>
  <i type="int" name="ISMEAR">     0</i>
  <i name="SIGMA">      0.01000000</i>
  <i type="int" name="LMAXMIX">     6</i>
  <i type="logical" name="LWAVE"> F  </i>
  <i type="logical" name="LVTOT"> F  </i>
  <i type="logical" name="LVHAR"> T  </i>
  <i type="logical" name="LASPH"> T  </i>
  <i type="logical" name="LMIXTAU"> T  </i>
 </incar>
 <primitive_cell>
  <structure name="primitive_cell" >
   <crystal>
    <varray name="basis" >
     <v>       3.87494516       0.00000000       0.00000000 </v>
     <v>       0.00000000      11.62483548       0.00000000 </v>
     <v>       0.00000000       0.00000000      18.63333333 </v>
    </varray>
    <i name="volume">    839.34968003 </i>
    <varray name="rec_basis" >
     <v>       0.25806817       0.00000000       0.00000000 </v>
     <v>       0.00000000       0.08602272       0.00000000 </v>
     <v>       0.00000000       0.00000000       0.05366726 </v>
    </varray>
   </crystal>
   <varray name="positions" >
    <v>       0.00000000       0.00000000       0.00000000 </v>
    <v>       0.50000000       0.27777778       0.04901610 </v>
    <v>       0.00000000       0.55555556       0.09803220 </v>
    <v>       0.50000000       0.88888889       0.02450805 </v>
    <v>       0.00000000       0.16666667       0.07352415 </v>
    <v>       0.50000000       0.44444444       0.12254025 </v>
    <v>       0.05737705       0.05737705       0.18157424 </v>
    <v>       0.55737705       0.89071038       0.33345259 </v>
    <v>       0.05737705       0.72404372       0.48533095 </v>
    <v>       0.55737705       0.55737705       0.63720930 </v>
    <v>       0.05737705       0.39071038       0.78908766 </v>
    <v>       0.55737705       0.22404372       0.94096601 </v>
    <v>       0.05737705       0.39071038       0.18157424 </v>
    <v>       0.55737705       0.22404372       0.33345259 </v>
    <v>       0.05737705       0.05737705       0.48533095 </v>
    <v>       0.55737705       0.89071038       0.63720930 </v>
    <v>       0.05737705       0.72404372       0.78908766 </v>
    <v>       0.55737705       0.55737705       0.94096601 </v>
    <v>       0.05737705       0.72404372       0.18157424 </v>
    <v>       0.55737705       0.55737705       0.33345259 </v>
    <v>       0.05737705       0.39071038       0.48533095 </v>
    <v>       0.55737705       0.22404372       0.63720930 </v>
    <v>       0.05737705       0.05737705       0.78908766 </v>
    <v>       0.55737705       0.89071038       0.94096601 </v>
    <v>       0.05737705       0.22404372       0.25751342 </v>
    <v>       0.55737705       0.05737705       0.40939177 </v>
    <v>       0.05737705       0.89071038       0.56127013 </v>
    <v>       0.55737705       0.72404372       0.71314848 </v>
    <v>       0.05737705       0.55737705       0.86502683 </v>
    <v>       0.05737705       0.55737705       0.25751342 </v>
    <v>       0.55737705       0.39071038       0.40939177 </v>
    <v>       0.05737705       0.22404372       0.56127013 </v>
    <v>       0.55737705       0.05737705       0.71314848 </v>
    <v>       0.05737705       0.89071038       0.86502683 </v>
    <v>       0.05737705       0.89071038       0.25751342 </v>
    <v>       0.55737705       0.72404372       0.40939177 </v>
    <v>       0.05737705       0.55737705       0.56127013 </v>
    <v>       0.55737705       0.39071038       0.71314848 </v>
    <v>       0.05737705       0.22404372       0.86502683 </v>
   </varray>
  </structure>
  <varray name="primitive_index" >
   <v type="int" >        1 </v>
   <v type="int" >        2 </v>
   <v type="int" >        3 </v>
   <v type="int" >        7 </v>
   <v type="int" >        8 </v>
   <v type="int" >        9 </v>
   <v type="int" >       13 </v>
   <v type="int" >       32 </v>
   <v type="int" >       33 </v>
   <v type="int" >       16 </v>
   <v type="int" >       35 </v>
   <v type="int" >       36 </v>
   <v type="int" >       37 </v>
   <v type="int" >       38 </v>
   <v type="int" >       21 </v>
   <v type="int" >       40 </v>
   <v type="int" >       41 </v>
   <v type="int" >       24 </v>
   <v type="int" >       43 </v>
   <v type="int" >       26 </v>
   <v type="int" >       45 </v>
   <v type="int" >       46 </v>
   <v type="int" >       29 </v>
   <v type="int" >       48 </v>
   <v type="int" >       49 </v>
   <v type="int" >       50 </v>
   <v type="int" >       66 </v>
   <v type="int" >       52 </v>
   <v type="int" >       53 </v>
   <v type="int" >       54 </v>
   <v type="int" >       70 </v>
   <v type="int" >       56 </v>
   <v type="int" >       57 </v>
   <v type="int" >       73 </v>
   <v type="int" >       74 </v>
   <v type="int" >       60 </v>
   <v type="int" >       61 </v>
   <v type="int" >       77 </v>
   <v type="int" >       63 </v>
  </varray>
 </primitive_cell>
 <kpoints>
  <generation param="Gamma">
   <v type="int" name="divisions">       4        3        2 </v>
   <v name="usershift">      0.00000000       0.00000000       0.00000000 </v>
   <v name="genvec1">      0.25000000      -0.00000000       0.00000000 </v>
   <v name="genvec2">      0.00000000       0.33333333       0.00000000 </v>
   <v name="genvec3">      0.00000000       0.00000000       0.50000000 </v>
   <v name="shift">      0.00000000       0.00000000       0.00000000 </v>
  </generation>
  <varray name="kpointlist" >
   <v>       0.00000000       0.00000000       0.00000000 </v>
   <v>       0.25000000      -0.00000000       0.00000000 </v>
   <v>       0.50000000      -0.00000000       0.00000000 </v>
   <v>       0.00000000       0.33333333       0.00000000 </v>
   <v>       0.25000000       0.33333333       0.00000000 </v>
   <v>       0.50000000       0.33333333       0.00000000 </v>
   <v>      -0.25000000       0.33333333       0.00000000 </v>
   <v>       0.00000000       0.00000000       0.50000000 </v>
   <v>       0.25000000      -0.00000000       0.50000000 </v>
   <v>       0.50000000      -0.00000000       0.50000000 </v>
   <v>       0.00000000       0.33333333       0.50000000 </v>
   <v>       0.25000000       0.33333333       0.50000000 </v>
   <v>       0.50000000       0.33333333       0.50000000 </v>
   <v>      -0.25000000       0.33333333       0.50000000 </v>
  </varray>
  <varray name="weights" >
   <v>       0.04166667 </v>
   <v>       0.08333333 </v>
   <v>       0.04166667 </v>
   <v>       0.08333333 </v>
   <v>       0.08333333 </v>
   <v>       0.08333333 </v>
   <v>       0.08333333 </v>
   <v>       0.04166667 </v>
   <v>       0.08333333 </v>
   <v>       0.04166667 </v>
   <v>       0.08333333 </v>
   <v>       0.08333333 </v>
   <v>       0.08333333 </v>
   <v>       0.08333333 </v>
  </varray>
 </kpoints>
 <parameters>
  <separator name="general" >
   <i type="string" name="SYSTEM">Si122 and Ge001 interface calculation</i>
   <i type="logical" name="LCOMPAT"> F  </i>
  </separator>
  <separator name="electronic" >
   <i type="string" name="PREC">normal</i>
   <i name="ENMAX">    700.00000000</i>
   <i name="ENAUG">    900.00000000</i>
   <i name="EDIFF">      0.00000010</i>
   <i type="int" name="IALGO">    38</i>
   <i type="int" name="IWAVPR">    10</i>
   <i type="int" name="NBANDS">   188</i>
   <i type="int" name="NBANDSLOW">    -1</i>
   <i type="int" name="NBANDSHIGH">    -1</i>
   <i name="NELECT">    312.00000000</i>
   <i type="int" name="TURBO">     0</i>
   <i type="int" name="IRESTART">     0</i>
   <i type="int" name="NREBOOT">     0</i>
   <i type="int" name="NMIN">     0</i>
   <i name="EREF">      0.00000000</i>
   <separator name="electronic smearing" >
    <i type="int" name="ISMEAR">     0</i>
    <i name="SIGMA">      0.01000000</i>
    <i name="KSPACING">      0.50000000</i>
    <i type="logical" name="KGAMMA"> T  </i>
    <i type="logical" name="KBLOWUP"> F  </i>
   </separator>
   <separator name="electronic projectors" >
    <i type="logical" name="LREAL"> T  </i>
    <v name="ROPT">     -0.00050000     -0.00050000</v>
    <i type="int" name="LMAXPAW">  -100</i>
    <i type="int" name="LMAXMIX">     6</i>
    <i type="logical" name="NLSPLINE"> F  </i>
   </separator>
   <separator name="electronic startup" >
    <i type="int" name="ISTART">     0</i>
    <i type="int" name="ICHARG">     2</i>
    <i type="int" name="INIWAV">     1</i>
   </separator>
   <separator name="electronic spin" >
    <i type="int" name="ISPIN">     2</i>
    <i type="logical" name="LNONCOLLINEAR"> F  </i>
    <v name="MAGMOM">      0.01282051      0.01282051      0.01282051      0.01282051      0.01282051      0.01282051      0.01282051      0.01282051      0.01282051      0.01282051      0.01282051      0.01282051      0.01282051      0.01282051      0.01282051      0.01282051      0.01282051      0.01282051      0.01282051      0.01282051
      0.01282051      0.01282051      0.01282051      0.01282051      0.01282051      0.01282051      0.01282051      0.01282051      0.01282051      0.01282051      0.01282051      0.01282051      0.01282051      0.01282051      0.01282051      0.01282051      0.01282051      0.01282051      0.01282051      0.01282051
      0.01282051      0.01282051      0.01282051      0.01282051      0.01282051      0.01282051      0.01282051      0.01282051      0.01282051      0.01282051      0.01282051      0.01282051      0.01282051      0.01282051      0.01282051      0.01282051      0.01282051      0.01282051      0.01282051      0.01282051
      0.01282051      0.01282051      0.01282051      0.01282051      0.01282051      0.01282051      0.01282051      0.01282051      0.01282051      0.01282051      0.01282051      0.01282051      0.01282051      0.01282051      0.01282051      0.01282051      0.01282051      0.01282051</v>
    <i name="NUPDOWN">      1.00000000</i>
    <i type="logical" name="LSORBIT"> F  </i>
    <v name="SAXIS">      0.00000000      0.00000000      1.00000000</v>
    <i type="logical" name="LSPIRAL"> F  </i>
    <v name="QSPIRAL">      0.00000000      0.00000000      0.00000000</v>
    <i type="logical" name="LZEROZ"> F  </i>
   </separator>
   <separator name="electronic exchange-correlation" >
    <i type="logical" name="LASPH"> T  </i>
   </separator>
   <separator name="electronic convergence" >
    <i type="int" name="NELM">   100</i>
    <i type="int" name="NELMDL">    -5</i>
    <i type="int" name="NELMIN">     2</i>
    <i name="ENINI">    700.00000000</i>
    <separator name="electronic convergence detail" >
     <i type="logical" name="LDIAG"> T  </i>
     <i type="logical" name="LSUBROT"> F  </i>
     <i name="WEIMIN">      0.00000000</i>
     <i name="EBREAK">      0.00000000</i>
     <i name="DEPER">      0.30000000</i>
     <i type="int" name="NRMM">     4</i>
     <i name="TIME">      0.40000000</i>
    </separator>
   </separator>
   <separator name="electronic mixer" >
    <i name="AMIX">      0.60000000</i>
    <i name="BMIX">      1.00000000</i>
    <i name="AMIN">      0.10000000</i>
    <i name="AMIX_MAG">      2.40000000</i>
    <i name="BMIX_MAG">      1.00000000</i>
    <separator name="electronic mixer details" >
     <i type="int" name="IMIX">     4</i>
     <i type="logical" name="MIXFIRST"> F  </i>
     <i type="int" name="MAXMIX">   -45</i>
     <i name="WC">    100.00000000</i>
     <i type="int" name="INIMIX">     1</i>
     <i type="int" name="MIXPRE">     1</i>
     <i type="int" name="MREMOVE">     5</i>
    </separator>
   </separator>
   <separator name="electronic dipolcorrection" >
    <i type="logical" name="LDIPOL"> F  </i>
    <i type="logical" name="LMONO"> F  </i>
    <i type="int" name="IDIPOL">     0</i>
    <i name="EPSILON">      1.00000000</i>
    <v name="DIPOL">   -100.00000000   -100.00000000   -100.00000000</v>
    <i name="EFIELD">      0.00000000</i>
    <i type="logical" name="LVACPOTAV"> F  </i>
   </separator>
  </separator>
  <separator name="grids" >
   <i type="int" name="NGX">    50</i>
   <i type="int" name="NGY">    80</i>
   <i type="int" name="NGZ">   126</i>
   <i type="int" name="NGXF">   100</i>
   <i type="int" name="NGYF">   160</i>
   <i type="int" name="NGZF">   252</i>
   <i type="logical" name="ADDGRID"> T  </i>
  </separator>
  <separator name="ionic" >
   <i type="int" name="NSW">     0</i>
   <i type="int" name="IBRION">    -1</i>
   <i type="int" name="MDALGO">     0</i>
   <i type="int" name="ISIF">     2</i>
   <i name="PSTRESS">      0.00000000</i>
   <i name="EDIFFG">      0.00000100</i>
   <i type="int" name="NFREE">     0</i>
   <i name="POTIM">      0.50000000</i>
   <i name="SMASS">     -3.00000000</i>
   <i name="SCALEE">      1.00000000</i>
  </separator>
  <separator name="ionic md" >
   <i name="TEBEG">      0.00010000</i>
   <i name="TEEND">      0.00010000</i>
   <i type="int" name="NBLOCK">     1</i>
   <i type="int" name="KBLOCK">     1</i>
   <i type="int" name="NPACO">   256</i>
   <i name="APACO">     10.00000000</i>
  </separator>
  <separator name="symmetry" >
   <i type="int" name="ISYM">     2</i>
   <i name="SYMPREC">      0.00001000</i>
  </separator>
  <separator name="dos" >
   <i type="int" name="LORBIT">     0</i>
   <v name="RWIGS">     -1.00000000     -1.00000000</v>
   <i type="int" name="NEDOS">   301</i>
   <i name="EMIN">     10.00000000</i>
   <i name="EMAX">    -10.00000000</i>
   <i name="EFERMI">      0.00000000</i>
  </separator>
  <separator name="writing" >
   <i type="int" name="NWRITE">     2</i>
   <i type="logical" name="LWAVE"> F  </i>
   <i type="logical" name="LDOWNSAMPLE"> F  </i>
   <i type="logical" name="LCHARG"> T  </i>
   <i type="logical" name="LPARD"> F  </i>
   <i type="logical" name="LVTOT"> F  </i>
   <i type="logical" name="LVHAR"> T  </i>
   <i type="logical" name="LELF"> F  </i>
   <i type="logical" name="LOPTICS"> F  </i>
   <v name="STM">      0.00000000      0.00000000      0.00000000      0.00000000      0.00000000      0.00000000      0.00000000</v>
  </separator>
  <separator name="performance" >
   <i type="int" name="NPAR">     1</i>
   <i type="int" name="NSIM">     4</i>
   <i type="int" name="NBLK">    -1</i>
   <i type="logical" name="LPLANE"> T  </i>
   <i type="logical" name="LSCALAPACK"> T  </i>
   <i type="logical" name="LSCAAWARE"> F  </i>
   <i type="logical" name="LSCALU"> F  </i>
   <i type="logical" name="LASYNC"> F  </i>
   <i type="logical" name="LORBITALREAL"> F  </i>
  </separator>
  <separator name="miscellaneous" >
   <i type="int" name="IDIOT">     3</i>
   <i type="int" name="PHON_NSTRUCT">    -1</i>
   <i type="logical" name="LMUSIC"> F  </i>
   <v name="POMASS">     28.08500000     72.61000000</v>
   <v name="DARWINR">      0.00000000      0.00000000</v>
   <v name="DARWINV">      1.00000000      1.00000000</v>
   <i type="logical" name="LCORR"> T  </i>
  </separator>
  <i type="logical" name="GGA_COMPAT"> T  </i>
  <i type="logical" name="LBERRY"> F  </i>
  <i type="int" name="ICORELEVEL">     0</i>
  <i type="logical" name="LDAU"> F  </i>
  <i type="int" name="I_CONSTRAINED_M">     0</i>
  <separator name="electronic exchange-correlation" >
   <i type="string" name="GGA    ">PE</i>
   <i type="string" name="XC_C">1</i>
   <i type="int" name="VOSKOWN">     0</i>
   <i type="logical" name="LHFCALC"> F  </i>
   <i type="string" name="PRECFOCK"></i>
   <i type="logical" name="LSYMGRAD"> F  </i>
   <i type="logical" name="LHFONE"> F  </i>
   <i type="logical" name="LRHFCALC"> F  </i>
   <i type="logical" name="LTHOMAS"> F  </i>
   <i type="logical" name="LMODELHF"> F  </i>
   <i type="logical" name="LFOCKACE"> F  </i>
   <i name="ENCUT4O">     -1.00000000</i>
   <i type="int" name="EXXOEP">     0</i>
   <i type="int" name="FOURORBIT">     0</i>
   <i name="AEXX">      0.00000000</i>
   <i name="HFALPHA">      0.00000000</i>
   <i name="MCALPHA">      0.00000000</i>
   <i name="ALDAX">      1.00000000</i>
   <i name="AGGAX">      1.00000000</i>
   <i name="AMGGAX">      1.00000000</i>
   <i name="ALDAC">      1.00000000</i>
   <i name="AGGAC">      1.00000000</i>
   <i name="AMGGAC">      1.00000000</i>
   <i type="int" name="NKREDX">     1</i>
   <i type="int" name="NKREDY">     1</i>
   <i type="int" name="NKREDZ">     1</i>
   <i type="logical" name="SHIFTRED"> F  </i>
   <i type="logical" name="ODDONLY"> F  </i>
   <i type="logical" name="EVENONLY"> F  </i>
   <i type="int" name="LMAXFOCK">     0</i>
   <i type="int" name="NMAXFOCKAE">     0</i>
   <i type="logical" name="LFOCKAEDFT"> F  </i>
   <i name="HFSCREEN">      0.00000000</i>
   <i name="HFSCREENC">      0.00000000</i>
   <i type="int" name="NBANDSGWLOW">     0</i>
  </separator>
  <separator name="vdW DFT" >
   <i type="logical" name="LUSE_VDW"> F  </i>
   <i type="int" name="IVDW_NL">    -1</i>
   <i type="logical" name="LSPIN_VDW"> F  </i>
   <i name="ZAB_VDW">     -0.84910000</i>
   <i name="GAMMA_VDW">      1.39626340</i>
   <i name="ALPHA_VDW">      0.00000000</i>
   <i name="PARAM1">      0.12340000</i>
   <i name="PARAM2">      1.00000000</i>
   <i name="BPARAM">      6.30000000</i>
   <i name="CPARAM">      0.00930000</i>
  </separator>
  <separator name="model GW" >
   <i type="int" name="MODEL_GW">     0</i>
   <i name="MODEL_EPS0">     12.91307200</i>
   <i name="MODEL_ALPHA">      1.00000000</i>
  </separator>
  <separator name="linear response parameters" >
   <i type="logical" name="LEPSILON"> F  </i>
   <i type="logical" name="LRPA"> F  </i>
   <i type="logical" name="LNABLA"> F  </i>
   <i type="logical" name="LVEL"> F  </i>
   <i name="CSHIFT">      0.10000000</i>
   <i name="OMEGAMAX">     -1.00000000</i>
   <i name="DEG_THRESHOLD">      0.00200000</i>
   <i name="RTIME">     -0.10000000</i>
   <i name="WPLASMAI">      0.00000000</i>
   <v name="DFIELD">      0.00000000      0.00000000      0.00000000</v>
   <v name="WPLASMA">      0.00000000      0.00000000      0.00000000      0.00000000      0.00000000      0.00000000      0.00000000      0.00000000      0.00000000</v>
  </separator>
  <separator name="orbital magnetization" >
   <i type="logical" name="NUCIND"> F  </i>
   <v name="MAGPOS">      0.00000000      0.00000000      0.00000000</v>
   <i type="logical" name="LNICSALL"> T  </i>
   <i type="logical" name="ORBITALMAG"> F  </i>
   <i type="logical" name="LMAGBLOCH"> F  </i>
   <i type="logical" name="LCHIMAG"> F  </i>
   <i type="logical" name="LGAUGE"> T  </i>
   <i type="int" name="MAGATOM">     0</i>
   <v name="MAGDIPOL">      0.00000000      0.00000000      0.00000000</v>
   <v name="AVECCONST">      0.00000000      0.00000000      0.00000000</v>
  </separator>
  <separator name="response functions" >
   <i type="logical" name="LALL_IN_ONE"> F  </i>
   <i type="int" name="IALL_IN_ONE">    -1</i>
   <i type="int" name="NBANDS_WAVE">    -1</i>
   <i type="logical" name="LFINITE_TEMPERATURE"> F  </i>
   <i type="logical" name="LADDER"> F  </i>
   <i type="logical" name="LRPAFORCE"> F  </i>
   <i type="logical" name="LFXC"> F  </i>
   <i type="logical" name="LHARTREE"> T  </i>
   <i type="int" name="IBSE">     0</i>
   <v type="int" name="KPOINT">    -1     0     0     0</v>
   <i type="logical" name="LTCTC"> F  </i>
   <i type="logical" name="LTCTE"> F  </i>
   <i type="logical" name="LTETE"> F  </i>
   <i type="logical" name="LTRIPLET"> F  </i>
   <i type="logical" name="LFXCEPS"> F  </i>
   <i type="logical" name="LFXHEG"> F  </i>
   <i type="int" name="NATURALO">     2</i>
   <i type="logical" name="LHOLEGF"> F  </i>
   <i type="logical" name="L2ORDER"> F  </i>
   <i type="logical" name="LDMP1"> F  </i>
   <i type="logical" name="LMP2LT"> F  </i>
   <i type="logical" name="LSMP2LT"> F  </i>
   <i type="logical" name="LGWLF"> F  </i>
   <i name="ENCUTGW">     -1.60000002</i>
   <i name="ENCUTGWSOFT">     -1.60000002</i>
   <i name="ENCUTLF">     -1.00000000</i>
   <i type="logical" name="ESF_SPLINES"> F  </i>
   <i name="ESF_CONV">      0.01000000</i>
   <i type="int" name="ESF_NINTER">    15</i>
   <i type="int" name="LMAXMP2">    -1</i>
   <i name="SCISSOR">      0.00000000</i>
   <i type="int" name="NOMEGA">     0</i>
   <i type="int" name="NOMEGAR">     0</i>
   <i type="int" name="NBANDSGW">    -1</i>
   <i type="int" name="NBANDSO">    -1</i>
   <i type="int" name="NBANDSV">    -1</i>
   <i type="int" name="NELMGW">     1</i>
   <i type="int" name="NELMHF">     1</i>
   <i type="int" name="DIM">     3</i>
   <i type="int" name="IESPILON">     4</i>
   <i type="int" name="ANTIRES">     0</i>
   <i name="OMEGAMAX">    -30.00000000</i>
   <i name="OMEGAMIN">    -30.00000000</i>
   <i name="OMEGATL">   -200.00000000</i>
   <i type="int" name="OMEGAGRID">     0</i>
   <i name="CSHIFT">     -0.10000000</i>
   <i type="logical" name="LSELFENERGY"> F  </i>
   <i type="logical" name="LSPECTRAL"> F  </i>
   <i type="logical" name="LSPECTRALGW"> F  </i>
   <i type="logical" name="LSINGLES"> F  </i>
   <i type="logical" name="LFERMIGW"> F  </i>
   <i type="logical" name="ODDONLYGW"> F  </i>
   <i type="logical" name="EVENONLYGW"> F  </i>
   <i type="int" name="NKREDLFX">     1</i>
   <i type="int" name="NKREDLFY">     1</i>
   <i type="int" name="NKREDLFZ">     1</i>
   <i type="int" name="MAXMEM">  2800</i>
   <i type="int" name="TELESCOPE">     0</i>
   <i type="int" name="NTAUPAR">    -1</i>
   <i type="int" name="NOMEGAPAR">    -1</i>
   <i name="DAMP_NEWTON">      0.80000001</i>
   <i name="LAMBDA">      1.00000000</i>
  </separator>
  <separator name="External order field" >
   <i name="OFIELD_KAPPA">      0.00000000</i>
   <v name="OFIELD_K">      0.00000000      0.00000000      0.00000000</v>
   <i name="OFIELD_Q6_NEAR">      0.00000000</i>
   <i name="OFIELD_Q6_FAR">      0.00000000</i>
   <i name="OFIELD_A">      0.00000000</i>
  </separator>
  <separator name="optional k-points parameters" >
   <i type="int" name="KPOINTS_OPT_MODE">     1</i>
   <i type="logical" name="LKPOINTS_OPT"> F  </i>
  </separator>
 </parameters>
 <atominfo>
  <atoms>      78 </atoms>
  <types>       2 </types>
  <array name="atoms" >
   <dimension dim="1">ion</dimension>
   <field type="string">element</field>
   <field type="int">atomtype</field>
   <set>
    <rc><c>Si</c><c>   1</c></rc>
    <rc><c>Si</c><c>   1</c></rc>
    <rc><c>Si</c><c>   1</c></rc>
    <rc><c>Si</c><c>   1</c></rc>
    <rc><c>Si</c><c>   1</c></rc>
    <rc><c>Si</c><c>   1</c></rc>
    <rc><c>Si</c><c>   1</c></rc>
    <rc><c>Si</c><c>   1</c></rc>
    <rc><c>Si</c><c>   1</c></rc>
    <rc><c>Si</c><c>   1</c></rc>
    <rc><c>Si</c><c>   1</c></rc>
    <rc><c>Si</c><c>   1</c></rc>
    <rc><c>Ge</c><c>   2</c></rc>
    <rc><c>Ge</c><c>   2</c></rc>
    <rc><c>Ge</c><c>   2</c></rc>
    <rc><c>Ge</c><c>   2</c></rc>
    <rc><c>Ge</c><c>   2</c></rc>
    <rc><c>Ge</c><c>   2</c></rc>
    <rc><c>Ge</c><c>   2</c></rc>
    <rc><c>Ge</c><c>   2</c></rc>
    <rc><c>Ge</c><c>   2</c></rc>
    <rc><c>Ge</c><c>   2</c></rc>
    <rc><c>Ge</c><c>   2</c></rc>
    <rc><c>Ge</c><c>   2</c></rc>
    <rc><c>Ge</c><c>   2</c></rc>
    <rc><c>Ge</c><c>   2</c></rc>
    <rc><c>Ge</c><c>   2</c></rc>
    <rc><c>Ge</c><c>   2</c></rc>
    <rc><c>Ge</c><c>   2</c></rc>
    <rc><c>Ge</c><c>   2</c></rc>
    <rc><c>Ge</c><c>   2</c></rc>
    <rc><c>Ge</c><c>   2</c></rc>
    <rc><c>Ge</c><c>   2</c></rc>
    <rc><c>Ge</c><c>   2</c></rc>
    <rc><c>Ge</c><c>   2</c></rc>
    <rc><c>Ge</c><c>   2</c></rc>
    <rc><c>Ge</c><c>   2</c></rc>
    <rc><c>Ge</c><c>   2</c></rc>
    <rc><c>Ge</c><c>   2</c></rc>
    <rc><c>Ge</c><c>   2</c></rc>
    <rc><c>Ge</c><c>   2</c></rc>
    <rc><c>Ge</c><c>   2</c></rc>
    <rc><c>Ge</c><c>   2</c></rc>
    <rc><c>Ge</c><c>   2</c></rc>
    <rc><c>Ge</c><c>   2</c></rc>
    <rc><c>Ge</c><c>   2</c></rc>
    <rc><c>Ge</c><c>   2</c></rc>
    <rc><c>Ge</c><c>   2</c></rc>
    <rc><c>Ge</c><c>   2</c></rc>
    <rc><c>Ge</c><c>   2</c></rc>
    <rc><c>Ge</c><c>   2</c></rc>
    <rc><c>Ge</c><c>   2</c></rc>
    <rc><c>Ge</c><c>   2</c></rc>
    <rc><c>Ge</c><c>   2</c></rc>
    <rc><c>Ge</c><c>   2</c></rc>
    <rc><c>Ge</c><c>   2</c></rc>
    <rc><c>Ge</c><c>   2</c></rc>
    <rc><c>Ge</c><c>   2</c></rc>
    <rc><c>Ge</c><c>   2</c></rc>
    <rc><c>Ge</c><c>   2</c></rc>
    <rc><c>Ge</c><c>   2</c></rc>
    <rc><c>Ge</c><c>   2</c></rc>
    <rc><c>Ge</c><c>   2</c></rc>
    <rc><c>Ge</c><c>   2</c></rc>
    <rc><c>Ge</c><c>   2</c></rc>
    <rc><c>Ge</c><c>   2</c></rc>
    <rc><c>Ge</c><c>   2</c></rc>
    <rc><c>Ge</c><c>   2</c></rc>
    <rc><c>Ge</c><c>   2</c></rc>
    <rc><c>Ge</c><c>   2</c></rc>
    <rc><c>Ge</c><c>   2</c></rc>
    <rc><c>Ge</c><c>   2</c></rc>
    <rc><c>Ge</c><c>   2</c></rc>
    <rc><c>Ge</c><c>   2</c></rc>
    <rc><c>Ge</c><c>   2</c></rc>
    <rc><c>Ge</c><c>   2</c></rc>
    <rc><c>Ge</c><c>   2</c></rc>
    <rc><c>Ge</c><c>   2</c></rc>
   </set>
  </array>
  <array name="atomtypes" >
   <dimension dim="1">type</dimension>
   <field type="int">atomspertype</field>
   <field type="string">element</field>
   <field>mass</field>
   <field>valence</field>
   <field type="string">pseudopotential</field>
   <set>
    <rc><c>  12</c><c>Si</c><c>     28.08500000</c><c>      4.00000000</c><c>  PAW_PBE Si 05Jan2001                  </c></rc>
    <rc><c>  66</c><c>Ge</c><c>     72.61000000</c><c>      4.00000000</c><c>  PAW_PBE Ge 05Jan2001                  </c></rc>
   </set>
  </array>
 </atominfo>
 <structure name="initialpos" >
  <crystal>
   <varray name="basis" >
    <v>       7.74989032       0.00000000       0.00000000 </v>
    <v>       3.87494516      11.62483548       0.00000000 </v>
    <v>       0.00000000       0.00000000      18.63333333 </v>
   </varray>
   <i name="volume">   1678.69936005 </i>
   <varray name="rec_basis" >
    <v>       0.12903408      -0.04301136       0.00000000 </v>
    <v>       0.00000000       0.08602272       0.00000000 </v>
    <v>       0.00000000       0.00000000       0.05366726 </v>
   </varray>
  </crystal>
  <varray name="positions" >
   <v>       0.00000000       0.00000000       0.00000000 </v>
   <v>       0.11111111       0.27777778       0.04901610 </v>
   <v>       0.22222222       0.55555556       0.09803220 </v>
   <v>       0.50000000       0.00000000       0.00000000 </v>
   <v>       0.61111111       0.27777778       0.04901610 </v>
   <v>       0.72222222       0.55555556       0.09803220 </v>
   <v>       0.80555556       0.88888889       0.02450805 </v>
   <v>       0.91666667       0.16666667       0.07352415 </v>
   <v>       0.02777778       0.44444444       0.12254025 </v>
   <v>       0.30555556       0.88888889       0.02450805 </v>
   <v>       0.41666667       0.16666667       0.07352415 </v>
   <v>       0.52777778       0.44444444       0.12254025 </v>
   <v>       0.00000000       0.05737705       0.18157424 </v>
   <v>       0.33333333       0.89071038       0.33345259 </v>
   <v>       0.66666667       0.72404372       0.48533095 </v>
   <v>       0.00000000       0.55737705       0.63720930 </v>
   <v>       0.33333333       0.39071038       0.78908766 </v>
   <v>       0.66666667       0.22404372       0.94096601 </v>
   <v>       0.33333333       0.39071038       0.18157424 </v>
   <v>       0.66666667       0.22404372       0.33345259 </v>
   <v>       0.00000000       0.05737705       0.48533095 </v>
   <v>       0.33333333       0.89071038       0.63720930 </v>
   <v>       0.66666667       0.72404372       0.78908766 </v>
   <v>       0.00000000       0.55737705       0.94096601 </v>
   <v>       0.66666667       0.72404372       0.18157424 </v>
   <v>       0.00000000       0.55737705       0.33345259 </v>
   <v>       0.33333333       0.39071038       0.48533095 </v>
   <v>       0.66666667       0.22404372       0.63720930 </v>
   <v>       0.00000000       0.05737705       0.78908766 </v>
   <v>       0.33333333       0.89071038       0.94096601 </v>
   <v>       0.50000000       0.05737705       0.18157424 </v>
   <v>       0.83333333       0.89071038       0.33345259 </v>
   <v>       0.16666667       0.72404372       0.48533095 </v>
   <v>       0.50000000       0.55737705       0.63720930 </v>
   <v>       0.83333333       0.39071038       0.78908766 </v>
   <v>       0.16666667       0.22404372       0.94096601 </v>
   <v>       0.83333333       0.39071038       0.18157424 </v>
   <v>       0.16666667       0.22404372       0.33345259 </v>
   <v>       0.50000000       0.05737705       0.48533095 </v>
   <v>       0.83333333       0.89071038       0.63720930 </v>
   <v>       0.16666667       0.72404372       0.78908766 </v>
   <v>       0.50000000       0.55737705       0.94096601 </v>
   <v>       0.16666667       0.72404372       0.18157424 </v>
   <v>       0.50000000       0.55737705       0.33345259 </v>
   <v>       0.83333333       0.39071038       0.48533095 </v>
   <v>       0.16666667       0.22404372       0.63720930 </v>
   <v>       0.50000000       0.05737705       0.78908766 </v>
   <v>       0.83333333       0.89071038       0.94096601 </v>
   <v>       0.91666667       0.22404372       0.25751342 </v>
   <v>       0.25000000       0.05737705       0.40939177 </v>
   <v>       0.58333333       0.89071038       0.56127013 </v>
   <v>       0.91666667       0.72404372       0.71314848 </v>
   <v>       0.25000000       0.55737705       0.86502683 </v>
   <v>       0.25000000       0.55737705       0.25751342 </v>
   <v>       0.58333333       0.39071038       0.40939177 </v>
   <v>       0.91666667       0.22404372       0.56127013 </v>
   <v>       0.25000000       0.05737705       0.71314848 </v>
   <v>       0.58333333       0.89071038       0.86502683 </v>
   <v>       0.58333333       0.89071038       0.25751342 </v>
   <v>       0.91666667       0.72404372       0.40939177 </v>
   <v>       0.25000000       0.55737705       0.56127013 </v>
   <v>       0.58333333       0.39071038       0.71314848 </v>
   <v>       0.91666667       0.22404372       0.86502683 </v>
   <v>       0.41666667       0.22404372       0.25751342 </v>
   <v>       0.75000000       0.05737705       0.40939177 </v>
   <v>       0.08333333       0.89071038       0.56127013 </v>
   <v>       0.41666667       0.72404372       0.71314848 </v>
   <v>       0.75000000       0.55737705       0.86502683 </v>
   <v>       0.75000000       0.55737705       0.25751342 </v>
   <v>       0.08333333       0.39071038       0.40939177 </v>
   <v>       0.41666667       0.22404372       0.56127013 </v>
   <v>       0.75000000       0.05737705       0.71314848 </v>
   <v>       0.08333333       0.89071038       0.86502683 </v>
   <v>       0.08333333       0.89071038       0.25751342 </v>
   <v>       0.41666667       0.72404372       0.40939177 </v>
   <v>       0.75000000       0.55737705       0.56127013 </v>
   <v>       0.08333333       0.39071038       0.71314848 </v>
   <v>       0.41666667       0.22404372       0.86502683 </v>
  </varray>
 </structure>
 <calculation>
  <scstep>
   <time name="dav">   52.32   52.78</time>
   <time name="total">   56.21   56.70</time>
   <energy>
    <i name="alphaZ">    604.90751195 </i>
    <i name="ewald">  -8382.11577079 </i>
    <i name="hartreedc">   -709.23140765 </i>
    <i name="XCdc">   -601.17416000 </i>
    <i name="pawpsdc">   6875.06741709 </i>
    <i name="pawaedc">  -5707.76819619 </i>
    <i name="eentropy">     -0.00102994 </i>
    <i name="bandstr">   1297.09995037 </i>
    <i name="atom">   8166.52953475 </i>
    <i name="e_fr_energy">   1543.31384960 </i>
    <i name="e_wo_entrp">   1543.31487954 </i>
    <i name="e_0_energy">   1543.31436457 </i>
   </energy>
  </scstep>
  <scstep>
   <time name="dav">   58.72   59.26</time>
   <time name="total">   58.73   59.26</time>
   <energy>
    <i name="e_fr_energy">   -150.49594085 </i>
    <i name="e_wo_entrp">   -150.49512770 </i>
    <i name="e_0_energy">   -150.49553428 </i>
   </energy>
  </scstep>
  <scstep>
   <time name="dav">   61.13   61.68</time>
   <time name="total">   61.13   61.69</time>
   <energy>
    <i name="e_fr_energy">   -318.66694018 </i>
    <i name="e_wo_entrp">   -318.66591340 </i>
    <i name="e_0_energy">   -318.66642679 </i>
   </energy>
  </scstep>
  <scstep>
   <time name="dav">   59.80   60.35</time>
   <time name="total">   59.80   60.36</time>
   <energy>
    <i name="e_fr_energy">   -324.80312188 </i>
    <i name="e_wo_entrp">   -324.80248267 </i>
    <i name="e_0_energy">   -324.80280228 </i>
   </energy>
  </scstep>
  <scstep>
   <time name="dav">   65.35   65.94</time>
   <time name="total">   68.62   69.23</time>
   <energy>
    <i name="e_fr_energy">   -325.03194790 </i>
    <i name="e_wo_entrp">   -325.03129132 </i>
    <i name="e_0_energy">   -325.03161961 </i>
   </energy>
  </scstep>
  <scstep>
   <time name="dav">   59.01   59.55</time>
   <time name="total">   66.18   66.75</time>
   <energy>
    <i name="e_fr_energy">   -318.03757164 </i>
    <i name="e_wo_entrp">   -318.03606651 </i>
    <i name="e_0_energy">   -318.03681907 </i>
   </energy>
  </scstep>
  <scstep>
   <time name="dav">   59.23   59.76</time>
   <time name="total">   66.33   66.90</time>
   <energy>
    <i name="e_fr_energy">   -318.52357202 </i>
    <i name="e_wo_entrp">   -318.52159395 </i>
    <i name="e_0_energy">   -318.52258298 </i>
   </energy>
  </scstep>
  <scstep>
   <time name="dav">   60.11   60.65</time>
   <time name="total">   67.21   67.79</time>
   <energy>
    <i name="e_fr_energy">   -317.18649667 </i>
    <i name="e_wo_entrp">   -317.18542001 </i>
    <i name="e_0_energy">   -317.18595834 </i>
   </energy>
  </scstep>
  <scstep>
   <time name="dav">   58.92   59.56</time>
   <time name="total">   66.04   66.74</time>
   <energy>
    <i name="e_fr_energy">   -317.17737795 </i>
    <i name="e_wo_entrp">   -317.17614955 </i>
    <i name="e_0_energy">   -317.17676375 </i>
   </energy>
  </scstep>
  <scstep>
   <time name="dav">   57.24   57.75</time>
   <time name="total">   64.29   64.84</time>
   <energy>
    <i name="e_fr_energy">   -317.17202185 </i>
    <i name="e_wo_entrp">   -317.17072804 </i>
    <i name="e_0_energy">   -317.17137494 </i>
   </energy>
  </scstep>
  <scstep>
   <time name="dav">   59.48   60.01</time>
   <time name="total">   66.53   67.09</time>
   <energy>
    <i name="e_fr_energy">   -317.17269387 </i>
    <i name="e_wo_entrp">   -317.17141665 </i>
    <i name="e_0_energy">   -317.17205526 </i>
   </energy>
  </scstep>
  <scstep>
   <time name="dav">   58.76   59.29</time>
   <time name="total">   65.85   66.41</time>
   <energy>
    <i name="e_fr_energy">   -317.17312822 </i>
    <i name="e_wo_entrp">   -317.17179890 </i>
    <i name="e_0_energy">   -317.17246356 </i>
   </energy>
  </scstep>
  <scstep>
   <time name="dav">   59.27   59.79</time>
   <time name="total">   66.35   66.91</time>
   <energy>
    <i name="e_fr_energy">   -317.17312489 </i>
    <i name="e_wo_entrp">   -317.17181293 </i>
    <i name="e_0_energy">   -317.17246891 </i>
   </energy>
  </scstep>
  <scstep>
   <time name="dav">   57.87   58.38</time>
   <time name="total">   64.92   65.50</time>
   <energy>
    <i name="e_fr_energy">   -317.17324545 </i>
    <i name="e_wo_entrp">   -317.17196589 </i>
    <i name="e_0_energy">   -317.17260567 </i>
   </energy>
  </scstep>
  <scstep>
   <time name="dav">   58.12   58.66</time>
   <time name="total">   65.15   65.72</time>
   <energy>
    <i name="e_fr_energy">   -317.17329115 </i>
    <i name="e_wo_entrp">   -317.17200971 </i>
    <i name="e_0_energy">   -317.17265043 </i>
   </energy>
  </scstep>
  <scstep>
   <time name="dav">   57.86   58.38</time>
   <time name="total">   64.96   65.51</time>
   <energy>
    <i name="e_fr_energy">   -317.17331657 </i>
    <i name="e_wo_entrp">   -317.17203111 </i>
    <i name="e_0_energy">   -317.17267384 </i>
   </energy>
  </scstep>
  <scstep>
   <time name="dav">   58.27   58.79</time>
   <time name="total">   65.32   65.88</time>
   <energy>
    <i name="e_fr_energy">   -317.17332341 </i>
    <i name="e_wo_entrp">   -317.17204185 </i>
    <i name="e_0_energy">   -317.17268263 </i>
   </energy>
  </scstep>
  <scstep>
   <time name="dav">   57.67   58.18</time>
   <time name="total">   64.74   65.29</time>
   <energy>
    <i name="e_fr_energy">   -317.17332881 </i>
    <i name="e_wo_entrp">   -317.17204978 </i>
    <i name="e_0_energy">   -317.17268929 </i>
   </energy>
  </scstep>
  <scstep>
   <time name="dav">   59.35   59.87</time>
   <time name="total">   66.44   67.00</time>
   <energy>
    <i name="e_fr_energy">   -317.17333227 </i>
    <i name="e_wo_entrp">   -317.17205297 </i>
    <i name="e_0_energy">   -317.17269262 </i>
   </energy>
  </scstep>
  <scstep>
   <time name="dav">   58.71   59.23</time>
   <time name="total">   65.80   66.35</time>
   <energy>
    <i name="e_fr_energy">   -317.17333311 </i>
    <i name="e_wo_entrp">   -317.17205396 </i>
    <i name="e_0_energy">   -317.17269354 </i>
   </energy>
  </scstep>
  <scstep>
   <time name="dav">   51.28   51.72</time>
   <time name="total">   58.39   58.87</time>
   <energy>
    <i name="e_fr_energy">   -317.17333322 </i>
    <i name="e_wo_entrp">   -317.17205471 </i>
    <i name="e_0_energy">   -317.17269396 </i>
   </energy>
  </scstep>
  <scstep>
   <time name="dav">   37.80   38.13</time>
   <time name="total">   41.71   42.05</time>
   <energy>
    <i name="alphaZ">    604.90751195 </i>
    <i name="ewald">  -8382.11577079 </i>
    <i name="hartreedc">   -833.77188507 </i>
    <i name="XCdc">   -579.13070838 </i>
    <i name="pawpsdc">  22093.40651275 </i>
    <i name="pawaedc"> -20941.12892601 </i>
    <i name="eentropy">     -0.00127865 </i>
    <i name="bandstr">   -445.86832371 </i>
    <i name="atom">   8166.52953475 </i>
    <i name="e_fr_energy">   -317.17333317 </i>
    <i name="e_wo_entrp">   -317.17205452 </i>
    <i name="e_0_energy">   -317.17269385 </i>
   </energy>
  </scstep>
  <structure>
   <crystal>
    <varray name="basis" >
     <v>       7.74989032       0.00000000       0.00000000 </v>
     <v>       3.87494516      11.62483548       0.00000000 </v>
     <v>       0.00000000       0.00000000      18.63333333 </v>
    </varray>
    <i name="volume">   1678.69936005 </i>
    <varray name="rec_basis" >
     <v>       0.12903408      -0.04301136       0.00000000 </v>
     <v>       0.00000000       0.08602272       0.00000000 </v>
     <v>       0.00000000       0.00000000       0.05366726 </v>
    </varray>
   </crystal>
   <varray name="positions" >
    <v>       0.00000000       0.00000000       0.00000000 </v>
    <v>       0.11111111       0.27777778       0.04901610 </v>
    <v>       0.22222222       0.55555556       0.09803220 </v>
    <v>       0.50000000       0.00000000       0.00000000 </v>
    <v>       0.61111111       0.27777778       0.04901610 </v>
    <v>       0.72222222       0.55555556       0.09803220 </v>
    <v>       0.80555556       0.88888889       0.02450805 </v>
    <v>       0.91666667       0.16666667       0.07352415 </v>
    <v>       0.02777778       0.44444444       0.12254025 </v>
    <v>       0.30555556       0.88888889       0.02450805 </v>
    <v>       0.41666667       0.16666667       0.07352415 </v>
    <v>       0.52777778       0.44444444       0.12254025 </v>
    <v>       0.00000000       0.05737705       0.18157424 </v>
    <v>       0.33333333       0.89071038       0.33345259 </v>
    <v>       0.66666667       0.72404372       0.48533095 </v>
    <v>       0.00000000       0.55737705       0.63720930 </v>
    <v>       0.33333333       0.39071038       0.78908766 </v>
    <v>       0.66666667       0.22404372       0.94096601 </v>
    <v>       0.33333333       0.39071038       0.18157424 </v>
    <v>       0.66666667       0.22404372       0.33345259 </v>
    <v>       0.00000000       0.05737705       0.48533095 </v>
    <v>       0.33333333       0.89071038       0.63720930 </v>
    <v>       0.66666667       0.72404372       0.78908766 </v>
    <v>       0.00000000       0.55737705       0.94096601 </v>
    <v>       0.66666667       0.72404372       0.18157424 </v>
    <v>       0.00000000       0.55737705       0.33345259 </v>
    <v>       0.33333333       0.39071038       0.48533095 </v>
    <v>       0.66666667       0.22404372       0.63720930 </v>
    <v>       0.00000000       0.05737705       0.78908766 </v>
    <v>       0.33333333       0.89071038       0.94096601 </v>
    <v>       0.50000000       0.05737705       0.18157424 </v>
    <v>       0.83333333       0.89071038       0.33345259 </v>
    <v>       0.16666667       0.72404372       0.48533095 </v>
    <v>       0.50000000       0.55737705       0.63720930 </v>
    <v>       0.83333333       0.39071038       0.78908766 </v>
    <v>       0.16666667       0.22404372       0.94096601 </v>
    <v>       0.83333333       0.39071038       0.18157424 </v>
    <v>       0.16666667       0.22404372       0.33345259 </v>
    <v>       0.50000000       0.05737705       0.48533095 </v>
    <v>       0.83333333       0.89071038       0.63720930 </v>
    <v>       0.16666667       0.72404372       0.78908766 </v>
    <v>       0.50000000       0.55737705       0.94096601 </v>
    <v>       0.16666667       0.72404372       0.18157424 </v>
    <v>       0.50000000       0.55737705       0.33345259 </v>
    <v>       0.83333333       0.39071038       0.48533095 </v>
    <v>       0.16666667       0.22404372       0.63720930 </v>
    <v>       0.50000000       0.05737705       0.78908766 </v>
    <v>       0.83333333       0.89071038       0.94096601 </v>
    <v>       0.91666667       0.22404372       0.25751342 </v>
    <v>       0.25000000       0.05737705       0.40939177 </v>
    <v>       0.58333333       0.89071038       0.56127013 </v>
    <v>       0.91666667       0.72404372       0.71314848 </v>
    <v>       0.25000000       0.55737705       0.86502683 </v>
    <v>       0.25000000       0.55737705       0.25751342 </v>
    <v>       0.58333333       0.39071038       0.40939177 </v>
    <v>       0.91666667       0.22404372       0.56127013 </v>
    <v>       0.25000000       0.05737705       0.71314848 </v>
    <v>       0.58333333       0.89071038       0.86502683 </v>
    <v>       0.58333333       0.89071038       0.25751342 </v>
    <v>       0.91666667       0.72404372       0.40939177 </v>
    <v>       0.25000000       0.55737705       0.56127013 </v>
    <v>       0.58333333       0.39071038       0.71314848 </v>
    <v>       0.91666667       0.22404372       0.86502683 </v>
    <v>       0.41666667       0.22404372       0.25751342 </v>
    <v>       0.75000000       0.05737705       0.40939177 </v>
    <v>       0.08333333       0.89071038       0.56127013 </v>
    <v>       0.41666667       0.72404372       0.71314848 </v>
    <v>       0.75000000       0.55737705       0.86502683 </v>
    <v>       0.75000000       0.55737705       0.25751342 </v>
    <v>       0.08333333       0.39071038       0.40939177 </v>
    <v>       0.41666667       0.22404372       0.56127013 </v>
    <v>       0.75000000       0.05737705       0.71314848 </v>
    <v>       0.08333333       0.89071038       0.86502683 </v>
    <v>       0.08333333       0.89071038       0.25751342 </v>
    <v>       0.41666667       0.72404372       0.40939177 </v>
    <v>       0.75000000       0.55737705       0.56127013 </v>
    <v>       0.08333333       0.39071038       0.71314848 </v>
    <v>       0.41666667       0.22404372       0.86502683 </v>
   </varray>
  </structure>
  <varray name="forces" >
   <v>       0.17679664       1.40324656       1.24127248 </v>
   <v>      -0.14927022       0.86964096       3.28240091 </v>
   <v>      -0.73404761       1.93001350      -1.56512072 </v>
   <v>       0.17679664       1.40324656       1.24127248 </v>
   <v>      -0.14927022       0.86964096       3.28240091 </v>
   <v>      -0.73404761       1.93001350      -1.56512072 </v>
   <v>      -5.31950246      -0.55921535      38.91067956 </v>
   <v>      -0.12678606      -0.44913444       0.09682348 </v>
   <v>       2.73026702       0.33572663      -2.44516444 </v>
   <v>      -5.31950246      -0.55921535      38.91067956 </v>
   <v>      -0.12678606      -0.44913444       0.09682348 </v>
   <v>       2.73026702       0.33572663      -2.44516444 </v>
   <v>       0.14071967       0.36254508      -0.34276987 </v>
   <v>       0.02775017      -0.05010253       0.05071368 </v>
   <v>       0.01298866       0.00902302      -0.00041622 </v>
   <v>       0.00217531      -0.00367858      -0.02220653 </v>
   <v>       0.03253957       0.01283964      -0.22515675 </v>
   <v>       0.34218655      -0.82634634      -3.50057020 </v>
   <v>      -2.04961268      -2.15183929       2.70917203 </v>
   <v>       0.01156134       0.25372105       0.10610425 </v>
   <v>       0.01962519      -0.04288578       0.00940594 </v>
   <v>       0.00927448       0.00528296       0.03925837 </v>
   <v>       0.02812962      -0.06948810      -0.33266349 </v>
   <v>       0.20921743      -0.39000088       1.35874690 </v>
   <v>       0.10174843      -0.27963146      -1.30629384 </v>
   <v>       0.02381778      -0.12607685       0.11506747 </v>
   <v>       0.01282854       0.02826540      -0.04197017 </v>
   <v>       0.00863122      -0.01412803      -0.03227695 </v>
   <v>      -0.06895007      -0.02002655      -0.04152998 </v>
   <v>       5.00176080      -0.56033560     -37.91169031 </v>
   <v>       0.14071967       0.36254508      -0.34276987 </v>
   <v>       0.02775017      -0.05010253       0.05071368 </v>
   <v>       0.01298866       0.00902302      -0.00041622 </v>
   <v>       0.00217531      -0.00367858      -0.02220653 </v>
   <v>       0.03253957       0.01283964      -0.22515675 </v>
   <v>       0.34218655      -0.82634634      -3.50057020 </v>
   <v>      -2.04961268      -2.15183929       2.70917203 </v>
   <v>       0.01156134       0.25372105       0.10610425 </v>
   <v>       0.01962519      -0.04288578       0.00940594 </v>
   <v>       0.00927448       0.00528296       0.03925837 </v>
   <v>       0.02812962      -0.06948810      -0.33266349 </v>
   <v>       0.20921743      -0.39000088       1.35874690 </v>
   <v>       0.10174843      -0.27963146      -1.30629384 </v>
   <v>       0.02381778      -0.12607685       0.11506747 </v>
   <v>       0.01282854       0.02826540      -0.04197017 </v>
   <v>       0.00863122      -0.01412803      -0.03227695 </v>
   <v>      -0.06895007      -0.02002655      -0.04152998 </v>
   <v>       5.00176080      -0.56033560     -37.91169031 </v>
   <v>      -0.06887004      -0.41183578       0.27428789 </v>
   <v>      -0.03785128       0.10788696      -0.03688910 </v>
   <v>      -0.01562590      -0.02320578      -0.00535849 </v>
   <v>      -0.04345876      -0.03898356      -0.06072847 </v>
   <v>      -0.08633867      -0.01409917       0.04289045 </v>
   <v>      -0.07543105       0.44760238       0.86591396 </v>
   <v>      -0.01362768      -0.00313547       0.15367373 </v>
   <v>      -0.02239447       0.07511827      -0.01050276 </v>
   <v>      -0.01699695       0.01399415      -0.04831610 </v>
   <v>       0.17374444      -0.03087714      -1.22498265 </v>
   <v>      -0.18330685       0.05202902      -0.42116144 </v>
   <v>      -0.02035736      -0.10313878       0.00113511 </v>
   <v>      -0.02205697      -0.01675587       0.02914410 </v>
   <v>      -0.01203316       0.06269507      -0.04615589 </v>
   <v>       0.00075540       0.21529071       0.33523403 </v>
   <v>      -0.06887004      -0.41183578       0.27428789 </v>
   <v>      -0.03785128       0.10788696      -0.03688910 </v>
   <v>      -0.01562590      -0.02320578      -0.00535849 </v>
   <v>      -0.04345876      -0.03898356      -0.06072847 </v>
   <v>      -0.08633867      -0.01409917       0.04289045 </v>
   <v>      -0.07543105       0.44760238       0.86591396 </v>
   <v>      -0.01362768      -0.00313547       0.15367373 </v>
   <v>      -0.02239447       0.07511827      -0.01050276 </v>
   <v>      -0.01699695       0.01399415      -0.04831610 </v>
   <v>       0.17374444      -0.03087714      -1.22498265 </v>
   <v>      -0.18330685       0.05202902      -0.42116144 </v>
   <v>      -0.02035736      -0.10313878       0.00113511 </v>
   <v>      -0.02205697      -0.01675587       0.02914410 </v>
   <v>      -0.01203316       0.06269507      -0.04615589 </v>
   <v>       0.00075540       0.21529071       0.33523403 </v>
  </varray>
  <varray name="stress" >
   <v>      97.67388955       1.24241909     -21.96752118 </v>
   <v>       1.24241989      87.10771489       0.17659707 </v>
   <v>     -21.96753581       0.17657505     224.57576328 </v>
  </varray>
  <energy>
   <i name="e_fr_energy">   -317.17333317 </i>
   <i name="e_wo_entrp">   -317.17205452 </i>
   <i name="e_0_energy">   -317.17269385 </i>
  </energy>
  <time name="totalsc"> 1473.44 1486.58</time>
  <eigenvalues>
   <array>
    <dimension dim="1">band</dimension>
    <dimension dim="2">kpoint</dimension>
    <dimension dim="3">spin</dimension>
    <field>eigene</field>
    <field>occ</field>
    <set>
     <set comment="spin 1">
      <set comment="kpoint 1">
       <r>   -9.7889    1.0000 </r>
       <r>   -9.0916    1.0000 </r>
       <r>   -8.7116    1.0000 </r>
       <r>   -8.3420    1.0000 </r>
       <r>   -8.3060    1.0000 </r>
       <r>   -7.9152    1.0000 </r>
       <r>   -7.8192    1.0000 </r>
       <r>   -7.7347    1.0000 </r>
       <r>   -7.6761    1.0000 </r>
       <r>   -7.5427    1.0000 </r>
       <r>   -7.4705    1.0000 </r>
       <r>   -7.3235    1.0000 </r>
       <r>   -7.0252    1.0000 </r>
       <r>   -6.8918    1.0000 </r>
       <r>   -6.7810    1.0000 </r>
       <r>   -6.6490    1.0000 </r>
       <r>   -6.6082    1.0000 </r>
       <r>   -6.5872    1.0000 </r>
       <r>   -6.5411    1.0000 </r>
       <r>   -6.5360    1.0000 </r>
       <r>   -6.5273    1.0000 </r>
       <r>   -6.4964    1.0000 </r>
       <r>   -6.4347    1.0000 </r>
       <r>   -6.4249    1.0000 </r>
       <r>   -6.3580    1.0000 </r>
       <r>   -6.2034    1.0000 </r>
       <r>   -6.1791    1.0000 </r>
       <r>   -5.7303    1.0000 </r>
       <r>   -5.5567    1.0000 </r>
       <r>   -5.5482    1.0000 </r>
       <r>   -5.3372    1.0000 </r>
       <r>   -5.2784    1.0000 </r>
       <r>   -5.0632    1.0000 </r>
       <r>   -4.9249    1.0000 </r>
       <r>   -4.8933    1.0000 </r>
       <r>   -4.7856    1.0000 </r>
       <r>   -4.7260    1.0000 </r>
       <r>   -4.7023    1.0000 </r>
       <r>   -4.6967    1.0000 </r>
       <r>   -4.6809    1.0000 </r>
       <r>   -4.6453    1.0000 </r>
       <r>   -4.6310    1.0000 </r>
       <r>   -4.6035    1.0000 </r>
       <r>   -4.5898    1.0000 </r>
       <r>   -4.0486    1.0000 </r>
       <r>   -3.9868    1.0000 </r>
       <r>   -3.9472    1.0000 </r>
       <r>   -3.6231    1.0000 </r>
       <r>   -3.6080    1.0000 </r>
       <r>   -3.5437    1.0000 </r>
       <r>   -3.4933    1.0000 </r>
       <r>   -3.3542    1.0000 </r>
       <r>   -3.2511    1.0000 </r>
       <r>   -3.2387    1.0000 </r>
       <r>   -3.1010    1.0000 </r>
       <r>   -3.0684    1.0000 </r>
       <r>   -2.9596    1.0000 </r>
       <r>   -2.8675    1.0000 </r>
       <r>   -2.7467    1.0000 </r>
       <r>   -2.7210    1.0000 </r>
       <r>   -2.6993    1.0000 </r>
       <r>   -2.5749    1.0000 </r>
       <r>   -2.5005    1.0000 </r>
       <r>   -2.4792    1.0000 </r>
       <r>   -2.3972    1.0000 </r>
       <r>   -2.2365    1.0000 </r>
       <r>   -2.1243    1.0000 </r>
       <r>   -1.9338    1.0000 </r>
       <r>   -1.7531    1.0000 </r>
       <r>   -1.4383    1.0000 </r>
       <r>   -1.3969    1.0000 </r>
       <r>   -1.0583    1.0000 </r>
       <r>   -0.8901    1.0000 </r>
       <r>   -0.7227    1.0000 </r>
       <r>   -0.4655    1.0000 </r>
       <r>   -0.4442    1.0000 </r>
       <r>   -0.2964    1.0000 </r>
       <r>   -0.1718    1.0000 </r>
       <r>   -0.1636    1.0000 </r>
       <r>   -0.0689    1.0000 </r>
       <r>   -0.0162    1.0000 </r>
       <r>    0.0084    1.0000 </r>
       <r>    0.1900    1.0000 </r>
       <r>    0.2123    1.0000 </r>
       <r>    0.2702    1.0000 </r>
       <r>    0.2796    1.0000 </r>
       <r>    0.3341    1.0000 </r>
       <r>    0.3508    1.0000 </r>
       <r>    0.3832    1.0000 </r>
       <r>    0.4656    1.0000 </r>
       <r>    0.5062    1.0000 </r>
       <r>    0.5447    1.0000 </r>
       <r>    0.6013    1.0000 </r>
       <r>    0.6553    1.0000 </r>
       <r>    0.6790    1.0000 </r>
       <r>    0.7262    1.0000 </r>
       <r>    0.7842    1.0000 </r>
       <r>    0.8101    1.0000 </r>
       <r>    0.8416    1.0000 </r>
       <r>    0.9079    1.0000 </r>
       <r>    0.9549    1.0000 </r>
       <r>    1.1486    1.0000 </r>
       <r>    1.1853    1.0000 </r>
       <r>    1.1858    1.0000 </r>
       <r>    1.1972    1.0000 </r>
       <r>    1.2968    1.0000 </r>
       <r>    1.3566    1.0000 </r>
       <r>    1.3611    1.0000 </r>
       <r>    1.3696    1.0000 </r>
       <r>    1.4840    1.0000 </r>
       <r>    1.5424    1.0000 </r>
       <r>    1.5850    1.0000 </r>
       <r>    1.6128    1.0000 </r>
       <r>    1.6444    1.0000 </r>
       <r>    1.7442    1.0000 </r>
       <r>    1.8282    1.0000 </r>
       <r>    1.9259    1.0000 </r>
       <r>    1.9487    1.0000 </r>
       <r>    1.9556    1.0000 </r>
       <r>    2.0027    1.0000 </r>
       <r>    2.0068    1.0000 </r>
       <r>    2.0290    1.0000 </r>
       <r>    2.0520    1.0000 </r>
       <r>    2.0712    1.0000 </r>
       <r>    2.1382    1.0000 </r>
       <r>    2.1546    1.0000 </r>
       <r>    2.1596    1.0000 </r>
       <r>    2.1797    1.0000 </r>
       <r>    2.2868    1.0000 </r>
       <r>    2.3457    1.0000 </r>
       <r>    2.3999    1.0000 </r>
       <r>    2.4513    1.0000 </r>
       <r>    2.4740    1.0000 </r>
       <r>    2.4752    1.0000 </r>
       <r>    2.5439    1.0000 </r>
       <r>    2.6172    1.0000 </r>
       <r>    2.6844    1.0000 </r>
       <r>    2.9098    1.0000 </r>
       <r>    2.9823    1.0000 </r>
       <r>    3.0052    1.0000 </r>
       <r>    3.0301    1.0000 </r>
       <r>    3.1859    1.0000 </r>
       <r>    3.2330    1.0000 </r>
       <r>    3.2852    1.0000 </r>
       <r>    3.3015    1.0000 </r>
       <r>    3.3525    1.0000 </r>
       <r>    3.3829    1.0000 </r>
       <r>    3.4479    1.0000 </r>
       <r>    3.4976    1.0000 </r>
       <r>    3.5509    1.0000 </r>
       <r>    3.6353    1.0000 </r>
       <r>    3.7366    1.0000 </r>
       <r>    3.7673    1.0000 </r>
       <r>    3.8806    1.0000 </r>
       <r>    3.9412    1.0000 </r>
       <r>    4.0023    1.0000 </r>
       <r>    4.0414    1.0000 </r>
       <r>    4.4088    0.0000 </r>
       <r>    4.4239    0.0000 </r>
       <r>    4.4982    0.0000 </r>
       <r>    4.6155    0.0000 </r>
       <r>    4.6686    0.0000 </r>
       <r>    4.8461    0.0000 </r>
       <r>    4.8884    0.0000 </r>
       <r>    5.1444    0.0000 </r>
       <r>    5.1756    0.0000 </r>
       <r>    5.2100    0.0000 </r>
       <r>    5.2668    0.0000 </r>
       <r>    5.3315    0.0000 </r>
       <r>    5.4569    0.0000 </r>
       <r>    5.4831    0.0000 </r>
       <r>    5.5100    0.0000 </r>
       <r>    5.5976    0.0000 </r>
       <r>    5.6096    0.0000 </r>
       <r>    5.6845    0.0000 </r>
       <r>    5.7145    0.0000 </r>
       <r>    5.7860    0.0000 </r>
       <r>    5.7996    0.0000 </r>
       <r>    5.8577    0.0000 </r>
       <r>    5.8817    0.0000 </r>
       <r>    5.9491    0.0000 </r>
       <r>    5.9545    0.0000 </r>
       <r>    5.9971    0.0000 </r>
       <r>    6.0112    0.0000 </r>
       <r>    6.1004    0.0000 </r>
       <r>    6.1102    0.0000 </r>
       <r>    6.1389    0.0000 </r>
       <r>    6.1810    0.0000 </r>
      </set>
      <set comment="kpoint 2">
       <r>   -9.6574    1.0000 </r>
       <r>   -8.9585    1.0000 </r>
       <r>   -8.7193    1.0000 </r>
       <r>   -8.5661    1.0000 </r>
       <r>   -8.1747    1.0000 </r>
       <r>   -8.0290    1.0000 </r>
       <r>   -7.9048    1.0000 </r>
       <r>   -7.7074    1.0000 </r>
       <r>   -7.5073    1.0000 </r>
       <r>   -7.4646    1.0000 </r>
       <r>   -7.4258    1.0000 </r>
       <r>   -7.3079    1.0000 </r>
       <r>   -7.2368    1.0000 </r>
       <r>   -7.1181    1.0000 </r>
       <r>   -7.1136    1.0000 </r>
       <r>   -6.9466    1.0000 </r>
       <r>   -6.9182    1.0000 </r>
       <r>   -6.7698    1.0000 </r>
       <r>   -6.6551    1.0000 </r>
       <r>   -6.4895    1.0000 </r>
       <r>   -6.4884    1.0000 </r>
       <r>   -6.3002    1.0000 </r>
       <r>   -6.2830    1.0000 </r>
       <r>   -6.2313    1.0000 </r>
       <r>   -6.0874    1.0000 </r>
       <r>   -6.0112    1.0000 </r>
       <r>   -5.8995    1.0000 </r>
       <r>   -5.7723    1.0000 </r>
       <r>   -5.7097    1.0000 </r>
       <r>   -5.6388    1.0000 </r>
       <r>   -5.5346    1.0000 </r>
       <r>   -5.4517    1.0000 </r>
       <r>   -5.3864    1.0000 </r>
       <r>   -5.3259    1.0000 </r>
       <r>   -5.2495    1.0000 </r>
       <r>   -5.2449    1.0000 </r>
       <r>   -4.9036    1.0000 </r>
       <r>   -4.7695    1.0000 </r>
       <r>   -4.6974    1.0000 </r>
       <r>   -4.4369    1.0000 </r>
       <r>   -4.3006    1.0000 </r>
       <r>   -4.1034    1.0000 </r>
       <r>   -4.0280    1.0000 </r>
       <r>   -3.9776    1.0000 </r>
       <r>   -3.8355    1.0000 </r>
       <r>   -3.7334    1.0000 </r>
       <r>   -3.6427    1.0000 </r>
       <r>   -3.5970    1.0000 </r>
       <r>   -3.5244    1.0000 </r>
       <r>   -3.4911    1.0000 </r>
       <r>   -3.4588    1.0000 </r>
       <r>   -3.4018    1.0000 </r>
       <r>   -3.3729    1.0000 </r>
       <r>   -3.2149    1.0000 </r>
       <r>   -3.1325    1.0000 </r>
       <r>   -2.9644    1.0000 </r>
       <r>   -2.9291    1.0000 </r>
       <r>   -2.8812    1.0000 </r>
       <r>   -2.7392    1.0000 </r>
       <r>   -2.5689    1.0000 </r>
       <r>   -2.5470    1.0000 </r>
       <r>   -2.4035    1.0000 </r>
       <r>   -2.3494    1.0000 </r>
       <r>   -2.1227    1.0000 </r>
       <r>   -1.9175    1.0000 </r>
       <r>   -1.8375    1.0000 </r>
       <r>   -1.7941    1.0000 </r>
       <r>   -1.5990    1.0000 </r>
       <r>   -1.5086    1.0000 </r>
       <r>   -1.3442    1.0000 </r>
       <r>   -1.3232    1.0000 </r>
       <r>   -1.1772    1.0000 </r>
       <r>   -1.0172    1.0000 </r>
       <r>   -0.9922    1.0000 </r>
       <r>   -0.7881    1.0000 </r>
       <r>   -0.5981    1.0000 </r>
       <r>   -0.3577    1.0000 </r>
       <r>   -0.3390    1.0000 </r>
       <r>   -0.2637    1.0000 </r>
       <r>   -0.2040    1.0000 </r>
       <r>   -0.1155    1.0000 </r>
       <r>   -0.1029    1.0000 </r>
       <r>   -0.0106    1.0000 </r>
       <r>    0.0206    1.0000 </r>
       <r>    0.0568    1.0000 </r>
       <r>    0.1299    1.0000 </r>
       <r>    0.1487    1.0000 </r>
       <r>    0.2428    1.0000 </r>
       <r>    0.3568    1.0000 </r>
       <r>    0.3856    1.0000 </r>
       <r>    0.4238    1.0000 </r>
       <r>    0.5175    1.0000 </r>
       <r>    0.5416    1.0000 </r>
       <r>    0.6069    1.0000 </r>
       <r>    0.6324    1.0000 </r>
       <r>    0.7421    1.0000 </r>
       <r>    0.7481    1.0000 </r>
       <r>    0.8757    1.0000 </r>
       <r>    0.9427    1.0000 </r>
       <r>    0.9712    1.0000 </r>
       <r>    0.9830    1.0000 </r>
       <r>    1.0397    1.0000 </r>
       <r>    1.0897    1.0000 </r>
       <r>    1.1282    1.0000 </r>
       <r>    1.1491    1.0000 </r>
       <r>    1.1962    1.0000 </r>
       <r>    1.2473    1.0000 </r>
       <r>    1.2937    1.0000 </r>
       <r>    1.3683    1.0000 </r>
       <r>    1.3845    1.0000 </r>
       <r>    1.4371    1.0000 </r>
       <r>    1.4480    1.0000 </r>
       <r>    1.4534    1.0000 </r>
       <r>    1.5505    1.0000 </r>
       <r>    1.5613    1.0000 </r>
       <r>    1.6086    1.0000 </r>
       <r>    1.6705    1.0000 </r>
       <r>    1.6895    1.0000 </r>
       <r>    1.7604    1.0000 </r>
       <r>    1.7649    1.0000 </r>
       <r>    1.7867    1.0000 </r>
       <r>    1.8024    1.0000 </r>
       <r>    1.8746    1.0000 </r>
       <r>    1.9119    1.0000 </r>
       <r>    1.9379    1.0000 </r>
       <r>    1.9561    1.0000 </r>
       <r>    2.0530    1.0000 </r>
       <r>    2.1179    1.0000 </r>
       <r>    2.1342    1.0000 </r>
       <r>    2.1904    1.0000 </r>
       <r>    2.2328    1.0000 </r>
       <r>    2.2747    1.0000 </r>
       <r>    2.3033    1.0000 </r>
       <r>    2.4142    1.0000 </r>
       <r>    2.4857    1.0000 </r>
       <r>    2.5237    1.0000 </r>
       <r>    2.5653    1.0000 </r>
       <r>    2.6311    1.0000 </r>
       <r>    2.6458    1.0000 </r>
       <r>    2.6743    1.0000 </r>
       <r>    2.6919    1.0000 </r>
       <r>    2.7839    1.0000 </r>
       <r>    2.8555    1.0000 </r>
       <r>    3.0697    1.0000 </r>
       <r>    3.1318    1.0000 </r>
       <r>    3.1446    1.0000 </r>
       <r>    3.3266    1.0000 </r>
       <r>    3.3524    1.0000 </r>
       <r>    3.5050    1.0000 </r>
       <r>    3.5259    1.0000 </r>
       <r>    3.6810    1.0000 </r>
       <r>    3.7906    1.0000 </r>
       <r>    3.8170    1.0000 </r>
       <r>    3.9331    1.0000 </r>
       <r>    4.0319    1.0000 </r>
       <r>    4.1258    1.0000 </r>
       <r>    4.2139    0.6655 </r>
       <r>    4.2668    0.0000 </r>
       <r>    4.4501    0.0000 </r>
       <r>    4.6031    0.0000 </r>
       <r>    4.6975    0.0000 </r>
       <r>    4.7767    0.0000 </r>
       <r>    4.8913    0.0000 </r>
       <r>    4.9754    0.0000 </r>
       <r>    5.1526    0.0000 </r>
       <r>    5.2142    0.0000 </r>
       <r>    5.2718    0.0000 </r>
       <r>    5.4077    0.0000 </r>
       <r>    5.4824    0.0000 </r>
       <r>    5.5593    0.0000 </r>
       <r>    5.6122    0.0000 </r>
       <r>    5.6450    0.0000 </r>
       <r>    5.8493    0.0000 </r>
       <r>    5.8512    0.0000 </r>
       <r>    5.9229    0.0000 </r>
       <r>    5.9692    0.0000 </r>
       <r>    5.9779    0.0000 </r>
       <r>    6.1562    0.0000 </r>
       <r>    6.1592    0.0000 </r>
       <r>    6.2284    0.0000 </r>
       <r>    6.2453    0.0000 </r>
       <r>    6.2751    0.0000 </r>
       <r>    6.3309    0.0000 </r>
       <r>    6.3704    0.0000 </r>
       <r>    6.4099    0.0000 </r>
       <r>    6.4324    0.0000 </r>
       <r>    6.5379    0.0000 </r>
       <r>    6.5889    0.0000 </r>
      </set>
      <set comment="kpoint 3">
       <r>   -9.2768    1.0000 </r>
       <r>   -9.2768    1.0000 </r>
       <r>   -8.5762    1.0000 </r>
       <r>   -8.5762    1.0000 </r>
       <r>   -8.1384    1.0000 </r>
       <r>   -8.1384    1.0000 </r>
       <r>   -7.8006    1.0000 </r>
       <r>   -7.8006    1.0000 </r>
       <r>   -7.6409    1.0000 </r>
       <r>   -7.6409    1.0000 </r>
       <r>   -7.4299    1.0000 </r>
       <r>   -7.4299    1.0000 </r>
       <r>   -7.1448    1.0000 </r>
       <r>   -7.1448    1.0000 </r>
       <r>   -6.9796    1.0000 </r>
       <r>   -6.9796    1.0000 </r>
       <r>   -6.7784    1.0000 </r>
       <r>   -6.7784    1.0000 </r>
       <r>   -6.6405    1.0000 </r>
       <r>   -6.6405    1.0000 </r>
       <r>   -6.5408    1.0000 </r>
       <r>   -6.5408    1.0000 </r>
       <r>   -6.3542    1.0000 </r>
       <r>   -6.3542    1.0000 </r>
       <r>   -6.1707    1.0000 </r>
       <r>   -6.1707    1.0000 </r>
       <r>   -5.9460    1.0000 </r>
       <r>   -5.9460    1.0000 </r>
       <r>   -5.8202    1.0000 </r>
       <r>   -5.8202    1.0000 </r>
       <r>   -5.4902    1.0000 </r>
       <r>   -5.4902    1.0000 </r>
       <r>   -5.3473    1.0000 </r>
       <r>   -5.3473    1.0000 </r>
       <r>   -5.0675    1.0000 </r>
       <r>   -5.0675    1.0000 </r>
       <r>   -4.7848    1.0000 </r>
       <r>   -4.7848    1.0000 </r>
       <r>   -4.4407    1.0000 </r>
       <r>   -4.4407    1.0000 </r>
       <r>   -4.1821    1.0000 </r>
       <r>   -4.1821    1.0000 </r>
       <r>   -4.0336    1.0000 </r>
       <r>   -4.0336    1.0000 </r>
       <r>   -3.6358    1.0000 </r>
       <r>   -3.6358    1.0000 </r>
       <r>   -3.4827    1.0000 </r>
       <r>   -3.4827    1.0000 </r>
       <r>   -3.3444    1.0000 </r>
       <r>   -3.3444    1.0000 </r>
       <r>   -3.2992    1.0000 </r>
       <r>   -3.2992    1.0000 </r>
       <r>   -3.1309    1.0000 </r>
       <r>   -3.1309    1.0000 </r>
       <r>   -2.9911    1.0000 </r>
       <r>   -2.9911    1.0000 </r>
       <r>   -2.6926    1.0000 </r>
       <r>   -2.6926    1.0000 </r>
       <r>   -2.4651    1.0000 </r>
       <r>   -2.4651    1.0000 </r>
       <r>   -2.2473    1.0000 </r>
       <r>   -2.2473    1.0000 </r>
       <r>   -2.1012    1.0000 </r>
       <r>   -2.1012    1.0000 </r>
       <r>   -1.8372    1.0000 </r>
       <r>   -1.8372    1.0000 </r>
       <r>   -1.5391    1.0000 </r>
       <r>   -1.5391    1.0000 </r>
       <r>   -1.4445    1.0000 </r>
       <r>   -1.4445    1.0000 </r>
       <r>   -1.1345    1.0000 </r>
       <r>   -1.1345    1.0000 </r>
       <r>   -0.8266    1.0000 </r>
       <r>   -0.8266    1.0000 </r>
       <r>   -0.5787    1.0000 </r>
       <r>   -0.5787    1.0000 </r>
       <r>   -0.3500    1.0000 </r>
       <r>   -0.3500    1.0000 </r>
       <r>   -0.2857    1.0000 </r>
       <r>   -0.2857    1.0000 </r>
       <r>   -0.0983    1.0000 </r>
       <r>   -0.0983    1.0000 </r>
       <r>   -0.0459    1.0000 </r>
       <r>   -0.0459    1.0000 </r>
       <r>    0.0545    1.0000 </r>
       <r>    0.0545    1.0000 </r>
       <r>    0.1101    1.0000 </r>
       <r>    0.1101    1.0000 </r>
       <r>    0.1855    1.0000 </r>
       <r>    0.1855    1.0000 </r>
       <r>    0.2641    1.0000 </r>
       <r>    0.2641    1.0000 </r>
       <r>    0.3064    1.0000 </r>
       <r>    0.3064    1.0000 </r>
       <r>    0.4305    1.0000 </r>
       <r>    0.4305    1.0000 </r>
       <r>    0.5124    1.0000 </r>
       <r>    0.5124    1.0000 </r>
       <r>    0.6609    1.0000 </r>
       <r>    0.6609    1.0000 </r>
       <r>    0.7840    1.0000 </r>
       <r>    0.7840    1.0000 </r>
       <r>    0.8743    1.0000 </r>
       <r>    0.8743    1.0000 </r>
       <r>    1.0388    1.0000 </r>
       <r>    1.0388    1.0000 </r>
       <r>    1.1231    1.0000 </r>
       <r>    1.1231    1.0000 </r>
       <r>    1.1915    1.0000 </r>
       <r>    1.1915    1.0000 </r>
       <r>    1.3317    1.0000 </r>
       <r>    1.3317    1.0000 </r>
       <r>    1.4195    1.0000 </r>
       <r>    1.4195    1.0000 </r>
       <r>    1.4455    1.0000 </r>
       <r>    1.4455    1.0000 </r>
       <r>    1.5609    1.0000 </r>
       <r>    1.5609    1.0000 </r>
       <r>    1.5950    1.0000 </r>
       <r>    1.5950    1.0000 </r>
       <r>    1.6409    1.0000 </r>
       <r>    1.6409    1.0000 </r>
       <r>    1.7232    1.0000 </r>
       <r>    1.7232    1.0000 </r>
       <r>    1.8724    1.0000 </r>
       <r>    1.8724    1.0000 </r>
       <r>    1.9247    1.0000 </r>
       <r>    1.9247    1.0000 </r>
       <r>    2.0529    1.0000 </r>
       <r>    2.0529    1.0000 </r>
       <r>    2.2263    1.0000 </r>
       <r>    2.2263    1.0000 </r>
       <r>    2.2920    1.0000 </r>
       <r>    2.2920    1.0000 </r>
       <r>    2.4881    1.0000 </r>
       <r>    2.4881    1.0000 </r>
       <r>    2.5382    1.0000 </r>
       <r>    2.5382    1.0000 </r>
       <r>    2.5477    1.0000 </r>
       <r>    2.5477    1.0000 </r>
       <r>    2.8249    1.0000 </r>
       <r>    2.8249    1.0000 </r>
       <r>    2.9261    1.0000 </r>
       <r>    2.9261    1.0000 </r>
       <r>    3.0677    1.0000 </r>
       <r>    3.0677    1.0000 </r>
       <r>    3.1803    1.0000 </r>
       <r>    3.1803    1.0000 </r>
       <r>    3.3506    1.0000 </r>
       <r>    3.3506    1.0000 </r>
       <r>    3.7620    1.0000 </r>
       <r>    3.7620    1.0000 </r>
       <r>    3.8582    1.0000 </r>
       <r>    3.8582    1.0000 </r>
       <r>    4.2065    0.9303 </r>
       <r>    4.2065    0.9303 </r>
       <r>    4.3611    0.0000 </r>
       <r>    4.3611    0.0000 </r>
       <r>    4.5372    0.0000 </r>
       <r>    4.5372    0.0000 </r>
       <r>    4.6919    0.0000 </r>
       <r>    4.6919    0.0000 </r>
       <r>    5.0850    0.0000 </r>
       <r>    5.0850    0.0000 </r>
       <r>    5.3168    0.0000 </r>
       <r>    5.3168    0.0000 </r>
       <r>    5.4828    0.0000 </r>
       <r>    5.4828    0.0000 </r>
       <r>    5.7040    0.0000 </r>
       <r>    5.7040    0.0000 </r>
       <r>    5.9149    0.0000 </r>
       <r>    5.9149    0.0000 </r>
       <r>    6.0298    0.0000 </r>
       <r>    6.0298    0.0000 </r>
       <r>    6.2088    0.0000 </r>
       <r>    6.2088    0.0000 </r>
       <r>    6.2888    0.0000 </r>
       <r>    6.2888    0.0000 </r>
       <r>    6.3482    0.0000 </r>
       <r>    6.3482    0.0000 </r>
       <r>    6.3752    0.0000 </r>
       <r>    6.3752    0.0000 </r>
       <r>    6.4732    0.0000 </r>
       <r>    6.4732    0.0000 </r>
       <r>    6.5492    0.0000 </r>
       <r>    6.5492    0.0000 </r>
       <r>    6.6268    0.0000 </r>
       <r>    6.6279    0.0000 </r>
      </set>
      <set comment="kpoint 4">
       <r>   -9.7872    1.0000 </r>
       <r>   -9.0722    1.0000 </r>
       <r>   -8.6365    1.0000 </r>
       <r>   -8.3644    1.0000 </r>
       <r>   -8.3421    1.0000 </r>
       <r>   -8.1919    1.0000 </r>
       <r>   -8.0111    1.0000 </r>
       <r>   -7.6925    1.0000 </r>
       <r>   -7.6333    1.0000 </r>
       <r>   -7.4188    1.0000 </r>
       <r>   -7.1786    1.0000 </r>
       <r>   -7.1264    1.0000 </r>
       <r>   -6.9496    1.0000 </r>
       <r>   -6.9420    1.0000 </r>
       <r>   -6.8205    1.0000 </r>
       <r>   -6.7650    1.0000 </r>
       <r>   -6.7547    1.0000 </r>
       <r>   -6.6887    1.0000 </r>
       <r>   -6.6579    1.0000 </r>
       <r>   -6.5139    1.0000 </r>
       <r>   -6.4448    1.0000 </r>
       <r>   -6.4104    1.0000 </r>
       <r>   -6.2152    1.0000 </r>
       <r>   -6.1622    1.0000 </r>
       <r>   -6.1292    1.0000 </r>
       <r>   -6.0893    1.0000 </r>
       <r>   -6.0228    1.0000 </r>
       <r>   -5.7970    1.0000 </r>
       <r>   -5.7783    1.0000 </r>
       <r>   -5.5936    1.0000 </r>
       <r>   -5.5039    1.0000 </r>
       <r>   -5.4880    1.0000 </r>
       <r>   -5.4628    1.0000 </r>
       <r>   -5.3934    1.0000 </r>
       <r>   -5.3482    1.0000 </r>
       <r>   -5.1540    1.0000 </r>
       <r>   -5.0389    1.0000 </r>
       <r>   -4.9963    1.0000 </r>
       <r>   -4.8232    1.0000 </r>
       <r>   -4.4991    1.0000 </r>
       <r>   -4.3363    1.0000 </r>
       <r>   -4.2180    1.0000 </r>
       <r>   -3.9547    1.0000 </r>
       <r>   -3.9038    1.0000 </r>
       <r>   -3.8814    1.0000 </r>
       <r>   -3.8203    1.0000 </r>
       <r>   -3.6539    1.0000 </r>
       <r>   -3.5517    1.0000 </r>
       <r>   -3.4764    1.0000 </r>
       <r>   -3.4330    1.0000 </r>
       <r>   -3.3140    1.0000 </r>
       <r>   -3.3030    1.0000 </r>
       <r>   -3.2992    1.0000 </r>
       <r>   -3.2303    1.0000 </r>
       <r>   -3.1854    1.0000 </r>
       <r>   -3.1718    1.0000 </r>
       <r>   -3.1615    1.0000 </r>
       <r>   -3.0861    1.0000 </r>
       <r>   -2.9712    1.0000 </r>
       <r>   -2.8977    1.0000 </r>
       <r>   -2.7399    1.0000 </r>
       <r>   -2.5807    1.0000 </r>
       <r>   -2.5177    1.0000 </r>
       <r>   -2.5164    1.0000 </r>
       <r>   -2.4060    1.0000 </r>
       <r>   -2.2481    1.0000 </r>
       <r>   -2.1503    1.0000 </r>
       <r>   -1.9505    1.0000 </r>
       <r>   -1.7527    1.0000 </r>
       <r>   -1.5130    1.0000 </r>
       <r>   -1.3851    1.0000 </r>
       <r>   -1.1057    1.0000 </r>
       <r>   -0.8316    1.0000 </r>
       <r>   -0.4941    1.0000 </r>
       <r>   -0.4315    1.0000 </r>
       <r>   -0.3016    1.0000 </r>
       <r>   -0.2797    1.0000 </r>
       <r>   -0.1744    1.0000 </r>
       <r>   -0.0586    1.0000 </r>
       <r>   -0.0093    1.0000 </r>
       <r>    0.0406    1.0000 </r>
       <r>    0.0961    1.0000 </r>
       <r>    0.1216    1.0000 </r>
       <r>    0.1463    1.0000 </r>
       <r>    0.2509    1.0000 </r>
       <r>    0.2615    1.0000 </r>
       <r>    0.2912    1.0000 </r>
       <r>    0.3073    1.0000 </r>
       <r>    0.3842    1.0000 </r>
       <r>    0.4150    1.0000 </r>
       <r>    0.4360    1.0000 </r>
       <r>    0.4777    1.0000 </r>
       <r>    0.5377    1.0000 </r>
       <r>    0.5796    1.0000 </r>
       <r>    0.6698    1.0000 </r>
       <r>    0.7543    1.0000 </r>
       <r>    0.7964    1.0000 </r>
       <r>    0.8049    1.0000 </r>
       <r>    0.8402    1.0000 </r>
       <r>    0.9207    1.0000 </r>
       <r>    0.9209    1.0000 </r>
       <r>    0.9528    1.0000 </r>
       <r>    0.9803    1.0000 </r>
       <r>    1.0043    1.0000 </r>
       <r>    1.0551    1.0000 </r>
       <r>    1.1304    1.0000 </r>
       <r>    1.2680    1.0000 </r>
       <r>    1.3035    1.0000 </r>
       <r>    1.3488    1.0000 </r>
       <r>    1.4498    1.0000 </r>
       <r>    1.4958    1.0000 </r>
       <r>    1.5432    1.0000 </r>
       <r>    1.5619    1.0000 </r>
       <r>    1.6142    1.0000 </r>
       <r>    1.6833    1.0000 </r>
       <r>    1.7531    1.0000 </r>
       <r>    1.7897    1.0000 </r>
       <r>    1.8042    1.0000 </r>
       <r>    1.8534    1.0000 </r>
       <r>    1.8871    1.0000 </r>
       <r>    1.9331    1.0000 </r>
       <r>    2.0315    1.0000 </r>
       <r>    2.0681    1.0000 </r>
       <r>    2.1456    1.0000 </r>
       <r>    2.1745    1.0000 </r>
       <r>    2.2538    1.0000 </r>
       <r>    2.3235    1.0000 </r>
       <r>    2.4108    1.0000 </r>
       <r>    2.5462    1.0000 </r>
       <r>    2.6094    1.0000 </r>
       <r>    2.6641    1.0000 </r>
       <r>    2.6759    1.0000 </r>
       <r>    2.6853    1.0000 </r>
       <r>    2.7361    1.0000 </r>
       <r>    2.7424    1.0000 </r>
       <r>    2.7585    1.0000 </r>
       <r>    2.7990    1.0000 </r>
       <r>    2.8703    1.0000 </r>
       <r>    2.9178    1.0000 </r>
       <r>    2.9798    1.0000 </r>
       <r>    3.0544    1.0000 </r>
       <r>    3.0994    1.0000 </r>
       <r>    3.1509    1.0000 </r>
       <r>    3.1559    1.0000 </r>
       <r>    3.1797    1.0000 </r>
       <r>    3.3216    1.0000 </r>
       <r>    3.3332    1.0000 </r>
       <r>    3.3538    1.0000 </r>
       <r>    3.5077    1.0000 </r>
       <r>    3.5623    1.0000 </r>
       <r>    3.6376    1.0000 </r>
       <r>    3.7750    1.0000 </r>
       <r>    3.8665    1.0000 </r>
       <r>    3.9076    1.0000 </r>
       <r>    3.9855    1.0000 </r>
       <r>    4.0594    1.0000 </r>
       <r>    4.1024    1.0000 </r>
       <r>    4.4097    0.0000 </r>
       <r>    4.4646    0.0000 </r>
       <r>    4.5187    0.0000 </r>
       <r>    4.6545    0.0000 </r>
       <r>    4.6792    0.0000 </r>
       <r>    4.7854    0.0000 </r>
       <r>    4.9480    0.0000 </r>
       <r>    5.1237    0.0000 </r>
       <r>    5.2210    0.0000 </r>
       <r>    5.2328    0.0000 </r>
       <r>    5.2538    0.0000 </r>
       <r>    5.3267    0.0000 </r>
       <r>    5.4056    0.0000 </r>
       <r>    5.5356    0.0000 </r>
       <r>    5.5473    0.0000 </r>
       <r>    5.5655    0.0000 </r>
       <r>    5.6170    0.0000 </r>
       <r>    5.6850    0.0000 </r>
       <r>    5.6854    0.0000 </r>
       <r>    5.7441    0.0000 </r>
       <r>    5.7493    0.0000 </r>
       <r>    5.7978    0.0000 </r>
       <r>    5.8361    0.0000 </r>
       <r>    5.8688    0.0000 </r>
       <r>    5.9608    0.0000 </r>
       <r>    6.0149    0.0000 </r>
       <r>    6.0263    0.0000 </r>
       <r>    6.1186    0.0000 </r>
       <r>    6.1713    0.0000 </r>
       <r>    6.2122    0.0000 </r>
       <r>    6.2563    0.0000 </r>
      </set>
      <set comment="kpoint 5">
       <r>   -9.6569    1.0000 </r>
       <r>   -8.9528    1.0000 </r>
       <r>   -8.7196    1.0000 </r>
       <r>   -8.5466    1.0000 </r>
       <r>   -8.1795    1.0000 </r>
       <r>   -8.0350    1.0000 </r>
       <r>   -7.9972    1.0000 </r>
       <r>   -7.7744    1.0000 </r>
       <r>   -7.5028    1.0000 </r>
       <r>   -7.4846    1.0000 </r>
       <r>   -7.3715    1.0000 </r>
       <r>   -7.2368    1.0000 </r>
       <r>   -7.2153    1.0000 </r>
       <r>   -7.0847    1.0000 </r>
       <r>   -7.0227    1.0000 </r>
       <r>   -6.9272    1.0000 </r>
       <r>   -6.8975    1.0000 </r>
       <r>   -6.7033    1.0000 </r>
       <r>   -6.6486    1.0000 </r>
       <r>   -6.5392    1.0000 </r>
       <r>   -6.5107    1.0000 </r>
       <r>   -6.3081    1.0000 </r>
       <r>   -6.2975    1.0000 </r>
       <r>   -6.1726    1.0000 </r>
       <r>   -6.1551    1.0000 </r>
       <r>   -6.0516    1.0000 </r>
       <r>   -6.0040    1.0000 </r>
       <r>   -5.8681    1.0000 </r>
       <r>   -5.7631    1.0000 </r>
       <r>   -5.6711    1.0000 </r>
       <r>   -5.5202    1.0000 </r>
       <r>   -5.4422    1.0000 </r>
       <r>   -5.3887    1.0000 </r>
       <r>   -5.2399    1.0000 </r>
       <r>   -5.2384    1.0000 </r>
       <r>   -5.1347    1.0000 </r>
       <r>   -4.9317    1.0000 </r>
       <r>   -4.7499    1.0000 </r>
       <r>   -4.7358    1.0000 </r>
       <r>   -4.5541    1.0000 </r>
       <r>   -4.2166    1.0000 </r>
       <r>   -4.1171    1.0000 </r>
       <r>   -4.1147    1.0000 </r>
       <r>   -4.0171    1.0000 </r>
       <r>   -3.8611    1.0000 </r>
       <r>   -3.7114    1.0000 </r>
       <r>   -3.6400    1.0000 </r>
       <r>   -3.5460    1.0000 </r>
       <r>   -3.4433    1.0000 </r>
       <r>   -3.4423    1.0000 </r>
       <r>   -3.3521    1.0000 </r>
       <r>   -3.3461    1.0000 </r>
       <r>   -3.2563    1.0000 </r>
       <r>   -3.1681    1.0000 </r>
       <r>   -3.1647    1.0000 </r>
       <r>   -3.0409    1.0000 </r>
       <r>   -2.9496    1.0000 </r>
       <r>   -2.9470    1.0000 </r>
       <r>   -2.7413    1.0000 </r>
       <r>   -2.5652    1.0000 </r>
       <r>   -2.5279    1.0000 </r>
       <r>   -2.3701    1.0000 </r>
       <r>   -2.3590    1.0000 </r>
       <r>   -2.1650    1.0000 </r>
       <r>   -1.9870    1.0000 </r>
       <r>   -1.8528    1.0000 </r>
       <r>   -1.8080    1.0000 </r>
       <r>   -1.6384    1.0000 </r>
       <r>   -1.5362    1.0000 </r>
       <r>   -1.3924    1.0000 </r>
       <r>   -1.3670    1.0000 </r>
       <r>   -1.1680    1.0000 </r>
       <r>   -1.0040    1.0000 </r>
[...]
       <r>   -10.1311     0.0000     0.0000 </r>
       <r>   -10.0704     0.0000     0.0000 </r>
       <r>   -10.0096     0.0000     0.0000 </r>
       <r>    -9.9489     0.0000     0.0000 </r>
       <r>    -9.8882     0.0000     0.0000 </r>
       <r>    -9.8275     0.0000     0.0000 </r>
       <r>    -9.7668     1.1233     0.0682 </r>
       <r>    -9.7061     7.1125     0.5000 </r>
       <r>    -9.6454     0.1295     0.5079 </r>
       <r>    -9.5847    16.3420     1.5000 </r>
       <r>    -9.5240     0.0000     1.5000 </r>
       <r>    -9.4632     0.0000     1.5000 </r>
       <r>    -9.4025     0.0000     1.5000 </r>
       <r>    -9.3418     0.0000     1.5000 </r>
       <r>    -9.2811     0.0001     1.5000 </r>
       <r>    -9.2204    16.4711     2.5000 </r>
       <r>    -9.1597     0.0000     2.5000 </r>
       <r>    -9.0990     0.0169     2.5010 </r>
       <r>    -9.0383     8.2156     2.9998 </r>
       <r>    -8.9776     0.0001     3.0000 </r>
       <r>    -8.9169    15.8276     3.9609 </r>
       <r>    -8.8561     0.6428     4.0000 </r>
       <r>    -8.7954     0.0000     4.0000 </r>
       <r>    -8.7347     0.0255     4.0015 </r>
       <r>    -8.6740    19.1735     5.1656 </r>
       <r>    -8.6133     5.4799     5.4994 </r>
       <r>    -8.5526    21.2915     6.7920 </r>
       <r>    -8.4919     6.1678     7.1667 </r>
       <r>    -8.4312     5.4632     7.4983 </r>
       <r>    -8.3705     0.7243     7.5425 </r>
       <r>    -8.3097    15.6556     8.4929 </r>
       <r>    -8.2490     5.2597     8.8122 </r>
       <r>    -8.1883     2.5092     8.9646 </r>
       <r>    -8.1276    23.1297    10.3688 </r>
       <r>    -8.0669     5.2697    10.6887 </r>
       <r>    -8.0062    25.1286    12.2143 </r>
       <r>    -7.9455    10.5779    12.8565 </r>
       <r>    -7.8848    12.2371    13.5994 </r>
       <r>    -7.8241     8.0599    14.0888 </r>
       <r>    -7.7633    14.0953    14.9451 </r>
       <r>    -7.7026     9.8906    15.5456 </r>
       <r>    -7.6419    19.1260    16.7068 </r>
       <r>    -7.5812     9.3066    17.2718 </r>
       <r>    -7.5205    13.7424    18.1061 </r>
       <r>    -7.4598    28.7328    19.8507 </r>
       <r>    -7.3991    22.6234    21.2242 </r>
       <r>    -7.3384     9.4354    21.7975 </r>
       <r>    -7.2777    10.8478    22.4561 </r>
       <r>    -7.2169    20.1159    23.6778 </r>
       <r>    -7.1562    19.3883    24.8554 </r>
       <r>    -7.0955    26.4037    26.4584 </r>
       <r>    -7.0348    18.9249    27.6074 </r>
       <r>    -6.9741    10.2968    28.2326 </r>
       <r>    -6.9134    17.6035    29.3013 </r>
       <r>    -6.8527    26.0686    30.8840 </r>
       <r>    -6.7920    17.6707    31.9569 </r>
       <r>    -6.7313    27.0825    33.6013 </r>
       <r>    -6.6705    33.9304    35.6612 </r>
       <r>    -6.6098    26.9724    37.2994 </r>
       <r>    -6.5491    19.5356    38.4857 </r>
       <r>    -6.4884    37.8690    40.7847 </r>
       <r>    -6.4277    24.3794    42.2650 </r>
       <r>    -6.3670    25.3675    43.8051 </r>
       <r>    -6.3063    16.7304    44.8209 </r>
       <r>    -6.2456    29.6947    46.6237 </r>
       <r>    -6.1849    17.2509    47.6712 </r>
       <r>    -6.1241    43.1716    50.2924 </r>
       <r>    -6.0634    27.8124    51.9810 </r>
       <r>    -6.0027    16.4618    52.9807 </r>
       <r>    -5.9420    23.1577    54.3867 </r>
       <r>    -5.8813    12.7213    55.1590 </r>
       <r>    -5.8206    12.7806    55.9349 </r>
       <r>    -5.7599    30.6258    57.7942 </r>
       <r>    -5.6992    16.3946    58.7897 </r>
       <r>    -5.6385    21.9028    60.1194 </r>
       <r>    -5.5777    13.6186    60.9469 </r>
       <r>    -5.5170    15.0290    61.8594 </r>
       <r>    -5.4563    24.1741    63.3273 </r>
       <r>    -5.3956    18.9126    64.4761 </r>
       <r>    -5.3349    28.5834    66.2117 </r>
       <r>    -5.2742    16.0833    67.1886 </r>
       <r>    -5.2135    28.6371    68.9272 </r>
       <r>    -5.1528    10.5717    69.5693 </r>
       <r>    -5.0921    15.3266    70.5000 </r>
       <r>    -5.0313     8.2446    71.0006 </r>
       <r>    -4.9706    15.3975    71.9357 </r>
       <r>    -4.9099     8.5900    72.4572 </r>
       <r>    -4.8492     9.6545    73.0438 </r>
       <r>    -4.7885    10.2586    73.6666 </r>
       <r>    -4.7278    21.2946    74.9596 </r>
       <r>    -4.6671    23.6078    76.3930 </r>
       <r>    -4.6064     6.6916    76.7993 </r>
       <r>    -4.5457    11.6290    77.5053 </r>
       <r>    -4.4849    12.5216    78.2655 </r>
       <r>    -4.4242     9.0622    78.8157 </r>
       <r>    -4.3635    20.4917    80.0598 </r>
       <r>    -4.3028    15.6531    81.0102 </r>
       <r>    -4.2421    10.6328    81.6557 </r>
       <r>    -4.1814    13.5977    82.4812 </r>
       <r>    -4.1207    24.1806    83.9495 </r>
       <r>    -4.0600    25.4970    85.4975 </r>
       <r>    -3.9993    19.8722    86.7041 </r>
       <r>    -3.9385    21.5210    88.0106 </r>
       <r>    -3.8778    16.4318    89.0082 </r>
       <r>    -3.8171    21.4910    90.3133 </r>
       <r>    -3.7564     8.2302    90.8130 </r>
       <r>    -3.6957    24.7598    92.3162 </r>
       <r>    -3.6350    11.1059    92.9904 </r>
       <r>    -3.5743    20.2727    94.2212 </r>
       <r>    -3.5136    27.4552    95.8882 </r>
       <r>    -3.4529    26.7362    97.5115 </r>
       <r>    -3.3922    41.8842   100.0545 </r>
       <r>    -3.3314    33.1946   102.0702 </r>
       <r>    -3.2707    34.9200   104.1903 </r>
       <r>    -3.2100    24.6481   105.6879 </r>
       <r>    -3.1493    34.4227   107.7781 </r>
       <r>    -3.0886    26.7900   109.4045 </r>
       <r>    -3.0279    20.6918   110.6608 </r>
       <r>    -2.9672    24.9001   112.1725 </r>
       <r>    -2.9065    22.2216   113.5216 </r>
       <r>    -2.8458    19.9455   114.7325 </r>
       <r>    -2.7850    20.8997   116.0014 </r>
       <r>    -2.7243    14.9778   116.9107 </r>
       <r>    -2.6636    23.4229   118.3330 </r>
       <r>    -2.6029     8.1964   118.8306 </r>
       <r>    -2.5422    12.8764   119.6124 </r>
       <r>    -2.4815    23.0838   121.0139 </r>
       <r>    -2.4208    22.7638   122.3965 </r>
       <r>    -2.3601    28.6962   124.1388 </r>
       <r>    -2.2994    15.9377   125.1065 </r>
       <r>    -2.2386    22.2333   126.4563 </r>
       <r>    -2.1779    12.2535   127.2002 </r>
       <r>    -2.1172    13.7538   128.0352 </r>
       <r>    -2.0565    14.6759   128.9263 </r>
       <r>    -1.9958    10.6820   129.5754 </r>
       <r>    -1.9351    14.9493   130.4831 </r>
       <r>    -1.8744    13.7627   131.3187 </r>
       <r>    -1.8137    26.0106   132.8978 </r>
       <r>    -1.7530    16.8711   133.9222 </r>
       <r>    -1.6922    14.2627   134.7882 </r>
       <r>    -1.6315    10.2911   135.4130 </r>
       <r>    -1.5708    15.1262   136.3313 </r>
       <r>    -1.5101    15.3923   137.2658 </r>
       <r>    -1.4494    12.0059   137.9947 </r>
       <r>    -1.3887    22.4484   139.3575 </r>
       <r>    -1.3280    23.2248   140.7676 </r>
       <r>    -1.2673    10.6681   141.4153 </r>
       <r>    -1.2066     4.1405   141.6667 </r>
       <r>    -1.1458    13.3688   142.4783 </r>
       <r>    -1.0851     8.8961   143.0184 </r>
       <r>    -1.0244    10.2933   143.6433 </r>
       <r>    -0.9637    25.2197   145.1745 </r>
       <r>    -0.9030     6.4123   145.5644 </r>
       <r>    -0.8423    12.6783   146.3341 </r>
       <r>    -0.7816    12.8108   147.1119 </r>
       <r>    -0.7209    20.1674   148.3364 </r>
       <r>    -0.6602     4.7975   148.6276 </r>
       <r>    -0.5994     6.2050   149.0043 </r>
       <r>    -0.5387    14.5997   149.8907 </r>
       <r>    -0.4780    22.3866   151.2500 </r>
       <r>    -0.4173    12.9733   152.0378 </r>
       <r>    -0.3566    19.1562   153.2009 </r>
       <r>    -0.2959    34.0927   155.2708 </r>
       <r>    -0.2352    24.9539   156.7861 </r>
       <r>    -0.1745    27.2986   158.4437 </r>
       <r>    -0.1138    38.0309   160.7527 </r>
       <r>    -0.0530    34.7831   162.8649 </r>
       <r>     0.0077    36.5451   165.0836 </r>
       <r>     0.0684    49.3909   168.0823 </r>
       <r>     0.1291    34.1596   170.1565 </r>
       <r>     0.1898    33.6501   172.1994 </r>
       <r>     0.2505    34.3373   174.2842 </r>
       <r>     0.3112    37.0267   176.5323 </r>
       <r>     0.3719    38.5403   178.8722 </r>
       <r>     0.4326    45.5991   181.6407 </r>
       <r>     0.4934    29.4675   183.4298 </r>
       <r>     0.5541    44.6112   186.1382 </r>
       <r>     0.6148    33.8533   188.1937 </r>
       <r>     0.6755    38.6242   190.5386 </r>
       <r>     0.7362    48.9614   193.5111 </r>
       <r>     0.7969    42.2341   196.0760 </r>
       <r>     0.8576    35.4379   198.2280 </r>
       <r>     0.9183    29.6860   200.0303 </r>
       <r>     0.9790    58.5228   203.5834 </r>
       <r>     1.0398    52.4031   206.7655 </r>
       <r>     1.1005    34.9091   208.8855 </r>
       <r>     1.1612    37.8004   211.1804 </r>
       <r>     1.2219    58.0626   214.7061 </r>
       <r>     1.2826    28.9683   216.4666 </r>
       <r>     1.3433    44.1386   219.1464 </r>
       <r>     1.4040    54.0624   222.4286 </r>
       <r>     1.4647    55.9200   225.8239 </r>
       <r>     1.5254    33.1089   227.8353 </r>
       <r>     1.5862    32.9912   229.8384 </r>
       <r>     1.6469    50.1866   232.8856 </r>
       <r>     1.7076    45.7587   235.6645 </r>
       <r>     1.7683    37.4882   237.9409 </r>
       <r>     1.8290    52.9704   241.1569 </r>
       <r>     1.8897    48.2492   244.0863 </r>
       <r>     1.9504    47.6052   246.9765 </r>
       <r>     2.0111    37.1486   249.2319 </r>
       <r>     2.0718    42.3996   251.8065 </r>
       <r>     2.1325    43.3918   254.4411 </r>
       <r>     2.1933    49.3237   257.4356 </r>
       <r>     2.2540    36.6295   259.6594 </r>
       <r>     2.3147    32.9840   261.6619 </r>
       <r>     2.3754    38.3660   263.9914 </r>
       <r>     2.4361    32.1190   265.9417 </r>
       <r>     2.4968    31.0153   267.8247 </r>
       <r>     2.5575    35.1540   269.9590 </r>
       <r>     2.6182    38.4222   272.2918 </r>
       <r>     2.6789    36.0231   274.4788 </r>
       <r>     2.7397    36.9062   276.7194 </r>
       <r>     2.8004    46.8244   279.5626 </r>
       <r>     2.8611    25.3953   281.1047 </r>
       <r>     2.9218    30.7812   282.9738 </r>
       <r>     2.9825    18.2833   284.0840 </r>
       <r>     3.0432    19.3918   285.2614 </r>
       <r>     3.1039    29.8596   287.0743 </r>
       <r>     3.1646    24.1441   288.5405 </r>
       <r>     3.2253    39.1939   290.9200 </r>
       <r>     3.2861    20.6336   292.1727 </r>
       <r>     3.3468    18.6076   293.3024 </r>
       <r>     3.4075    34.1440   295.3754 </r>
       <r>     3.4682    18.9909   296.5284 </r>
       <r>     3.5289    23.4408   297.9516 </r>
       <r>     3.5896    23.8682   299.4006 </r>
       <r>     3.6503    22.4562   300.7641 </r>
       <r>     3.7110    16.9200   301.7913 </r>
       <r>     3.7717    19.2657   302.9610 </r>
       <r>     3.8325    25.0106   304.4796 </r>
       <r>     3.8932    22.6757   305.8562 </r>
       <r>     3.9539    21.4987   307.1615 </r>
       <r>     4.0146    22.1655   308.5073 </r>
       <r>     4.0753    26.2148   310.0988 </r>
       <r>     4.1360     6.5922   310.4991 </r>
       <r>     4.1967     9.7010   311.0881 </r>
       <r>     4.2574    23.7594   312.5305 </r>
       <r>     4.3181    18.9442   313.6809 </r>
       <r>     4.3789     7.4642   314.1342 </r>
       <r>     4.4396    23.1192   315.5378 </r>
       <r>     4.5003    22.7515   316.9192 </r>
       <r>     4.5610    20.1619   318.1440 </r>
       <r>     4.6217    30.6254   320.0034 </r>
       <r>     4.6824    17.9883   321.0957 </r>
       <r>     4.7431    30.5620   322.9512 </r>
       <r>     4.8038    17.0492   323.9871 </r>
       <r>     4.8645     8.4545   324.5005 </r>
       <r>     4.9253    12.4001   325.2533 </r>
       <r>     4.9860    12.2204   325.9953 </r>
       <r>     5.0467     7.5908   326.4562 </r>
       <r>     5.1074    20.6997   327.7129 </r>
       <r>     5.1681    19.7388   328.9115 </r>
       <r>     5.2288    19.7110   330.1084 </r>
       <r>     5.2895    31.4325   332.0167 </r>
       <r>     5.3502    29.7248   333.8215 </r>
       <r>     5.4109    21.4512   335.1239 </r>
       <r>     5.4717    16.3374   336.1157 </r>
       <r>     5.5324    23.6382   337.5509 </r>
       <r>     5.5931    44.6687   340.2628 </r>
       <r>     5.6538    17.0374   341.2974 </r>
       <r>     5.7145    30.2394   343.1334 </r>
       <r>     5.7752    30.4518   344.9826 </r>
       <r>     5.8359    28.1442   346.6916 </r>
       <r>     5.8966    39.7106   349.1027 </r>
       <r>     5.9573    42.4257   351.6786 </r>
       <r>     6.0181    37.0171   353.9269 </r>
       <r>     6.0788    31.0549   355.8123 </r>
       <r>     6.1395    35.9903   357.9975 </r>
       <r>     6.2002    38.5852   360.3400 </r>
       <r>     6.2609    41.1200   362.8370 </r>
       <r>     6.3216    36.0694   365.0269 </r>
       <r>     6.3823    40.1045   367.4619 </r>
       <r>     6.4430    29.0693   369.2268 </r>
       <r>     6.5037    32.1505   371.1788 </r>
       <r>     6.5645    28.1165   372.8865 </r>
       <r>     6.6252    31.9128   374.8245 </r>
       <r>     6.6859     6.6998   375.2319 </r>
       <r>     6.7466     7.3099   375.6757 </r>
       <r>     6.8073     5.3395   376.0000 </r>
       <r>     6.8680     0.0000   376.0000 </r>
       <r>     6.9287     0.0000   376.0000 </r>
       <r>     6.9894     0.0000   376.0000 </r>
       <r>     7.0501     0.0000   376.0000 </r>
       <r>     7.1109     0.0000   376.0000 </r>
       <r>     7.1716     0.0000   376.0000 </r>
       <r>     7.2323     0.0000   376.0000 </r>
       <r>     7.2930     0.0000   376.0000 </r>
       <r>     7.3537     0.0000   376.0000 </r>
       <r>     7.4144     0.0000   376.0000 </r>
       <r>     7.4751     0.0000   376.0000 </r>
       <r>     7.5358     0.0000   376.0000 </r>
       <r>     7.5965     0.0000   376.0000 </r>
      </set>
     </set>
    </array>
   </total>
  </dos>
 </calculation>
 <structure name="finalpos" >
  <crystal>
   <varray name="basis" >
    <v>       7.74989032       0.00000000       0.00000000 </v>
    <v>       3.87494516      11.62483548       0.00000000 </v>
    <v>       0.00000000       0.00000000      18.63333333 </v>
   </varray>
   <i name="volume">   1678.69936005 </i>
   <varray name="rec_basis" >
    <v>       0.12903408      -0.04301136       0.00000000 </v>
    <v>       0.00000000       0.08602272       0.00000000 </v>
    <v>       0.00000000       0.00000000       0.05366726 </v>
   </varray>
  </crystal>
  <varray name="positions" >
   <v>       0.00000000       0.00000000       0.00000000 </v>
   <v>       0.11111111       0.27777778       0.04901610 </v>
   <v>       0.22222222       0.55555556       0.09803220 </v>
   <v>       0.50000000       0.00000000       0.00000000 </v>
   <v>       0.61111111       0.27777778       0.04901610 </v>
   <v>       0.72222222       0.55555556       0.09803220 </v>
   <v>       0.80555556       0.88888889       0.02450805 </v>
   <v>       0.91666667       0.16666667       0.07352415 </v>
   <v>       0.02777778       0.44444444       0.12254025 </v>
   <v>       0.30555556       0.88888889       0.02450805 </v>
   <v>       0.41666667       0.16666667       0.07352415 </v>
   <v>       0.52777778       0.44444444       0.12254025 </v>
   <v>       0.00000000       0.05737705       0.18157424 </v>
   <v>       0.33333333       0.89071038       0.33345259 </v>
   <v>       0.66666667       0.72404372       0.48533095 </v>
   <v>       0.00000000       0.55737705       0.63720930 </v>
   <v>       0.33333333       0.39071038       0.78908766 </v>
   <v>       0.66666667       0.22404372       0.94096601 </v>
   <v>       0.33333333       0.39071038       0.18157424 </v>
   <v>       0.66666667       0.22404372       0.33345259 </v>
   <v>       0.00000000       0.05737705       0.48533095 </v>
   <v>       0.33333333       0.89071038       0.63720930 </v>
   <v>       0.66666667       0.72404372       0.78908766 </v>
   <v>       0.00000000       0.55737705       0.94096601 </v>
   <v>       0.66666667       0.72404372       0.18157424 </v>
   <v>       0.00000000       0.55737705       0.33345259 </v>
   <v>       0.33333333       0.39071038       0.48533095 </v>
   <v>       0.66666667       0.22404372       0.63720930 </v>
   <v>       0.00000000       0.05737705       0.78908766 </v>
   <v>       0.33333333       0.89071038       0.94096601 </v>
   <v>       0.50000000       0.05737705       0.18157424 </v>
   <v>       0.83333333       0.89071038       0.33345259 </v>
   <v>       0.16666667       0.72404372       0.48533095 </v>
   <v>       0.50000000       0.55737705       0.63720930 </v>
   <v>       0.83333333       0.39071038       0.78908766 </v>
   <v>       0.16666667       0.22404372       0.94096601 </v>
   <v>       0.83333333       0.39071038       0.18157424 </v>
   <v>       0.16666667       0.22404372       0.33345259 </v>
   <v>       0.50000000       0.05737705       0.48533095 </v>
   <v>       0.83333333       0.89071038       0.63720930 </v>
   <v>       0.16666667       0.72404372       0.78908766 </v>
   <v>       0.50000000       0.55737705       0.94096601 </v>
   <v>       0.16666667       0.72404372       0.18157424 </v>
   <v>       0.50000000       0.55737705       0.33345259 </v>
   <v>       0.83333333       0.39071038       0.48533095 </v>
   <v>       0.16666667       0.22404372       0.63720930 </v>
   <v>       0.50000000       0.05737705       0.78908766 </v>
   <v>       0.83333333       0.89071038       0.94096601 </v>
   <v>       0.91666667       0.22404372       0.25751342 </v>
   <v>       0.25000000       0.05737705       0.40939177 </v>
   <v>       0.58333333       0.89071038       0.56127013 </v>
   <v>       0.91666667       0.72404372       0.71314848 </v>
   <v>       0.25000000       0.55737705       0.86502683 </v>
   <v>       0.25000000       0.55737705       0.25751342 </v>
   <v>       0.58333333       0.39071038       0.40939177 </v>
   <v>       0.91666667       0.22404372       0.56127013 </v>
   <v>       0.25000000       0.05737705       0.71314848 </v>
   <v>       0.58333333       0.89071038       0.86502683 </v>
   <v>       0.58333333       0.89071038       0.25751342 </v>
   <v>       0.91666667       0.72404372       0.40939177 </v>
   <v>       0.25000000       0.55737705       0.56127013 </v>
   <v>       0.58333333       0.39071038       0.71314848 </v>
   <v>       0.91666667       0.22404372       0.86502683 </v>
   <v>       0.41666667       0.22404372       0.25751342 </v>
   <v>       0.75000000       0.05737705       0.40939177 </v>
   <v>       0.08333333       0.89071038       0.56127013 </v>
   <v>       0.41666667       0.72404372       0.71314848 </v>
   <v>       0.75000000       0.55737705       0.86502683 </v>
   <v>       0.75000000       0.55737705       0.25751342 </v>
   <v>       0.08333333       0.39071038       0.40939177 </v>
   <v>       0.41666667       0.22404372       0.56127013 </v>
   <v>       0.75000000       0.05737705       0.71314848 </v>
   <v>       0.08333333       0.89071038       0.86502683 </v>
   <v>       0.08333333       0.89071038       0.25751342 </v>
   <v>       0.41666667       0.72404372       0.40939177 </v>
   <v>       0.75000000       0.55737705       0.56127013 </v>
   <v>       0.08333333       0.39071038       0.71314848 </v>
   <v>       0.41666667       0.22404372       0.86502683 </v>
  </varray>
 </structure>
</modeling>
