Si and Ge interface calculation         
           1
    11.239624    0.000000    0.000000
     0.000000   15.895229    0.000000
     0.000000    0.000000   25.800941
   Sn   Ge
    72    96
Direct configuration=     1
   0.00000000  0.01797952  0.00000000
   0.99999994  0.26797959  0.08892229
   0.99999988  0.51797974  0.17784460
   0.99999982  0.76797992  0.26676691
   0.99999982  0.01797998  0.35568920
   0.99999976  0.26798010  0.44461155
   0.33333337  0.35131288  0.00000000
   0.33333331  0.60131288  0.08892229
   0.33333331  0.85131305  0.17784460
   0.33333322  0.10131323  0.26676691
   0.33333322  0.35131335  0.35568920
   0.33333316  0.60131347  0.44461155
   0.66666675  0.68464625  0.00000000
   0.66666669  0.93464625  0.08892229
   0.66666681  0.18464649  0.17784460
   0.66666651  0.43464649  0.26676691
   0.66666657  0.68464661  0.35568920
   0.66666657  0.93464685  0.44461155
   0.00000003  0.51797956  0.00000000
   0.99999994  0.76797962  0.08892229
   0.99999988  0.01797974  0.17784460
   0.99999988  0.26797986  0.26676688
   0.99999982  0.51797998  0.35568920
   0.99999976  0.76798010  0.44461155
   0.33333337  0.85131288  0.00000000
   0.33333334  0.10131300  0.08892229
   0.33333337  0.35131323  0.17784460
   0.33333325  0.60131323  0.26676688
   0.33333328  0.85131335  0.35568920
   0.33333311  0.10131359  0.44461155
   0.66666681  0.18464620  0.00000000
   0.66666663  0.43464625  0.08892229
   0.66666669  0.68464643  0.17784460
   0.66666663  0.93464649  0.26676688
   0.66666651  0.18464661  0.35568920
   0.66666657  0.43464673  0.44461152
   0.08333332  0.35131285  0.00000000
   0.08333325  0.60131288  0.08892229
   0.08333329  0.85131305  0.17784460
   0.08333313  0.10131311  0.26676691
   0.08333313  0.35131323  0.35568920
   0.08333313  0.60131335  0.44461152
   0.41666672  0.68464619  0.00000000
   0.41666663  0.93464625  0.08892229
   0.41666666  0.18464649  0.17784460
   0.41666660  0.43464661  0.26676688
   0.41666639  0.68464661  0.35568920
   0.41666651  0.93464673  0.44461152
   0.75000000  0.01797955  0.00000001
   0.75000000  0.26797959  0.08892230
   0.74999994  0.51797974  0.17784460
   0.74999982  0.76797986  0.26676688
   0.74999982  0.01797998  0.35568920
   0.74999982  0.26798010  0.44461152
   0.08333334  0.85131294  0.00000000
   0.08333328  0.10131300  0.08892231
   0.08333322  0.35131311  0.17784458
   0.08333325  0.60131347  0.26676691
   0.08333313  0.85131335  0.35568923
   0.08333307  0.10131359  0.44461152
   0.41666672  0.18464620  0.00000000
   0.41666666  0.43464625  0.08892229
   0.41666657  0.68464643  0.17784460
   0.41666657  0.93464655  0.26676691
   0.41666657  0.18464661  0.35568920
   0.41666645  0.43464673  0.44461152
   0.75000000  0.51797950  0.00000000
   0.74999994  0.76797962  0.08892229
   0.75000000  0.01797974  0.17784460
   0.74999988  0.26797986  0.26676691
   0.74999982  0.51797986  0.35568920
   0.74999976  0.76798010  0.44461152
   0.09678888  0.48131061  0.52848196
   0.84678882  0.10631059  0.60601157
   0.59678888  0.73131061  0.68354106
   0.34678900  0.35631069  0.76107049
   0.09678888  0.98131061  0.83860004
   0.84678882  0.60631061  0.91612953
   0.59678888  0.48131061  0.52848196
   0.34678888  0.10631059  0.60601157
   0.09678888  0.73131061  0.68354106
   0.84678894  0.35631069  0.76107049
   0.59678894  0.98131061  0.83860004
   0.34678888  0.60631061  0.91612953
   0.09678888  0.98131061  0.52848196
   0.84678882  0.60631061  0.60601157
   0.59678888  0.23131059  0.68354106
   0.34678900  0.85631084  0.76107049
   0.09678888  0.48131058  0.83860010
   0.84678882  0.10631058  0.91612953
   0.59678888  0.98131061  0.52848196
   0.34678888  0.60631061  0.60601157
   0.09678888  0.23131059  0.68354106
   0.84678894  0.85631084  0.76107049
   0.59678894  0.48131058  0.83860010
   0.34678888  0.10631058  0.91612953
   0.09678888  0.73131061  0.52848196
   0.84678882  0.35631058  0.60601157
   0.59678888  0.98131061  0.68354106
   0.34678900  0.60631073  0.76107049
   0.09678888  0.23131065  0.83860010
   0.84678882  0.85631061  0.91612953
   0.59678888  0.73131061  0.52848196
   0.34678888  0.35631058  0.60601157
   0.09678888  0.98131061  0.68354106
   0.84678894  0.60631073  0.76107049
   0.59678894  0.23131065  0.83860010
   0.34678888  0.85631061  0.91612953
   0.09678888  0.23131061  0.52848196
   0.84678882  0.85631061  0.60601157
   0.59678888  0.48131058  0.68354106
   0.34678900  0.10631070  0.76107049
   0.09678888  0.73131073  0.83860004
   0.84678882  0.35631058  0.91612953
   0.59678888  0.23131061  0.52848196
   0.34678888  0.85631061  0.60601157
   0.09678888  0.48131058  0.68354106
   0.84678894  0.10631070  0.76107049
   0.59678894  0.73131073  0.83860004
   0.34678888  0.35631058  0.91612953
   0.47178888  0.60631067  0.52848196
   0.22178888  0.23131062  0.60601157
   0.97178888  0.85631061  0.68354106
   0.72178894  0.48131069  0.76107049
   0.47178888  0.10631064  0.83860010
   0.22178884  0.73131061  0.91612953
   0.97178894  0.60631067  0.52848196
   0.72178888  0.23131062  0.60601157
   0.47178894  0.85631061  0.68354106
   0.22178900  0.48131069  0.76107049
   0.97178894  0.10631064  0.83860010
   0.72178888  0.73131061  0.91612953
   0.47178888  0.10631059  0.52848196
   0.22178888  0.73131061  0.60601157
   0.97178888  0.35631058  0.68354106
   0.72178894  0.98131073  0.76107049
   0.47178888  0.60631073  0.83860004
   0.22178884  0.23131047  0.91612953
   0.97178894  0.10631059  0.52848196
   0.72178888  0.73131061  0.60601157
   0.47178894  0.35631058  0.68354106
   0.22178900  0.98131073  0.76107049
   0.97178894  0.60631073  0.83860004
   0.72178888  0.23131047  0.91612953
   0.47178888  0.85631067  0.52848196
   0.22178888  0.48131064  0.60601157
   0.97178888  0.10631063  0.68354106
   0.72178894  0.73131078  0.76107049
   0.47178888  0.35631069  0.83860004
   0.22178884  0.98131061  0.91612953
   0.97178894  0.85631067  0.52848196
   0.72178888  0.48131064  0.60601157
   0.47178894  0.10631063  0.68354106
   0.22178900  0.73131078  0.76107049
   0.97178894  0.35631069  0.83860004
   0.72178888  0.98131061  0.91612953
   0.47178888  0.35631058  0.52848196
   0.22178888  0.98131061  0.60601157
   0.97178888  0.60631061  0.68354106
   0.72178894  0.23131071  0.76107049
   0.47178888  0.85631061  0.83860004
   0.22178884  0.48131058  0.91612953
   0.97178894  0.35631058  0.52848196
   0.72178888  0.98131061  0.60601157
   0.47178894  0.60631061  0.68354106
   0.22178900  0.23131071  0.76107049
   0.97178894  0.85631061  0.83860004
   0.72178888  0.48131058  0.91612953
