   8   8   0   0
  0.1139062E+02  0.4500000E-09  0.4500000E-09  0.4500000E-09  0.5000000E-15
  1.000000000000000E-004
  CAR 
 Si and Ge interface calculation         
     14.49874152     -8.83103007  301      6.29140454      1.00000000
     -8.831  0.0000E+00  0.0000E+00  0.0000E+00  0.0000E+00
     -8.753  0.0000E+00  0.0000E+00  0.0000E+00  0.0000E+00
     -8.675  0.0000E+00  0.0000E+00  0.0000E+00  0.0000E+00
     -8.598  0.0000E+00  0.0000E+00  0.0000E+00  0.0000E+00
     -8.520  0.0000E+00  0.0000E+00  0.0000E+00  0.0000E+00
     -8.442  0.0000E+00  0.0000E+00  0.0000E+00  0.0000E+00
     -8.364  0.0000E+00  0.0000E+00  0.0000E+00  0.0000E+00
     -8.287  0.0000E+00  0.0000E+00  0.0000E+00  0.0000E+00
     -8.209  0.0000E+00  0.0000E+00  0.0000E+00  0.0000E+00
     -8.131  0.0000E+00  0.0000E+00  0.0000E+00  0.0000E+00
     -8.053  0.0000E+00  0.0000E+00  0.0000E+00  0.0000E+00
     -7.976  0.0000E+00  0.0000E+00  0.0000E+00  0.0000E+00
     -7.898  0.0000E+00  0.0000E+00  0.0000E+00  0.0000E+00
     -7.820  0.9694E-13  0.0000E+00  0.7539E-14  0.0000E+00
     -7.742  0.7498E-01  0.0000E+00  0.5831E-02  0.0000E+00
     -7.665  0.4010E-02  0.0000E+00  0.6143E-02  0.0000E+00
     -7.587  0.4459E+00  0.7178E-01  0.4082E-01  0.5582E-02
     -7.509  0.8916E+00  0.8581E-06  0.1102E+00  0.5831E-02
     -7.431  0.4632E-04  0.4499E+00  0.1108E+00  0.4082E-01
     -7.353  0.5998E+00  0.5000E+00  0.1574E+00  0.7970E-01
     -7.276  0.3675E+00  0.3998E+00  0.1860E+00  0.1108E+00
     -7.198  0.4585E-06  0.5998E+00  0.1924E+00  0.1574E+00
     -7.120  0.1800E+01  0.4586E-01  0.3324E+00  0.1610E+00
     -7.042  0.1043E+01  0.4040E+00  0.4135E+00  0.1924E+00
     -6.965  0.7563E+00  0.1799E+01  0.4723E+00  0.3324E+00
     -6.887  0.0000E+00  0.5075E-01  0.4723E+00  0.3363E+00
     -6.809  0.3394E+00  0.1749E+01  0.4987E+00  0.4723E+00
     -6.731  0.5603E+00  0.0000E+00  0.5423E+00  0.4723E+00
     -6.654  0.2249E+01  0.8186E-02  0.7172E+00  0.4729E+00
     -6.576  0.2166E+00  0.8916E+00  0.7340E+00  0.5423E+00
     -6.498  0.1583E+01  0.2240E+01  0.8571E+00  0.7164E+00
     -6.420  0.1800E+01  0.1297E-02  0.9971E+00  0.7173E+00
     -6.343  0.5425E+00  0.1798E+01  0.1039E+01  0.8571E+00
     -6.265  0.9924E-07  0.1795E+01  0.1044E+01  0.9967E+00
     -6.187  0.1800E+01  0.1684E+00  0.1184E+01  0.1010E+01
     -6.109  0.3335E+01  0.4315E+00  0.1443E+01  0.1044E+01
     -6.031  0.0000E+00  0.1799E+01  0.1464E+01  0.1184E+01
     -5.954  0.0000E+00  0.1246E+01  0.1464E+01  0.1281E+01
     -5.876  0.6078E-01  0.2353E+01  0.1468E+01  0.1464E+01
     -5.798  0.1851E+01  0.0000E+00  0.1612E+01  0.1464E+01
     -5.720  0.1800E+01  0.5887E-03  0.1778E+01  0.1464E+01
     -5.643  0.2669E+01  0.8307E+00  0.1986E+01  0.1528E+01
     -5.565  0.1788E+01  0.3218E+01  0.2127E+01  0.1778E+01
     -5.487  0.4774E-07  0.2023E+01  0.2128E+01  0.1936E+01
     -5.409  0.1800E+01  0.1449E+01  0.2268E+01  0.2101E+01
     -5.332  0.3602E+01  0.7713E-12  0.2548E+01  0.2128E+01
     -5.254  0.1795E+01  0.1799E+01  0.2688E+01  0.2268E+01
     -5.176  0.0000E+00  0.3440E+01  0.2688E+01  0.2536E+01
     -5.098  0.2436E+00  0.1800E+01  0.2707E+01  0.2688E+01
     -5.021  0.1556E+01  0.0000E+00  0.2828E+01  0.2688E+01
     -4.943  0.1734E+01  0.1054E-01  0.2963E+01  0.2689E+01
     -4.865  0.4635E+01  0.1789E+01  0.3329E+01  0.2828E+01
     -4.787  0.1033E+01  0.1118E+01  0.3410E+01  0.2915E+01
     -4.709  0.3350E+01  0.4982E+01  0.3670E+01  0.3302E+01
     -4.632  0.1493E+01  0.1073E+00  0.3889E+01  0.3338E+01
     -4.554  0.2025E+00  0.2533E+01  0.3905E+01  0.3535E+01
     -4.476  0.3475E+01  0.4558E+01  0.4175E+01  0.3889E+01
     -4.398  0.3521E+01  0.4750E-01  0.4449E+01  0.3893E+01
     -4.321  0.3893E+01  0.3552E+01  0.4752E+01  0.4169E+01
     -4.243  0.1795E+01  0.3598E+01  0.4939E+01  0.4449E+01
     -4.165  0.5365E-01  0.3065E+01  0.4943E+01  0.4687E+01
     -4.087  0.8944E+01  0.3132E+01  0.5638E+01  0.4939E+01
     -4.010  0.0000E+00  0.4640E-02  0.5638E+01  0.4939E+01
     -3.932  0.0000E+00  0.8993E+01  0.5638E+01  0.5638E+01
     -3.854  0.3522E-02  0.0000E+00  0.5639E+01  0.5638E+01
     -3.776  0.4689E+01  0.0000E+00  0.6003E+01  0.5638E+01
     -3.698  0.4557E+01  0.2708E-05  0.6358E+01  0.5638E+01
     -3.621  0.1695E+01  0.4069E+01  0.6505E+01  0.5955E+01
     -3.543  0.5374E+01  0.4490E+01  0.6933E+01  0.6304E+01
     -3.465  0.3596E+01  0.1942E+01  0.7213E+01  0.6462E+01
     -3.387  0.1487E+01  0.5398E+01  0.7328E+01  0.6933E+01
     -3.310  0.8996E+00  0.3510E+01  0.7423E+01  0.7206E+01
     -3.232  0.1321E+01  0.6149E+00  0.7526E+01  0.7261E+01
     -3.154  0.3599E+01  0.2084E+01  0.7860E+01  0.7423E+01
     -3.076  0.9325E+00  0.3088E+00  0.7933E+01  0.7447E+01
     -2.999  0.8669E+00  0.5254E+01  0.8000E+01  0.7855E+01
     -2.921  0.0000E+00  0.9001E+00  0.8000E+01  0.7930E+01
     -2.843  0.0000E+00  0.8994E+00  0.8000E+01  0.8000E+01
     -2.765  0.0000E+00  0.0000E+00  0.8000E+01  0.8000E+01
     -2.688  0.0000E+00  0.0000E+00  0.8000E+01  0.8000E+01
     -2.610  0.0000E+00  0.0000E+00  0.8000E+01  0.8000E+01
     -2.532  0.0000E+00  0.0000E+00  0.8000E+01  0.8000E+01
     -2.454  0.0000E+00  0.0000E+00  0.8000E+01  0.8000E+01
     -2.376  0.0000E+00  0.0000E+00  0.8000E+01  0.8000E+01
     -2.299  0.0000E+00  0.0000E+00  0.8000E+01  0.8000E+01
     -2.221  0.0000E+00  0.0000E+00  0.8000E+01  0.8000E+01
     -2.143  0.0000E+00  0.0000E+00  0.8000E+01  0.8000E+01
     -2.065  0.0000E+00  0.0000E+00  0.8000E+01  0.8000E+01
     -1.988  0.0000E+00  0.0000E+00  0.8000E+01  0.8000E+01
     -1.910  0.0000E+00  0.0000E+00  0.8000E+01  0.8000E+01
     -1.832  0.0000E+00  0.0000E+00  0.8000E+01  0.8000E+01
     -1.754  0.0000E+00  0.0000E+00  0.8000E+01  0.8000E+01
     -1.677  0.0000E+00  0.0000E+00  0.8000E+01  0.8000E+01
     -1.599  0.0000E+00  0.0000E+00  0.8000E+01  0.8000E+01
     -1.521  0.0000E+00  0.0000E+00  0.8000E+01  0.8000E+01
     -1.443  0.0000E+00  0.0000E+00  0.8000E+01  0.8000E+01
     -1.366  0.0000E+00  0.0000E+00  0.8000E+01  0.8000E+01
     -1.288  0.0000E+00  0.0000E+00  0.8000E+01  0.8000E+01
     -1.210  0.0000E+00  0.0000E+00  0.8000E+01  0.8000E+01
     -1.132  0.0000E+00  0.0000E+00  0.8000E+01  0.8000E+01
     -1.054  0.0000E+00  0.0000E+00  0.8000E+01  0.8000E+01
     -0.977  0.1603E+01  0.0000E+00  0.8125E+01  0.8000E+01
     -0.899  0.0000E+00  0.0000E+00  0.8140E+01  0.8000E+01
     -0.821  0.2320E-09  0.9391E-03  0.8140E+01  0.8000E+01
     -0.743  0.1800E+01  0.1799E+01  0.8280E+01  0.8140E+01
     -0.666  0.3560E-13  0.0000E+00  0.8280E+01  0.8140E+01
     -0.588  0.2567E+01  0.1219E+01  0.8480E+01  0.8235E+01
     -0.510  0.1859E+01  0.0000E+00  0.8624E+01  0.8280E+01
     -0.432  0.9761E+00  0.3003E+00  0.8700E+01  0.8303E+01
     -0.355  0.4421E+01  0.4155E+01  0.9044E+01  0.8632E+01
     -0.277  0.6160E-03  0.8210E+00  0.9044E+01  0.8696E+01
     -0.199  0.5205E+01  0.4473E+01  0.9449E+01  0.9044E+01
     -0.121  0.2926E+01  0.4266E-01  0.9676E+01  0.9047E+01
     -0.043  0.6725E+01  0.5874E+01  0.1020E+02  0.9504E+01
      0.034  0.2324E+01  0.1800E+01  0.1048E+02  0.9673E+01
      0.112  0.7428E+01  0.3266E+01  0.1109E+02  0.9927E+01
      0.190  0.1017E+02  0.6961E+01  0.1188E+02  0.1049E+02
      0.268  0.7502E+00  0.7660E+01  0.1195E+02  0.1111E+02
      0.345  0.1773E+01  0.7241E+01  0.1209E+02  0.1168E+02
      0.423  0.0000E+00  0.3453E+01  0.1209E+02  0.1195E+02
      0.501  0.3551E+01  0.1576E+00  0.1236E+02  0.1196E+02
      0.579  0.2781E+01  0.1642E+01  0.1258E+02  0.1209E+02
      0.656  0.3511E+01  0.3661E+00  0.1286E+02  0.1212E+02
      0.734  0.0000E+00  0.4875E+01  0.1286E+02  0.1250E+02
      0.812  0.0000E+00  0.4264E+01  0.1286E+02  0.1286E+02
      0.890  0.0000E+00  0.0000E+00  0.1286E+02  0.1286E+02
      0.967  0.5888E-02  0.0000E+00  0.1286E+02  0.1286E+02
      1.045  0.2250E+01  0.0000E+00  0.1303E+02  0.1286E+02
      1.123  0.3165E+01  0.5895E-04  0.1328E+02  0.1286E+02
      1.201  0.3567E+01  0.1799E+01  0.1356E+02  0.1300E+02
      1.279  0.3598E+01  0.3542E+01  0.1384E+02  0.1327E+02
      1.356  0.1800E+01  0.2216E+01  0.1398E+02  0.1345E+02
      1.434  0.4422E+00  0.3644E+01  0.1401E+02  0.1373E+02
      1.512  0.0000E+00  0.1800E+01  0.1401E+02  0.1398E+02
      1.590  0.0000E+00  0.4425E+00  0.1401E+02  0.1401E+02
      1.667  0.4516E-03  0.0000E+00  0.1401E+02  0.1401E+02
      1.745  0.8993E+00  0.0000E+00  0.1408E+02  0.1401E+02
      1.823  0.1956E-01  0.4790E-11  0.1408E+02  0.1401E+02
      1.901  0.5352E+01  0.8998E+00  0.1450E+02  0.1408E+02
      1.978  0.1177E+01  0.1333E-05  0.1459E+02  0.1408E+02
      2.056  0.6358E+00  0.3871E+01  0.1464E+02  0.1438E+02
      2.134  0.6911E+01  0.2428E+01  0.1518E+02  0.1457E+02
      2.212  0.9598E-01  0.5998E+00  0.1519E+02  0.1462E+02
      2.289  0.2938E+01  0.6276E+01  0.1541E+02  0.1511E+02
      2.367  0.5064E+01  0.9294E+00  0.1581E+02  0.1518E+02
      2.445  0.2709E+01  0.2697E+01  0.1602E+02  0.1539E+02
      2.523  0.5378E+01  0.5393E+01  0.1644E+02  0.1581E+02
      2.601  0.3618E+01  0.2699E+01  0.1672E+02  0.1602E+02
      2.678  0.8806E+00  0.5051E+01  0.1679E+02  0.1641E+02
      2.756  0.1798E+01  0.3599E+01  0.1693E+02  0.1672E+02
      2.834  0.1332E+01  0.6475E+00  0.1703E+02  0.1677E+02
      2.912  0.1810E+01  0.1917E+00  0.1717E+02  0.1680E+02
      2.989  0.7813E+01  0.2934E+01  0.1778E+02  0.1703E+02
      3.067  0.6119E+01  0.1800E+01  0.1829E+02  0.1717E+02
      3.145  0.9925E-09  0.6149E+01  0.1829E+02  0.1765E+02
      3.223  0.1800E+01  0.8037E+01  0.1843E+02  0.1829E+02
      3.300  0.1391E+01  0.1153E-11  0.1854E+02  0.1829E+02
      3.378  0.3603E+01  0.1799E+01  0.1885E+02  0.1843E+02
      3.456  0.1791E+01  0.1872E-02  0.1899E+02  0.1843E+02
      3.534  0.7825E-02  0.5397E+01  0.1899E+02  0.1885E+02
      3.612  0.6747E+01  0.1800E+01  0.1952E+02  0.1899E+02
      3.689  0.1015E+02  0.6261E-04  0.2031E+02  0.1899E+02
      3.767  0.4553E+01  0.6341E+01  0.2067E+02  0.1948E+02
      3.845  0.4478E+01  0.1025E+02  0.2109E+02  0.2028E+02
      3.923  0.4592E+00  0.3225E+01  0.2113E+02  0.2057E+02
      4.000  0.4421E+01  0.6670E+01  0.2147E+02  0.2109E+02
      4.078  0.3582E+01  0.4504E+00  0.2175E+02  0.2113E+02
      4.156  0.2726E+01  0.4325E+01  0.2198E+02  0.2146E+02
      4.234  0.8933E+01  0.2493E+01  0.2267E+02  0.2167E+02
      4.311  0.2385E+01  0.3514E+01  0.2289E+02  0.2197E+02
      4.389  0.4459E+01  0.7941E+01  0.2326E+02  0.2258E+02
      4.467  0.4471E+01  0.2966E+01  0.2360E+02  0.2285E+02
      4.545  0.3809E+01  0.4373E+01  0.2391E+02  0.2319E+02
      4.622  0.6237E+01  0.5149E+01  0.2439E+02  0.2359E+02
      4.700  0.4004E+01  0.3602E+01  0.2470E+02  0.2389E+02
      4.778  0.9331E+01  0.6312E+01  0.2543E+02  0.2438E+02
      4.856  0.1442E+01  0.3583E+01  0.2554E+02  0.2466E+02
      4.934  0.5168E+01  0.9832E+01  0.2597E+02  0.2542E+02
      5.011  0.3599E+01  0.1303E+01  0.2627E+02  0.2553E+02
      5.089  0.6122E+01  0.4748E+01  0.2674E+02  0.2594E+02
      5.167  0.7764E+00  0.3595E+01  0.2680E+02  0.2627E+02
      5.245  0.5327E+01  0.6026E+01  0.2722E+02  0.2674E+02
      5.322  0.1949E+01  0.8708E+00  0.2738E+02  0.2680E+02
      5.400  0.5471E+01  0.5035E+01  0.2780E+02  0.2720E+02
      5.478  0.5210E+01  0.1906E+01  0.2821E+02  0.2737E+02
      5.556  0.6029E+01  0.5286E+01  0.2868E+02  0.2778E+02
      5.633  0.5182E+01  0.4594E+01  0.2908E+02  0.2814E+02
      5.711  0.4189E+01  0.6758E+01  0.2940E+02  0.2867E+02
      5.789  0.5341E+01  0.5293E+01  0.2985E+02  0.2908E+02
      5.867  0.2006E+01  0.3555E+01  0.3000E+02  0.2936E+02
      5.944  0.9901E+00  0.6279E+01  0.3008E+02  0.2985E+02
      6.022  0.1805E+01  0.1942E+01  0.3022E+02  0.3000E+02
      6.100  0.8649E+01  0.1048E+01  0.3089E+02  0.3008E+02
      6.178  0.2995E+01  0.1797E+01  0.3115E+02  0.3022E+02
      6.256  0.0000E+00  0.7896E+01  0.3115E+02  0.3084E+02
      6.333  0.6304E-03  0.4051E+01  0.3115E+02  0.3115E+02
      6.411  0.3015E+01  0.0000E+00  0.3139E+02  0.3115E+02
      6.489  0.3405E+01  0.1092E-05  0.3166E+02  0.3115E+02
      6.567  0.3980E-05  0.2706E+01  0.3168E+02  0.3136E+02
      6.644  0.2999E+01  0.3379E+01  0.3191E+02  0.3163E+02
      6.722  0.0000E+00  0.1794E-07  0.3191E+02  0.3168E+02
      6.800  0.2723E+00  0.2999E+01  0.3193E+02  0.3191E+02
      6.878  0.8524E+00  0.0000E+00  0.3200E+02  0.3191E+02
      6.955  0.0000E+00  0.1316E-01  0.3200E+02  0.3191E+02
      7.033  0.0000E+00  0.1111E+01  0.3200E+02  0.3200E+02
      7.111  0.0000E+00  0.0000E+00  0.3200E+02  0.3200E+02
      7.189  0.0000E+00  0.0000E+00  0.3200E+02  0.3200E+02
      7.267  0.0000E+00  0.0000E+00  0.3200E+02  0.3200E+02
      7.344  0.0000E+00  0.0000E+00  0.3200E+02  0.3200E+02
      7.422  0.0000E+00  0.0000E+00  0.3200E+02  0.3200E+02
      7.500  0.0000E+00  0.0000E+00  0.3200E+02  0.3200E+02
      7.578  0.0000E+00  0.0000E+00  0.3200E+02  0.3200E+02
      7.655  0.0000E+00  0.0000E+00  0.3200E+02  0.3200E+02
      7.733  0.0000E+00  0.0000E+00  0.3200E+02  0.3200E+02
      7.811  0.0000E+00  0.0000E+00  0.3200E+02  0.3200E+02
      7.889  0.0000E+00  0.0000E+00  0.3200E+02  0.3200E+02
      7.966  0.0000E+00  0.0000E+00  0.3200E+02  0.3200E+02
      8.044  0.0000E+00  0.0000E+00  0.3200E+02  0.3200E+02
      8.122  0.0000E+00  0.0000E+00  0.3200E+02  0.3200E+02
      8.200  0.0000E+00  0.0000E+00  0.3200E+02  0.3200E+02
      8.277  0.8032E-02  0.0000E+00  0.3200E+02  0.3200E+02
      8.355  0.2169E+00  0.0000E+00  0.3202E+02  0.3200E+02
      8.433  0.0000E+00  0.0000E+00  0.3202E+02  0.3200E+02
      8.511  0.3244E+00  0.0000E+00  0.3204E+02  0.3200E+02
      8.589  0.0000E+00  0.0000E+00  0.3205E+02  0.3200E+02
      8.666  0.0000E+00  0.1906E+00  0.3205E+02  0.3201E+02
      8.744  0.0000E+00  0.0000E+00  0.3205E+02  0.3202E+02
      8.822  0.3996E-15  0.5882E-11  0.3205E+02  0.3202E+02
      8.900  0.8983E+00  0.4499E+00  0.3212E+02  0.3205E+02
      8.977  0.0000E+00  0.0000E+00  0.3212E+02  0.3205E+02
      9.055  0.1393E-02  0.0000E+00  0.3212E+02  0.3205E+02
      9.133  0.2786E+01  0.0000E+00  0.3234E+02  0.3205E+02
      9.211  0.3614E+00  0.2049E-02  0.3237E+02  0.3205E+02
      9.288  0.2727E-01  0.8977E+00  0.3237E+02  0.3212E+02
      9.366  0.1772E+01  0.9989E-16  0.3251E+02  0.3212E+02
      9.444  0.0000E+00  0.2488E+01  0.3251E+02  0.3232E+02
      9.522  0.0000E+00  0.4499E+00  0.3251E+02  0.3237E+02
      9.599  0.0000E+00  0.2569E-05  0.3251E+02  0.3237E+02
      9.677  0.1712E+01  0.1800E+01  0.3264E+02  0.3251E+02
      9.755  0.0000E+00  0.0000E+00  0.3265E+02  0.3251E+02
      9.833  0.5894E-14  0.0000E+00  0.3265E+02  0.3251E+02
      9.911  0.1798E+01  0.0000E+00  0.3279E+02  0.3251E+02
      9.988  0.2470E-11  0.1871E+00  0.3279E+02  0.3252E+02
     10.066  0.1799E+01  0.1612E+01  0.3293E+02  0.3265E+02
     10.144  0.4499E+00  0.0000E+00  0.3296E+02  0.3265E+02
     10.222  0.4076E+01  0.1789E+01  0.3328E+02  0.3279E+02
     10.299  0.6832E+00  0.4829E-10  0.3338E+02  0.3279E+02
     10.377  0.1809E+01  0.1800E+01  0.3352E+02  0.3293E+02
     10.455  0.1786E+01  0.5771E+00  0.3366E+02  0.3297E+02
     10.533  0.2797E-14  0.4187E+01  0.3366E+02  0.3330E+02
     10.610  0.1798E+01  0.8997E+00  0.3380E+02  0.3338E+02
     10.688  0.2098E-13  0.1800E+01  0.3380E+02  0.3352E+02
     10.766  0.3597E+01  0.1800E+01  0.3408E+02  0.3366E+02
     10.844  0.1800E+01  0.3783E-08  0.3422E+02  0.3366E+02
     10.922  0.3598E+01  0.1800E+01  0.3450E+02  0.3380E+02
     10.999  0.7490E-01  0.9683E-08  0.3451E+02  0.3380E+02
     11.077  0.3960E-07  0.3722E+01  0.3451E+02  0.3409E+02
     11.155  0.2249E+01  0.2268E+01  0.3468E+02  0.3427E+02
     11.233  0.4190E-02  0.3181E+01  0.3468E+02  0.3452E+02
     11.310  0.4045E+01  0.2383E+00  0.3500E+02  0.3454E+02
     11.388  0.1045E+01  0.2671E+00  0.3508E+02  0.3456E+02
     11.466  0.1654E+01  0.1532E+01  0.3521E+02  0.3468E+02
     11.544  0.4442E+01  0.1892E+01  0.3555E+02  0.3483E+02
     11.621  0.6379E+01  0.2156E+01  0.3606E+02  0.3500E+02
     11.699  0.8545E+01  0.2004E+01  0.3674E+02  0.3515E+02
     11.777  0.3061E+01  0.2424E+01  0.3707E+02  0.3534E+02
     11.855  0.5171E+01  0.8749E+01  0.3751E+02  0.3604E+02
     11.932  0.3918E+01  0.2336E+01  0.3786E+02  0.3624E+02
     12.010  0.3490E+01  0.8005E+01  0.3813E+02  0.3686E+02
     12.088  0.2944E+01  0.3840E+01  0.3836E+02  0.3716E+02
     12.166  0.1706E+01  0.9499E+01  0.3855E+02  0.3790E+02
     12.244  0.2174E+01  0.4731E+01  0.3872E+02  0.3827E+02
     12.321  0.3744E+01  0.3428E+01  0.3902E+02  0.3854E+02
     12.399  0.3613E+01  0.4061E+00  0.3930E+02  0.3859E+02
     12.477  0.3569E+01  0.6144E-01  0.3958E+02  0.3860E+02
     12.555  0.5052E-01  0.5399E+01  0.3958E+02  0.3902E+02
     12.632  0.1749E+01  0.5347E+01  0.3972E+02  0.3944E+02
     12.710  0.3919E-01  0.1800E+01  0.3972E+02  0.3958E+02
     12.788  0.2660E+01  0.1593E+01  0.3993E+02  0.3970E+02
     12.866  0.0000E+00  0.0000E+00  0.3993E+02  0.3972E+02
     12.943  0.0000E+00  0.1043E+00  0.3993E+02  0.3973E+02
     13.021  0.0000E+00  0.2595E+01  0.3993E+02  0.3993E+02
     13.099  0.0000E+00  0.0000E+00  0.3993E+02  0.3993E+02
     13.177  0.3330E-16  0.0000E+00  0.3993E+02  0.3993E+02
     13.254  0.8959E+00  0.0000E+00  0.4000E+02  0.3993E+02
     13.332  0.0000E+00  0.0000E+00  0.4000E+02  0.3993E+02
     13.410  0.0000E+00  0.1385E-03  0.4000E+02  0.3993E+02
     13.488  0.0000E+00  0.8996E+00  0.4000E+02  0.4000E+02
     13.566  0.0000E+00  0.0000E+00  0.4000E+02  0.4000E+02
     13.643  0.0000E+00  0.0000E+00  0.4000E+02  0.4000E+02
     13.721  0.0000E+00  0.0000E+00  0.4000E+02  0.4000E+02
     13.799  0.0000E+00  0.0000E+00  0.4000E+02  0.4000E+02
     13.877  0.0000E+00  0.0000E+00  0.4000E+02  0.4000E+02
     13.954  0.0000E+00  0.0000E+00  0.4000E+02  0.4000E+02
     14.032  0.0000E+00  0.0000E+00  0.4000E+02  0.4000E+02
     14.110  0.0000E+00  0.0000E+00  0.4000E+02  0.4000E+02
     14.188  0.0000E+00  0.0000E+00  0.4000E+02  0.4000E+02
     14.265  0.0000E+00  0.0000E+00  0.4000E+02  0.4000E+02
     14.343  0.0000E+00  0.0000E+00  0.4000E+02  0.4000E+02
     14.421  0.0000E+00  0.0000E+00  0.4000E+02  0.4000E+02
     14.499  0.0000E+00  0.0000E+00  0.4000E+02  0.4000E+02
