Si and Ge interface calculation         
           1
     4.500000    0.000000    0.000000
     0.000000    4.500000    0.000000
     0.000000    0.000000    4.500000
   C    Si   C    Si   C    Si   C    Si
     1     1     1     1     1     1     1     1
Direct configuration=     1
   0.00000000  0.00000000  0.00000000
   0.25000000  0.25000000  0.25000000
   0.00000000  0.50000000  0.50000000
   0.25000000  0.75000000  0.75000000
   0.50000000  0.00000000  0.50000000
   0.75000000  0.25000000  0.75000000
   0.50000000  0.50000000  0.00000000
   0.75000000  0.75000000  0.25000000
