 120 120   0   0
  0.1738714E+02  0.7680595E-09  0.1629300E-08  0.1667299E-08  0.5000000E-15
  1.000000000000000E-004
  CAR 
 Si and Ge interface calculation         
      9.93444573    -10.94669042  301      6.74453939      1.00000000
    -10.947  0.0000E+00  0.0000E+00  0.0000E+00  0.0000E+00
    -10.877  0.0000E+00  0.0000E+00  0.0000E+00  0.0000E+00
    -10.807  0.0000E+00  0.0000E+00  0.0000E+00  0.0000E+00
    -10.738  0.0000E+00  0.0000E+00  0.0000E+00  0.0000E+00
    -10.668  0.0000E+00  0.0000E+00  0.0000E+00  0.0000E+00
    -10.599  0.0000E+00  0.0000E+00  0.0000E+00  0.0000E+00
    -10.529  0.0000E+00  0.0000E+00  0.0000E+00  0.0000E+00
    -10.459  0.0000E+00  0.0000E+00  0.0000E+00  0.0000E+00
    -10.390  0.0000E+00  0.0000E+00  0.0000E+00  0.0000E+00
    -10.320  0.0000E+00  0.0000E+00  0.0000E+00  0.0000E+00
    -10.251  0.0000E+00  0.0000E+00  0.0000E+00  0.0000E+00
    -10.181  0.0000E+00  0.0000E+00  0.0000E+00  0.0000E+00
    -10.111  0.0000E+00  0.0000E+00  0.0000E+00  0.0000E+00
    -10.042  0.2233E-13  0.1313E-08  0.1554E-14  0.9139E-10
     -9.972  0.1065E+02  0.1105E+02  0.7411E+00  0.7692E+00
     -9.903  0.3574E+01  0.3544E+01  0.1000E+01  0.1016E+01
     -9.833  0.2873E+02  0.2850E+02  0.3000E+01  0.3000E+01
     -9.763  0.0000E+00  0.2243E-13  0.3000E+01  0.3000E+01
     -9.694  0.5608E+01  0.7712E+01  0.3390E+01  0.3537E+01
     -9.624  0.8759E+01  0.6508E+01  0.4000E+01  0.4000E+01
     -9.555  0.0000E+00  0.0000E+00  0.4000E+01  0.4000E+01
     -9.485  0.0000E+00  0.0000E+00  0.4000E+01  0.4000E+01
     -9.415  0.0000E+00  0.0000E+00  0.4000E+01  0.4000E+01
     -9.346  0.0000E+00  0.0000E+00  0.4000E+01  0.4000E+01
     -9.276  0.0000E+00  0.0000E+00  0.4000E+01  0.4000E+01
     -9.207  0.0000E+00  0.0000E+00  0.4000E+01  0.4000E+01
     -9.137  0.4463E+01  0.7886E+01  0.4311E+01  0.4549E+01
     -9.067  0.1501E+02  0.1379E+02  0.5355E+01  0.5508E+01
     -8.998  0.3409E+02  0.3536E+02  0.7728E+01  0.7982E+01
     -8.928  0.3901E+01  0.0000E+00  0.8000E+01  0.8000E+01
     -8.859  0.0000E+00  0.0000E+00  0.8000E+01  0.8000E+01
     -8.789  0.1140E+01  0.3213E+01  0.8079E+01  0.8224E+01
     -8.719  0.1323E+02  0.1115E+02  0.9000E+01  0.9000E+01
     -8.650  0.2533E+02  0.2579E+02  0.1076E+02  0.1080E+02
     -8.580  0.3376E+01  0.2944E+01  0.1100E+02  0.1100E+02
     -8.511  0.7064E+01  0.1117E+02  0.1149E+02  0.1178E+02
     -8.441  0.7303E+01  0.3164E+01  0.1200E+02  0.1200E+02
     -8.371  0.0000E+00  0.0000E+00  0.1200E+02  0.1200E+02
     -8.302  0.5562E-02  0.8232E-01  0.1200E+02  0.1201E+02
     -8.232  0.3951E+02  0.4270E+02  0.1475E+02  0.1498E+02
     -8.163  0.1782E+02  0.1428E+02  0.1599E+02  0.1599E+02
     -8.093  0.0000E+00  0.0000E+00  0.1600E+02  0.1600E+02
     -8.023  0.9424E-03  0.4033E-01  0.1600E+02  0.1600E+02
     -7.954  0.2873E+02  0.2869E+02  0.1800E+02  0.1800E+02
     -7.884  0.3193E-07  0.7186E-05  0.1800E+02  0.1800E+02
     -7.815  0.1333E+02  0.1470E+02  0.1893E+02  0.1902E+02
     -7.745  0.1540E+02  0.1402E+02  0.2000E+02  0.2000E+02
     -7.675  0.7611E+00  0.3067E+01  0.2005E+02  0.2021E+02
     -7.606  0.1361E+02  0.1130E+02  0.2100E+02  0.2100E+02
     -7.536  0.0000E+00  0.0000E+00  0.2100E+02  0.2100E+02
     -7.467  0.0000E+00  0.0000E+00  0.2100E+02  0.2100E+02
     -7.397  0.0000E+00  0.0000E+00  0.2100E+02  0.2100E+02
     -7.327  0.0000E+00  0.0000E+00  0.2100E+02  0.2100E+02
     -7.258  0.2456E-10  0.2492E-07  0.2100E+02  0.2100E+02
     -7.188  0.2691E+02  0.2849E+02  0.2287E+02  0.2298E+02
     -7.118  0.1799E+01  0.0000E+00  0.2300E+02  0.2300E+02
     -7.049  0.1348E+01  0.5479E+01  0.2309E+02  0.2338E+02
     -6.979  0.1302E+02  0.8888E+01  0.2400E+02  0.2400E+02
     -6.910  0.0000E+00  0.0000E+00  0.2400E+02  0.2400E+02
     -6.840  0.1016E-01  0.2458E+00  0.2400E+02  0.2402E+02
     -6.770  0.1436E+02  0.1412E+02  0.2500E+02  0.2500E+02
     -6.701  0.0000E+00  0.0000E+00  0.2500E+02  0.2500E+02
     -6.631  0.0000E+00  0.0000E+00  0.2500E+02  0.2500E+02
     -6.562  0.0000E+00  0.0000E+00  0.2500E+02  0.2500E+02
     -6.492  0.0000E+00  0.0000E+00  0.2500E+02  0.2500E+02
     -6.422  0.0000E+00  0.0000E+00  0.2500E+02  0.2500E+02
     -6.353  0.5882E+00  0.5572E+01  0.2504E+02  0.2539E+02
     -6.283  0.2815E+02  0.2316E+02  0.2700E+02  0.2700E+02
     -6.214  0.4685E+01  0.5204E+01  0.2733E+02  0.2736E+02
     -6.144  0.1033E+02  0.5965E+01  0.2805E+02  0.2779E+02
     -6.074  0.2687E+02  0.1789E+02  0.2992E+02  0.2903E+02
     -6.005  0.1153E+01  0.1393E+02  0.3000E+02  0.3000E+02
     -5.935  0.1304E+00  0.1411E+01  0.3001E+02  0.3010E+02
     -5.866  0.1858E+02  0.1151E+02  0.3130E+02  0.3090E+02
     -5.796  0.1003E+02  0.1564E+02  0.3200E+02  0.3199E+02
     -5.726  0.1402E+00  0.8511E-01  0.3201E+02  0.3201E+02
     -5.657  0.2995E+01  0.3364E+01  0.3222E+02  0.3224E+02
     -5.587  0.3792E+02  0.2657E+02  0.3486E+02  0.3409E+02
     -5.518  0.6887E+01  0.2285E+02  0.3534E+02  0.3568E+02
     -5.448  0.2966E+02  0.2548E+02  0.3740E+02  0.3745E+02
     -5.378  0.9590E+01  0.1174E+02  0.3808E+02  0.3828E+02
     -5.309  0.2957E+02  0.2789E+02  0.4014E+02  0.4022E+02
     -5.239  0.1339E+02  0.1259E+02  0.4107E+02  0.4110E+02
     -5.170  0.9807E+01  0.9317E+01  0.4175E+02  0.4175E+02
     -5.100  0.1077E+02  0.1075E+02  0.4250E+02  0.4250E+02
     -5.030  0.7178E+01  0.7243E+01  0.4300E+02  0.4300E+02
     -4.961  0.2321E+02  0.2324E+02  0.4462E+02  0.4462E+02
     -4.891  0.1068E+02  0.1331E+02  0.4537E+02  0.4555E+02
     -4.822  0.3674E+02  0.3460E+02  0.4793E+02  0.4796E+02
     -4.752  0.1364E+02  0.1278E+02  0.4888E+02  0.4885E+02
     -4.682  0.1083E+02  0.1166E+02  0.4964E+02  0.4966E+02
     -4.613  0.1987E+02  0.1924E+02  0.5102E+02  0.5101E+02
     -4.543  0.2547E+02  0.2680E+02  0.5280E+02  0.5287E+02
     -4.474  0.1906E+02  0.1820E+02  0.5413E+02  0.5414E+02
     -4.404  0.2475E+02  0.2402E+02  0.5585E+02  0.5582E+02
     -4.334  0.2164E+02  0.2219E+02  0.5738E+02  0.5738E+02
     -4.265  0.3160E+02  0.3174E+02  0.5958E+02  0.5960E+02
     -4.195  0.3169E+02  0.3157E+02  0.6179E+02  0.6180E+02
     -4.126  0.2871E+02  0.2919E+02  0.6379E+02  0.6383E+02
     -4.056  0.7581E+01  0.7075E+01  0.6433E+02  0.6434E+02
     -3.986  0.3718E+02  0.3845E+02  0.6692E+02  0.6702E+02
     -3.917  0.3596E+02  0.3487E+02  0.6944E+02  0.6946E+02
     -3.847  0.1843E+02  0.1892E+02  0.7072E+02  0.7079E+02
     -3.778  0.2529E+02  0.2294E+02  0.7248E+02  0.7239E+02
     -3.708  0.3362E+02  0.3560E+02  0.7482E+02  0.7487E+02
     -3.638  0.1208E+02  0.1191E+02  0.7568E+02  0.7570E+02
     -3.569  0.2337E+02  0.2302E+02  0.7731E+02  0.7731E+02
     -3.499  0.4878E+02  0.4947E+02  0.8070E+02  0.8075E+02
     -3.429  0.3366E+02  0.3469E+02  0.8305E+02  0.8317E+02
     -3.360  0.5659E+02  0.5363E+02  0.8700E+02  0.8691E+02
     -3.290  0.1148E+02  0.1373E+02  0.8780E+02  0.8787E+02
     -3.221  0.2514E+02  0.2443E+02  0.8955E+02  0.8957E+02
     -3.151  0.4043E+02  0.4033E+02  0.9236E+02  0.9238E+02
     -3.081  0.3947E+02  0.4106E+02  0.9512E+02  0.9524E+02
     -3.012  0.4763E+02  0.4596E+02  0.9845E+02  0.9845E+02
     -2.942  0.2579E+02  0.2660E+02  0.1002E+03  0.1003E+03
     -2.873  0.2333E+02  0.2250E+02  0.1019E+03  0.1019E+03
     -2.803  0.2522E+02  0.2424E+02  0.1036E+03  0.1036E+03
     -2.733  0.2846E+02  0.2864E+02  0.1056E+03  0.1056E+03
     -2.664  0.3250E+02  0.3310E+02  0.1079E+03  0.1079E+03
     -2.594  0.2842E+02  0.2951E+02  0.1099E+03  0.1100E+03
     -2.525  0.3225E+02  0.3165E+02  0.1121E+03  0.1122E+03
     -2.455  0.2038E+02  0.2020E+02  0.1135E+03  0.1136E+03
     -2.385  0.3856E+02  0.3806E+02  0.1162E+03  0.1162E+03
     -2.316  0.3817E+02  0.3828E+02  0.1189E+03  0.1189E+03
     -2.246  0.1240E+02  0.1270E+02  0.1198E+03  0.1198E+03
     -2.177  0.3162E+02  0.3161E+02  0.1220E+03  0.1220E+03
     -2.107  0.2340E+02  0.2352E+02  0.1236E+03  0.1237E+03
     -2.037  0.1911E+02  0.1730E+02  0.1249E+03  0.1249E+03
     -1.968  0.3480E+02  0.3497E+02  0.1274E+03  0.1273E+03
     -1.898  0.1923E+02  0.1870E+02  0.1287E+03  0.1286E+03
     -1.829  0.1660E+02  0.1801E+02  0.1299E+03  0.1299E+03
     -1.759  0.3258E+02  0.3204E+02  0.1321E+03  0.1321E+03
     -1.689  0.1912E+02  0.1946E+02  0.1335E+03  0.1335E+03
     -1.620  0.5739E+01  0.6464E+01  0.1339E+03  0.1339E+03
     -1.550  0.2467E+02  0.2564E+02  0.1356E+03  0.1357E+03
     -1.481  0.3420E+02  0.3195E+02  0.1380E+03  0.1380E+03
     -1.411  0.3080E+02  0.3065E+02  0.1402E+03  0.1401E+03
     -1.341  0.2351E+02  0.2250E+02  0.1418E+03  0.1417E+03
     -1.272  0.3308E+02  0.3224E+02  0.1441E+03  0.1439E+03
     -1.202  0.3302E+02  0.3109E+02  0.1464E+03  0.1461E+03
     -1.133  0.2510E+02  0.2976E+02  0.1481E+03  0.1482E+03
     -1.063  0.1059E+02  0.1016E+02  0.1489E+03  0.1489E+03
     -0.993  0.2903E+02  0.2859E+02  0.1509E+03  0.1509E+03
     -0.924  0.3397E+02  0.3295E+02  0.1533E+03  0.1532E+03
     -0.854  0.2852E+02  0.2890E+02  0.1553E+03  0.1552E+03
     -0.785  0.2606E+02  0.2497E+02  0.1571E+03  0.1569E+03
     -0.715  0.3185E+02  0.3188E+02  0.1593E+03  0.1592E+03
     -0.645  0.5201E+02  0.5333E+02  0.1629E+03  0.1629E+03
     -0.576  0.1991E+02  0.1819E+02  0.1643E+03  0.1642E+03
     -0.506  0.5724E+02  0.5085E+02  0.1683E+03  0.1677E+03
     -0.437  0.3093E+02  0.3758E+02  0.1705E+03  0.1703E+03
     -0.367  0.2425E+02  0.2544E+02  0.1722E+03  0.1721E+03
     -0.297  0.3783E+02  0.3390E+02  0.1748E+03  0.1745E+03
     -0.228  0.4229E+02  0.4259E+02  0.1778E+03  0.1775E+03
     -0.158  0.3862E+02  0.3715E+02  0.1805E+03  0.1801E+03
     -0.088  0.4249E+02  0.4120E+02  0.1834E+03  0.1829E+03
     -0.019  0.2999E+02  0.3589E+02  0.1855E+03  0.1854E+03
      0.051  0.2382E+02  0.2141E+02  0.1872E+03  0.1870E+03
      0.120  0.2735E+02  0.2577E+02  0.1891E+03  0.1888E+03
      0.190  0.3166E+02  0.3465E+02  0.1913E+03  0.1912E+03
      0.260  0.4339E+02  0.4110E+02  0.1943E+03  0.1940E+03
      0.329  0.1716E+02  0.1761E+02  0.1955E+03  0.1953E+03
      0.399  0.2906E+02  0.2878E+02  0.1975E+03  0.1973E+03
      0.468  0.4285E+02  0.4155E+02  0.2005E+03  0.2002E+03
      0.538  0.3028E+02  0.2974E+02  0.2027E+03  0.2023E+03
      0.608  0.4605E+02  0.4717E+02  0.2059E+03  0.2056E+03
      0.677  0.3141E+02  0.3320E+02  0.2081E+03  0.2079E+03
      0.747  0.2463E+02  0.2440E+02  0.2098E+03  0.2096E+03
      0.816  0.2457E+02  0.2218E+02  0.2115E+03  0.2111E+03
      0.886  0.4183E+02  0.4285E+02  0.2144E+03  0.2141E+03
      0.956  0.2270E+02  0.2554E+02  0.2160E+03  0.2159E+03
      1.025  0.3435E+02  0.3208E+02  0.2184E+03  0.2182E+03
      1.095  0.5513E+02  0.5610E+02  0.2223E+03  0.2221E+03
      1.164  0.4529E+02  0.4623E+02  0.2254E+03  0.2253E+03
      1.234  0.3019E+02  0.3050E+02  0.2275E+03  0.2274E+03
      1.304  0.2958E+02  0.2961E+02  0.2296E+03  0.2295E+03
      1.373  0.3151E+02  0.3188E+02  0.2318E+03  0.2317E+03
      1.443  0.3821E+02  0.3282E+02  0.2345E+03  0.2340E+03
      1.512  0.3531E+02  0.3252E+02  0.2369E+03  0.2363E+03
      1.582  0.5210E+02  0.4672E+02  0.2406E+03  0.2395E+03
      1.652  0.2289E+02  0.3082E+02  0.2422E+03  0.2417E+03
      1.721  0.3080E+02  0.3403E+02  0.2443E+03  0.2441E+03
      1.791  0.2777E+02  0.2748E+02  0.2463E+03  0.2460E+03
      1.860  0.4571E+02  0.3896E+02  0.2495E+03  0.2487E+03
      1.930  0.4086E+02  0.4556E+02  0.2523E+03  0.2519E+03
      2.000  0.2406E+02  0.2759E+02  0.2540E+03  0.2538E+03
      2.069  0.4868E+02  0.4007E+02  0.2574E+03  0.2566E+03
      2.139  0.3908E+02  0.4320E+02  0.2601E+03  0.2596E+03
      2.208  0.4135E+02  0.3433E+02  0.2630E+03  0.2620E+03
      2.278  0.3415E+02  0.3955E+02  0.2654E+03  0.2648E+03
      2.348  0.3086E+02  0.3557E+02  0.2676E+03  0.2673E+03
      2.417  0.5880E+02  0.5521E+02  0.2717E+03  0.2711E+03
      2.487  0.4058E+02  0.4299E+02  0.2745E+03  0.2741E+03
      2.556  0.5550E+02  0.5661E+02  0.2784E+03  0.2781E+03
      2.626  0.3432E+02  0.3451E+02  0.2808E+03  0.2805E+03
      2.696  0.5519E+02  0.4892E+02  0.2846E+03  0.2839E+03
      2.765  0.5603E+02  0.5931E+02  0.2885E+03  0.2881E+03
      2.835  0.4729E+02  0.4596E+02  0.2918E+03  0.2913E+03
      2.904  0.4068E+02  0.3569E+02  0.2947E+03  0.2938E+03
      2.974  0.5626E+02  0.6676E+02  0.2986E+03  0.2984E+03
      3.044  0.6400E+02  0.5791E+02  0.3031E+03  0.3025E+03
      3.113  0.3593E+02  0.3777E+02  0.3056E+03  0.3051E+03
      3.183  0.6219E+02  0.6081E+02  0.3099E+03  0.3094E+03
      3.252  0.6421E+02  0.6576E+02  0.3144E+03  0.3140E+03
      3.322  0.5312E+02  0.5445E+02  0.3181E+03  0.3178E+03
      3.392  0.6628E+02  0.6268E+02  0.3227E+03  0.3222E+03
      3.461  0.5106E+02  0.4619E+02  0.3263E+03  0.3254E+03
      3.531  0.4046E+02  0.4819E+02  0.3291E+03  0.3288E+03
      3.601  0.6694E+02  0.6463E+02  0.3338E+03  0.3333E+03
      3.670  0.4345E+02  0.4191E+02  0.3368E+03  0.3362E+03
      3.740  0.6455E+02  0.5902E+02  0.3413E+03  0.3403E+03
      3.809  0.7552E+02  0.7950E+02  0.3466E+03  0.3459E+03
      3.879  0.5712E+02  0.5510E+02  0.3506E+03  0.3497E+03
      3.949  0.6699E+02  0.7033E+02  0.3553E+03  0.3546E+03
      4.018  0.5187E+02  0.5292E+02  0.3589E+03  0.3583E+03
      4.088  0.4220E+02  0.4748E+02  0.3619E+03  0.3616E+03
      4.157  0.6317E+02  0.5568E+02  0.3663E+03  0.3655E+03
      4.227  0.6318E+02  0.6089E+02  0.3707E+03  0.3698E+03
      4.297  0.5186E+02  0.5626E+02  0.3743E+03  0.3737E+03
      4.366  0.6287E+02  0.6091E+02  0.3787E+03  0.3780E+03
      4.436  0.5511E+02  0.5802E+02  0.3825E+03  0.3820E+03
      4.505  0.4583E+02  0.4469E+02  0.3857E+03  0.3851E+03
      4.575  0.4351E+02  0.4691E+02  0.3887E+03  0.3884E+03
      4.645  0.5782E+02  0.5185E+02  0.3928E+03  0.3920E+03
      4.714  0.5059E+02  0.4586E+02  0.3963E+03  0.3952E+03
      4.784  0.5257E+02  0.5215E+02  0.4000E+03  0.3989E+03
      4.853  0.3766E+02  0.3715E+02  0.4026E+03  0.4015E+03
      4.923  0.3555E+02  0.4417E+02  0.4051E+03  0.4046E+03
      4.993  0.2888E+02  0.2593E+02  0.4071E+03  0.4064E+03
      5.062  0.5180E+02  0.3779E+02  0.4107E+03  0.4090E+03
      5.132  0.5314E+02  0.5569E+02  0.4144E+03  0.4129E+03
      5.201  0.5170E+02  0.5326E+02  0.4180E+03  0.4166E+03
      5.271  0.5016E+02  0.6274E+02  0.4216E+03  0.4210E+03
      5.341  0.4984E+02  0.2986E+02  0.4250E+03  0.4231E+03
      5.410  0.2604E+02  0.3843E+02  0.4268E+03  0.4258E+03
      5.480  0.4243E+02  0.3655E+02  0.4298E+03  0.4283E+03
      5.549  0.3080E+02  0.3070E+02  0.4319E+03  0.4305E+03
      5.619  0.4514E+02  0.3854E+02  0.4351E+03  0.4332E+03
      5.689  0.3422E+02  0.3605E+02  0.4375E+03  0.4357E+03
      5.758  0.5858E+02  0.4093E+02  0.4416E+03  0.4385E+03
      5.828  0.4570E+02  0.4915E+02  0.4448E+03  0.4420E+03
      5.897  0.5010E+02  0.5764E+02  0.4483E+03  0.4460E+03
      5.967  0.3254E+02  0.3677E+02  0.4505E+03  0.4486E+03
      6.037  0.3871E+02  0.3895E+02  0.4532E+03  0.4513E+03
      6.106  0.5446E+02  0.4027E+02  0.4570E+03  0.4542E+03
      6.176  0.4284E+02  0.4846E+02  0.4600E+03  0.4575E+03
      6.245  0.3823E+02  0.3554E+02  0.4627E+03  0.4600E+03
      6.315  0.3326E+02  0.4003E+02  0.4650E+03  0.4628E+03
      6.385  0.3213E+02  0.4318E+02  0.4673E+03  0.4658E+03
      6.454  0.4807E+02  0.3679E+02  0.4706E+03  0.4684E+03
      6.524  0.3376E+02  0.3338E+02  0.4730E+03  0.4707E+03
      6.593  0.3784E+02  0.3151E+02  0.4756E+03  0.4729E+03
      6.663  0.4496E+02  0.4095E+02  0.4787E+03  0.4758E+03
      6.733  0.4385E+02  0.4009E+02  0.4818E+03  0.4786E+03
      6.802  0.4706E+02  0.3836E+02  0.4851E+03  0.4813E+03
      6.872  0.3765E+02  0.4152E+02  0.4877E+03  0.4842E+03
      6.941  0.4641E+02  0.4575E+02  0.4910E+03  0.4874E+03
      7.011  0.4901E+02  0.4412E+02  0.4944E+03  0.4904E+03
      7.081  0.5211E+02  0.5430E+02  0.4980E+03  0.4942E+03
      7.150  0.3266E+02  0.4299E+02  0.5003E+03  0.4972E+03
      7.220  0.3728E+02  0.3432E+02  0.5029E+03  0.4996E+03
      7.290  0.2512E+02  0.3899E+02  0.5047E+03  0.5023E+03
      7.359  0.4193E+02  0.3983E+02  0.5076E+03  0.5051E+03
      7.429  0.2772E+02  0.3622E+02  0.5095E+03  0.5077E+03
      7.498  0.5786E+02  0.6011E+02  0.5135E+03  0.5118E+03
      7.568  0.3631E+02  0.4384E+02  0.5161E+03  0.5149E+03
      7.638  0.4579E+02  0.4179E+02  0.5193E+03  0.5178E+03
      7.707  0.4910E+02  0.5318E+02  0.5227E+03  0.5215E+03
      7.777  0.4664E+02  0.4628E+02  0.5260E+03  0.5248E+03
      7.846  0.2381E+02  0.2876E+02  0.5277E+03  0.5268E+03
      7.916  0.4228E+02  0.4385E+02  0.5306E+03  0.5298E+03
      7.986  0.3144E+02  0.3581E+02  0.5328E+03  0.5323E+03
      8.055  0.5147E+02  0.4983E+02  0.5364E+03  0.5358E+03
      8.125  0.6244E+02  0.5592E+02  0.5407E+03  0.5397E+03
      8.194  0.4277E+02  0.5131E+02  0.5437E+03  0.5433E+03
      8.264  0.3994E+02  0.3657E+02  0.5465E+03  0.5458E+03
      8.334  0.5423E+02  0.5323E+02  0.5503E+03  0.5495E+03
      8.403  0.5865E+02  0.6485E+02  0.5544E+03  0.5541E+03
      8.473  0.5465E+02  0.5263E+02  0.5582E+03  0.5577E+03
      8.542  0.3725E+02  0.4058E+02  0.5608E+03  0.5606E+03
      8.612  0.6533E+02  0.5873E+02  0.5654E+03  0.5647E+03
      8.682  0.4558E+02  0.5203E+02  0.5686E+03  0.5683E+03
      8.751  0.3467E+02  0.3769E+02  0.5710E+03  0.5709E+03
      8.821  0.3749E+02  0.3387E+02  0.5736E+03  0.5733E+03
      8.890  0.2343E+02  0.2770E+02  0.5752E+03  0.5752E+03
      8.960  0.4319E+01  0.4231E+01  0.5756E+03  0.5755E+03
      9.030  0.6336E+01  0.7089E+01  0.5760E+03  0.5760E+03
      9.099  0.0000E+00  0.0000E+00  0.5760E+03  0.5760E+03
      9.169  0.0000E+00  0.0000E+00  0.5760E+03  0.5760E+03
      9.238  0.0000E+00  0.0000E+00  0.5760E+03  0.5760E+03
      9.308  0.0000E+00  0.0000E+00  0.5760E+03  0.5760E+03
      9.378  0.0000E+00  0.0000E+00  0.5760E+03  0.5760E+03
      9.447  0.0000E+00  0.0000E+00  0.5760E+03  0.5760E+03
      9.517  0.0000E+00  0.0000E+00  0.5760E+03  0.5760E+03
      9.586  0.0000E+00  0.0000E+00  0.5760E+03  0.5760E+03
      9.656  0.0000E+00  0.0000E+00  0.5760E+03  0.5760E+03
      9.726  0.0000E+00  0.0000E+00  0.5760E+03  0.5760E+03
      9.795  0.0000E+00  0.0000E+00  0.5760E+03  0.5760E+03
      9.865  0.0000E+00  0.0000E+00  0.5760E+03  0.5760E+03
      9.934  0.0000E+00  0.0000E+00  0.5760E+03  0.5760E+03
