Si Bulk DFT energetics calculations using VASP\n
This script is running on comp030.cluster.local in /lustre/home/ah1365/projects/127870/upgrade_report/case_studies/common/structures/interfaces/120_Si72Ge48_013_114_a0.308642_b0.076023_c1.486532_interface2shift3\n
Job started on: Sun  8 Jun 14:40:12 UTC 2025\n
 running   64 mpi-ranks, on    4 nodes
 distrk:  each k-point on   64 cores,    1 groups
 distr:  one band on   16 cores,    4 groups
 vasp.6.4.3 19Mar24 (build Oct 22 2024 11:23:12) complex                        
  
 POSCAR found type information on POSCAR SiGe
 POSCAR found :  2 types and     120 ions
 -----------------------------------------------------------------------------
|                                                                             |
|           W    W    AA    RRRRR   N    N  II  N    N   GGGG   !!!           |
|           W    W   A  A   R    R  NN   N  II  NN   N  G    G  !!!           |
|           W    W  A    A  R    R  N N  N  II  N N  N  G       !!!           |
|           W WW W  AAAAAA  RRRRR   N  N N  II  N  N N  G  GGG   !            |
|           WW  WW  A    A  R   R   N   NN  II  N   NN  G    G                |
|           W    W  A    A  R    R  N    N  II  N    N   GGGG   !!!           |
|                                                                             |
|     You use a magnetic or noncollinear calculation, but did not specify     |
|     the initial magnetic moment with the MAGMOM tag. Note that a            |
|     default of 8.333e-3 will be used for all atoms. This ferromagnetic      |
|     setup may break the symmetry of the crystal, in particular it may       |
|     rule out finding an antiferromagnetic solution. Thence, we              |
|     recommend setting the initial magnetic moment manually or verifying     |
|     carefully that this magnetic setup is desired.                          |
|                                                                             |
 -----------------------------------------------------------------------------

 scaLAPACK will be used
 LDA part: xc-table for (Slater+PW92), standard interpolation
 POSCAR, INCAR and KPOINTS ok, starting setup
 FFT: planning ... GRIDC
 FFT: planning ... GRID_SOFT
 FFT: planning ... GRID
 WAVECAR not read
 entering main loop
       N       E                     dE             d eps       ncg     rms          rms(c)
DAV:   1     0.199658393093E+04    0.19966E+04   -0.20823E+05  9216   0.170E+03
DAV:   2    -0.304011641142E+03   -0.23006E+04   -0.22270E+04 10760   0.211E+02
DAV:   3    -0.523900492961E+03   -0.21989E+03   -0.21052E+03 11664   0.579E+01
DAV:   4    -0.533224264595E+03   -0.93238E+01   -0.90419E+01 11048   0.123E+01
DAV:   5    -0.533624503412E+03   -0.40024E+00   -0.39619E+00 12872   0.254E+00    0.302E+01
DAV:   6    -0.521961788991E+03    0.11663E+02   -0.50727E+01 11056   0.118E+01    0.137E+01
DAV:   7    -0.523063416197E+03   -0.11016E+01   -0.34538E+01 12008   0.114E+01    0.106E+01
DAV:   8    -0.520363073120E+03    0.27003E+01   -0.12571E+01 12264   0.729E+00    0.463E+00
DAV:   9    -0.519863620405E+03    0.49945E+00   -0.32808E+00 11488   0.343E+00    0.186E+00
DAV:  10    -0.519857684326E+03    0.59361E-02   -0.84624E-01 10792   0.154E+00    0.122E+00
DAV:  11    -0.519837033876E+03    0.20650E-01   -0.21922E-01 10992   0.868E-01    0.724E-01
DAV:  12    -0.519833762568E+03    0.32713E-02   -0.55369E-02 10776   0.415E-01    0.403E-01
DAV:  13    -0.519833462113E+03    0.30046E-03   -0.16919E-02 10784   0.242E-01    0.240E-01
DAV:  14    -0.519832951057E+03    0.51106E-03   -0.50153E-03 11000   0.142E-01    0.128E-01
DAV:  15    -0.519832911687E+03    0.39369E-04   -0.15754E-03 11224   0.791E-02    0.707E-02
DAV:  16    -0.519832890443E+03    0.21245E-04   -0.53214E-04 11048   0.446E-02    0.333E-02
DAV:  17    -0.519832894284E+03   -0.38415E-05   -0.16723E-04 10960   0.236E-02    0.199E-02
DAV:  18    -0.519832894973E+03   -0.68936E-06   -0.55356E-05 11080   0.144E-02    0.129E-02
DAV:  19    -0.519832897110E+03   -0.21369E-05   -0.18318E-05 10864   0.793E-03    0.757E-03
DAV:  20    -0.519832898567E+03   -0.14572E-05   -0.59613E-06 10632   0.429E-03    0.360E-03
DAV:  21    -0.519832899065E+03   -0.49724E-06   -0.19236E-06 11136   0.209E-03    0.240E-03
DAV:  22    -0.519832899333E+03   -0.26841E-06   -0.53314E-07  9864   0.111E-03    0.172E-03
DAV:  23    -0.519832899648E+03   -0.31491E-06   -0.23082E-07  6616   0.716E-04    0.115E-03
DAV:  24    -0.519832899880E+03   -0.23231E-06   -0.13201E-07  5680   0.544E-04    0.791E-04
DAV:  25    -0.519832899975E+03   -0.94249E-07   -0.11418E-07  6272   0.465E-04
   1 F= -.51983290E+03 E0= -.51983096E+03  d E =-.388075E-02  mag=     1.0000
Job ended on: Sun  8 Jun 14:55:15 UTC 2025\n
