 264 264   0   0
  0.2164176E+02  0.1958175E-08  0.1958175E-08  0.1490025E-08  0.5000000E-15
  1.000000000000000E-004
  CAR 
 Si and Ge interface calculation         
      9.05028372     -8.98100276  301      6.46616104      1.00000000
     -8.981  0.0000E+00  0.0000E+00  0.0000E+00  0.0000E+00
     -8.921  0.0000E+00  0.0000E+00  0.0000E+00  0.0000E+00
     -8.861  0.0000E+00  0.0000E+00  0.0000E+00  0.0000E+00
     -8.801  0.0000E+00  0.0000E+00  0.0000E+00  0.0000E+00
     -8.741  0.0000E+00  0.0000E+00  0.0000E+00  0.0000E+00
     -8.680  0.0000E+00  0.0000E+00  0.0000E+00  0.0000E+00
     -8.620  0.0000E+00  0.0000E+00  0.0000E+00  0.0000E+00
     -8.560  0.0000E+00  0.0000E+00  0.0000E+00  0.0000E+00
     -8.500  0.0000E+00  0.0000E+00  0.0000E+00  0.0000E+00
     -8.440  0.0000E+00  0.0000E+00  0.0000E+00  0.0000E+00
     -8.380  0.0000E+00  0.0000E+00  0.0000E+00  0.0000E+00
     -8.320  0.0000E+00  0.0000E+00  0.0000E+00  0.0000E+00
     -8.260  0.0000E+00  0.0000E+00  0.0000E+00  0.0000E+00
     -8.200  0.4979E-10  0.1484E-06  0.2993E-11  0.8917E-08
     -8.140  0.1495E+02  0.1825E+02  0.8983E+00  0.1097E+01
     -8.079  0.5088E+02  0.5300E+02  0.3956E+01  0.4283E+01
     -8.019  0.6726E+02  0.6184E+02  0.7999E+01  0.8000E+01
     -7.959  0.2163E+02  0.3196E+02  0.9300E+01  0.9921E+01
     -7.899  0.4198E+02  0.3456E+02  0.1182E+02  0.1200E+02
     -7.839  0.5089E+02  0.5027E+02  0.1488E+02  0.1502E+02
     -7.779  0.1861E+02  0.1627E+02  0.1600E+02  0.1600E+02
     -7.719  0.0000E+00  0.0000E+00  0.1600E+02  0.1600E+02
     -7.659  0.0000E+00  0.0000E+00  0.1600E+02  0.1600E+02
     -7.599  0.2403E-08  0.4742E-04  0.1600E+02  0.1600E+02
     -7.538  0.1021E+02  0.3445E+02  0.1661E+02  0.1807E+02
     -7.478  0.1112E+03  0.9463E+02  0.2329E+02  0.2376E+02
     -7.418  0.1173E+02  0.3982E+01  0.2400E+02  0.2400E+02
     -7.358  0.0000E+00  0.0000E+00  0.2400E+02  0.2400E+02
     -7.298  0.1621E-12  0.4411E-07  0.2400E+02  0.2400E+02
     -7.238  0.7569E+01  0.2206E+02  0.2445E+02  0.2533E+02
     -7.178  0.1225E+03  0.1111E+03  0.3182E+02  0.3201E+02
     -7.118  0.1679E+02  0.1636E+02  0.3283E+02  0.3299E+02
     -7.058  0.3604E+02  0.4517E+02  0.3499E+02  0.3571E+02
     -6.998  0.3876E+02  0.3925E+02  0.3732E+02  0.3807E+02
     -6.937  0.4448E+02  0.3217E+02  0.4000E+02  0.4000E+02
     -6.877  0.5048E-01  0.0000E+00  0.4000E+02  0.4000E+02
     -6.817  0.0000E+00  0.0000E+00  0.4000E+02  0.4000E+02
     -6.757  0.2258E-11  0.2968E-06  0.4000E+02  0.4000E+02
     -6.697  0.7357E+01  0.1162E+02  0.4044E+02  0.4070E+02
     -6.637  0.5294E+02  0.5382E+02  0.4362E+02  0.4393E+02
     -6.577  0.6431E+02  0.5933E+02  0.4749E+02  0.4750E+02
     -6.517  0.8449E+01  0.8318E+01  0.4800E+02  0.4800E+02
     -6.457  0.1347E-01  0.0000E+00  0.4800E+02  0.4800E+02
     -6.397  0.0000E+00  0.0000E+00  0.4800E+02  0.4800E+02
     -6.336  0.1285E-09  0.4144E-05  0.4800E+02  0.4800E+02
     -6.276  0.1893E+02  0.2499E+02  0.4914E+02  0.4950E+02
     -6.216  0.5372E+02  0.7014E+02  0.5237E+02  0.5372E+02
     -6.156  0.5972E+02  0.3796E+02  0.5596E+02  0.5600E+02
     -6.096  0.7349E+00  0.0000E+00  0.5600E+02  0.5600E+02
     -6.036  0.0000E+00  0.0000E+00  0.5600E+02  0.5600E+02
     -5.976  0.7842E-02  0.5120E+00  0.5600E+02  0.5603E+02
     -5.916  0.3326E+02  0.3277E+02  0.5800E+02  0.5800E+02
     -5.856  0.4194E+02  0.5852E+02  0.6052E+02  0.6152E+02
     -5.795  0.3359E+02  0.2153E+02  0.6254E+02  0.6281E+02
     -5.735  0.2427E+02  0.1977E+02  0.6400E+02  0.6400E+02
     -5.675  0.8360E+01  0.8456E+01  0.6450E+02  0.6451E+02
     -5.615  0.3681E+02  0.3791E+02  0.6672E+02  0.6679E+02
     -5.555  0.5260E+02  0.5103E+02  0.6988E+02  0.6985E+02
     -5.495  0.2940E+01  0.2663E+01  0.7005E+02  0.7001E+02
     -5.435  0.3239E+02  0.3304E+02  0.7200E+02  0.7200E+02
     -5.375  0.2087E-11  0.4280E-06  0.7200E+02  0.7200E+02
     -5.315  0.1907E+02  0.3262E+02  0.7315E+02  0.7396E+02
     -5.255  0.3910E+02  0.2559E+02  0.7550E+02  0.7550E+02
     -5.194  0.4917E+02  0.5450E+02  0.7845E+02  0.7878E+02
     -5.134  0.3400E+02  0.2869E+02  0.8050E+02  0.8050E+02
     -5.074  0.2577E+02  0.3064E+02  0.8205E+02  0.8234E+02
     -5.014  0.3161E+02  0.3135E+02  0.8395E+02  0.8423E+02
     -4.954  0.1759E+02  0.1420E+02  0.8500E+02  0.8508E+02
     -4.894  0.3430E+02  0.3784E+02  0.8707E+02  0.8735E+02
     -4.834  0.1555E+02  0.1073E+02  0.8800E+02  0.8800E+02
     -4.774  0.3473E+02  0.4041E+02  0.9009E+02  0.9043E+02
     -4.714  0.3925E+02  0.4082E+02  0.9245E+02  0.9288E+02
     -4.653  0.4494E+02  0.4500E+02  0.9515E+02  0.9559E+02
     -4.593  0.3757E+02  0.3229E+02  0.9741E+02  0.9753E+02
     -4.533  0.2416E+02  0.3077E+02  0.9886E+02  0.9938E+02
     -4.473  0.4443E+02  0.4154E+02  0.1015E+03  0.1019E+03
     -4.413  0.4529E+02  0.4881E+02  0.1043E+03  0.1048E+03
     -4.353  0.4697E+02  0.5058E+02  0.1071E+03  0.1078E+03
     -4.293  0.9560E+02  0.8635E+02  0.1128E+03  0.1130E+03
     -4.233  0.5561E+02  0.6854E+02  0.1162E+03  0.1172E+03
     -4.173  0.8410E+02  0.7211E+02  0.1212E+03  0.1215E+03
     -4.113  0.7996E+02  0.8219E+02  0.1260E+03  0.1264E+03
     -4.052  0.3085E+02  0.2856E+02  0.1279E+03  0.1282E+03
     -3.992  0.5053E+02  0.5435E+02  0.1309E+03  0.1314E+03
     -3.932  0.8433E+02  0.8259E+02  0.1360E+03  0.1364E+03
     -3.872  0.8420E+02  0.8727E+02  0.1410E+03  0.1416E+03
     -3.812  0.5465E+02  0.5384E+02  0.1443E+03  0.1449E+03
     -3.752  0.5110E+02  0.4605E+02  0.1474E+03  0.1476E+03
     -3.692  0.5739E+02  0.5755E+02  0.1509E+03  0.1511E+03
     -3.632  0.4579E+02  0.5223E+02  0.1536E+03  0.1542E+03
     -3.572  0.6840E+02  0.6506E+02  0.1577E+03  0.1581E+03
     -3.512  0.6137E+02  0.5817E+02  0.1614E+03  0.1616E+03
     -3.451  0.6619E+02  0.6851E+02  0.1654E+03  0.1658E+03
     -3.391  0.3928E+02  0.3480E+02  0.1677E+03  0.1678E+03
     -3.331  0.5033E+02  0.5640E+02  0.1708E+03  0.1712E+03
     -3.271  0.4394E+02  0.4087E+02  0.1734E+03  0.1737E+03
     -3.211  0.4507E+02  0.4525E+02  0.1761E+03  0.1764E+03
     -3.151  0.6045E+02  0.5609E+02  0.1798E+03  0.1798E+03
     -3.091  0.5791E+02  0.6049E+02  0.1832E+03  0.1834E+03
     -3.031  0.4088E+02  0.4377E+02  0.1857E+03  0.1861E+03
     -2.971  0.7407E+02  0.7200E+02  0.1901E+03  0.1904E+03
     -2.910  0.7303E+02  0.7436E+02  0.1945E+03  0.1948E+03
     -2.850  0.4277E+02  0.4286E+02  0.1971E+03  0.1974E+03
     -2.790  0.8299E+02  0.8654E+02  0.2021E+03  0.2026E+03
     -2.730  0.6042E+02  0.5917E+02  0.2057E+03  0.2062E+03
     -2.670  0.7435E+02  0.6998E+02  0.2102E+03  0.2104E+03
     -2.610  0.9057E+02  0.9154E+02  0.2156E+03  0.2159E+03
     -2.550  0.5817E+02  0.6072E+02  0.2191E+03  0.2195E+03
     -2.490  0.7652E+02  0.7979E+02  0.2237E+03  0.2243E+03
     -2.430  0.5924E+02  0.5251E+02  0.2273E+03  0.2275E+03
     -2.370  0.5404E+02  0.5542E+02  0.2305E+03  0.2308E+03
     -2.309  0.7872E+02  0.8048E+02  0.2353E+03  0.2357E+03
     -2.249  0.6444E+02  0.6713E+02  0.2391E+03  0.2397E+03
     -2.189  0.7408E+02  0.7231E+02  0.2436E+03  0.2440E+03
     -2.129  0.6292E+02  0.6253E+02  0.2474E+03  0.2478E+03
     -2.069  0.7751E+02  0.7745E+02  0.2520E+03  0.2525E+03
     -2.009  0.8222E+02  0.8073E+02  0.2570E+03  0.2573E+03
     -1.949  0.4750E+02  0.5336E+02  0.2598E+03  0.2605E+03
     -1.889  0.8477E+02  0.8234E+02  0.2649E+03  0.2655E+03
     -1.829  0.7909E+02  0.7854E+02  0.2697E+03  0.2702E+03
     -1.768  0.6245E+02  0.6124E+02  0.2734E+03  0.2739E+03
     -1.708  0.7857E+02  0.8250E+02  0.2782E+03  0.2788E+03
     -1.648  0.7532E+02  0.6573E+02  0.2827E+03  0.2828E+03
     -1.588  0.4210E+02  0.4855E+02  0.2852E+03  0.2857E+03
     -1.528  0.8484E+02  0.8603E+02  0.2903E+03  0.2909E+03
     -1.468  0.8199E+02  0.8069E+02  0.2952E+03  0.2957E+03
     -1.408  0.8951E+02  0.8514E+02  0.3006E+03  0.3008E+03
     -1.348  0.4684E+02  0.4636E+02  0.3034E+03  0.3036E+03
     -1.288  0.9748E+02  0.9809E+02  0.3093E+03  0.3095E+03
     -1.228  0.5179E+02  0.4877E+02  0.3124E+03  0.3125E+03
     -1.167  0.6392E+02  0.7555E+02  0.3163E+03  0.3170E+03
     -1.107  0.7232E+02  0.6505E+02  0.3206E+03  0.3209E+03
     -1.047  0.7340E+02  0.7523E+02  0.3250E+03  0.3254E+03
     -0.987  0.6073E+02  0.6371E+02  0.3287E+03  0.3293E+03
     -0.927  0.6265E+02  0.5845E+02  0.3324E+03  0.3328E+03
     -0.867  0.3207E+02  0.3025E+02  0.3344E+03  0.3346E+03
     -0.807  0.5109E+02  0.5121E+02  0.3374E+03  0.3377E+03
     -0.747  0.7687E+02  0.8472E+02  0.3421E+03  0.3428E+03
     -0.687  0.9546E+02  0.8810E+02  0.3478E+03  0.3481E+03
     -0.627  0.5399E+02  0.5259E+02  0.3510E+03  0.3512E+03
     -0.566  0.6288E+02  0.6164E+02  0.3548E+03  0.3549E+03
     -0.506  0.7310E+02  0.7442E+02  0.3592E+03  0.3594E+03
     -0.446  0.4501E+02  0.4488E+02  0.3619E+03  0.3621E+03
     -0.386  0.7917E+02  0.8126E+02  0.3667E+03  0.3670E+03
     -0.326  0.7931E+02  0.7965E+02  0.3714E+03  0.3718E+03
     -0.266  0.4766E+02  0.4876E+02  0.3743E+03  0.3747E+03
     -0.206  0.8294E+02  0.7790E+02  0.3793E+03  0.3794E+03
     -0.146  0.7191E+02  0.7515E+02  0.3836E+03  0.3839E+03
     -0.086  0.1017E+03  0.1040E+03  0.3897E+03  0.3901E+03
     -0.025  0.1180E+03  0.1160E+03  0.3968E+03  0.3971E+03
      0.035  0.9853E+02  0.9900E+02  0.4027E+03  0.4031E+03
      0.095  0.7744E+02  0.7812E+02  0.4074E+03  0.4078E+03
      0.155  0.8872E+02  0.8764E+02  0.4127E+03  0.4130E+03
      0.215  0.8702E+02  0.9141E+02  0.4180E+03  0.4185E+03
      0.275  0.8544E+02  0.7785E+02  0.4231E+03  0.4232E+03
      0.335  0.8938E+02  0.9385E+02  0.4285E+03  0.4288E+03
      0.395  0.8383E+02  0.8100E+02  0.4335E+03  0.4337E+03
      0.455  0.8313E+02  0.8394E+02  0.4385E+03  0.4388E+03
      0.515  0.1073E+03  0.1038E+03  0.4450E+03  0.4450E+03
      0.576  0.7189E+02  0.7368E+02  0.4493E+03  0.4494E+03
      0.636  0.9930E+02  0.9622E+02  0.4552E+03  0.4552E+03
      0.696  0.9856E+02  0.1016E+03  0.4612E+03  0.4613E+03
      0.756  0.9617E+02  0.8740E+02  0.4670E+03  0.4666E+03
      0.816  0.8603E+02  0.9570E+02  0.4721E+03  0.4723E+03
      0.876  0.1155E+03  0.1126E+03  0.4791E+03  0.4791E+03
      0.936  0.5457E+02  0.4911E+02  0.4823E+03  0.4820E+03
      0.996  0.1109E+03  0.1076E+03  0.4890E+03  0.4885E+03
      1.056  0.7860E+02  0.8328E+02  0.4937E+03  0.4935E+03
      1.117  0.6888E+02  0.7000E+02  0.4979E+03  0.4977E+03
      1.177  0.2220E+02  0.2506E+02  0.4992E+03  0.4992E+03
      1.237  0.1274E+03  0.1271E+03  0.5069E+03  0.5069E+03
      1.297  0.7879E+02  0.8284E+02  0.5116E+03  0.5119E+03
      1.357  0.9956E+02  0.8844E+02  0.5176E+03  0.5172E+03
      1.417  0.9019E+02  0.8078E+02  0.5230E+03  0.5220E+03
      1.477  0.5601E+02  0.6205E+02  0.5264E+03  0.5258E+03
      1.537  0.9533E+02  0.9009E+02  0.5321E+03  0.5312E+03
      1.597  0.8499E+02  0.8682E+02  0.5372E+03  0.5364E+03
      1.657  0.1129E+03  0.1110E+03  0.5440E+03  0.5431E+03
      1.718  0.7551E+02  0.7709E+02  0.5485E+03  0.5477E+03
      1.778  0.1233E+03  0.1204E+03  0.5560E+03  0.5549E+03
      1.838  0.1209E+03  0.1146E+03  0.5632E+03  0.5618E+03
      1.898  0.8633E+02  0.9609E+02  0.5684E+03  0.5676E+03
      1.958  0.7205E+02  0.6141E+02  0.5727E+03  0.5713E+03
      2.018  0.7363E+02  0.9972E+02  0.5772E+03  0.5773E+03
      2.078  0.1116E+03  0.9944E+02  0.5839E+03  0.5833E+03
      2.138  0.9243E+02  0.1028E+03  0.5894E+03  0.5894E+03
      2.198  0.1214E+03  0.1209E+03  0.5967E+03  0.5967E+03
      2.258  0.5754E+02  0.5304E+02  0.6002E+03  0.5999E+03
      2.319  0.1254E+03  0.1144E+03  0.6077E+03  0.6068E+03
      2.379  0.1092E+03  0.1190E+03  0.6143E+03  0.6139E+03
      2.439  0.1061E+03  0.1071E+03  0.6207E+03  0.6204E+03
      2.499  0.1099E+03  0.1182E+03  0.6273E+03  0.6275E+03
      2.559  0.1263E+03  0.1236E+03  0.6349E+03  0.6349E+03
      2.619  0.1172E+03  0.1083E+03  0.6419E+03  0.6414E+03
      2.679  0.9605E+02  0.1055E+03  0.6477E+03  0.6478E+03
      2.739  0.1120E+03  0.1084E+03  0.6544E+03  0.6543E+03
      2.799  0.1492E+03  0.1488E+03  0.6634E+03  0.6632E+03
      2.860  0.1494E+03  0.1511E+03  0.6724E+03  0.6723E+03
      2.920  0.1321E+03  0.1321E+03  0.6803E+03  0.6802E+03
      2.980  0.1431E+03  0.1390E+03  0.6889E+03  0.6886E+03
      3.040  0.1351E+03  0.1352E+03  0.6970E+03  0.6967E+03
      3.100  0.1239E+03  0.1225E+03  0.7045E+03  0.7041E+03
      3.160  0.8840E+02  0.9349E+02  0.7098E+03  0.7097E+03
      3.220  0.1015E+03  0.1044E+03  0.7159E+03  0.7160E+03
      3.280  0.1494E+03  0.1337E+03  0.7249E+03  0.7240E+03
      3.340  0.1178E+03  0.1235E+03  0.7320E+03  0.7314E+03
      3.400  0.1193E+03  0.1292E+03  0.7391E+03  0.7392E+03
      3.461  0.1034E+03  0.9611E+02  0.7453E+03  0.7450E+03
      3.521  0.1182E+03  0.1153E+03  0.7524E+03  0.7519E+03
      3.581  0.1288E+03  0.1388E+03  0.7602E+03  0.7602E+03
      3.641  0.1234E+03  0.1217E+03  0.7676E+03  0.7676E+03
      3.701  0.1164E+03  0.1199E+03  0.7746E+03  0.7748E+03
      3.761  0.1158E+03  0.1073E+03  0.7816E+03  0.7812E+03
      3.821  0.1217E+03  0.1257E+03  0.7889E+03  0.7888E+03
      3.881  0.1244E+03  0.1276E+03  0.7964E+03  0.7964E+03
      3.941  0.9279E+02  0.8903E+02  0.8019E+03  0.8018E+03
      4.002  0.1162E+03  0.1145E+03  0.8089E+03  0.8087E+03
      4.062  0.9130E+02  0.9497E+02  0.8144E+03  0.8144E+03
      4.122  0.1230E+03  0.1224E+03  0.8218E+03  0.8217E+03
      4.182  0.1272E+03  0.1182E+03  0.8294E+03  0.8288E+03
      4.242  0.1258E+03  0.1272E+03  0.8370E+03  0.8365E+03
      4.302  0.1035E+03  0.1085E+03  0.8432E+03  0.8430E+03
      4.362  0.1164E+03  0.1157E+03  0.8502E+03  0.8500E+03
      4.422  0.1109E+03  0.9968E+02  0.8569E+03  0.8560E+03
      4.482  0.1251E+03  0.1360E+03  0.8644E+03  0.8641E+03
      4.542  0.1228E+03  0.1212E+03  0.8718E+03  0.8714E+03
      4.603  0.8888E+02  0.9550E+02  0.8771E+03  0.8772E+03
      4.663  0.1101E+03  0.1090E+03  0.8837E+03  0.8837E+03
      4.723  0.1045E+03  0.9534E+02  0.8900E+03  0.8894E+03
      4.783  0.7024E+02  0.6956E+02  0.8943E+03  0.8936E+03
      4.843  0.8781E+02  0.9223E+02  0.8995E+03  0.8992E+03
      4.903  0.1122E+03  0.1170E+03  0.9063E+03  0.9062E+03
      4.963  0.9744E+02  0.8625E+02  0.9121E+03  0.9114E+03
      5.023  0.8276E+02  0.8210E+02  0.9171E+03  0.9163E+03
      5.083  0.1018E+03  0.1049E+03  0.9232E+03  0.9226E+03
      5.144  0.1324E+03  0.1378E+03  0.9312E+03  0.9309E+03
      5.204  0.7526E+02  0.7021E+02  0.9357E+03  0.9351E+03
      5.264  0.1177E+03  0.1174E+03  0.9428E+03  0.9422E+03
      5.324  0.6438E+02  0.6897E+02  0.9467E+03  0.9463E+03
      5.384  0.1050E+03  0.9485E+02  0.9530E+03  0.9520E+03
      5.444  0.8757E+02  0.9501E+02  0.9582E+03  0.9577E+03
      5.504  0.8626E+02  0.8121E+02  0.9634E+03  0.9626E+03
      5.564  0.1119E+03  0.9399E+02  0.9701E+03  0.9683E+03
      5.624  0.1011E+03  0.1138E+03  0.9762E+03  0.9751E+03
      5.684  0.1230E+03  0.1041E+03  0.9836E+03  0.9814E+03
      5.745  0.9011E+02  0.1062E+03  0.9890E+03  0.9878E+03
      5.805  0.1099E+03  0.8663E+02  0.9956E+03  0.9930E+03
      5.865  0.6307E+02  0.7541E+02  0.9994E+03  0.9975E+03
      5.925  0.1111E+03  0.8160E+02  0.1006E+04  0.1002E+04
      5.985  0.8962E+02  0.9525E+02  0.1011E+04  0.1008E+04
      6.045  0.1166E+03  0.8811E+02  0.1019E+04  0.1013E+04
      6.105  0.1063E+03  0.1256E+03  0.1025E+04  0.1021E+04
      6.165  0.9425E+02  0.7492E+02  0.1031E+04  0.1025E+04
      6.225  0.9287E+02  0.9873E+02  0.1036E+04  0.1031E+04
      6.285  0.1288E+03  0.9016E+02  0.1044E+04  0.1037E+04
      6.346  0.9816E+02  0.9788E+02  0.1050E+04  0.1043E+04
      6.406  0.1221E+03  0.1061E+03  0.1057E+04  0.1049E+04
      6.466  0.1099E+03  0.9808E+02  0.1064E+04  0.1055E+04
      6.526  0.1199E+03  0.7573E+02  0.1071E+04  0.1060E+04
      6.586  0.1249E+03  0.9190E+02  0.1078E+04  0.1065E+04
      6.646  0.1232E+03  0.1436E+03  0.1086E+04  0.1074E+04
      6.706  0.1191E+03  0.1344E+03  0.1093E+04  0.1082E+04
      6.766  0.8781E+02  0.1055E+03  0.1098E+04  0.1088E+04
      6.826  0.9503E+02  0.1387E+03  0.1104E+04  0.1096E+04
      6.887  0.1002E+03  0.1079E+03  0.1110E+04  0.1103E+04
      6.947  0.1460E+03  0.1261E+03  0.1119E+04  0.1111E+04
      7.007  0.1017E+03  0.1288E+03  0.1125E+04  0.1118E+04
      7.067  0.1076E+03  0.1298E+03  0.1131E+04  0.1126E+04
      7.127  0.1053E+03  0.1270E+03  0.1138E+04  0.1134E+04
      7.187  0.1124E+03  0.1135E+03  0.1144E+04  0.1141E+04
      7.247  0.9166E+02  0.1050E+03  0.1150E+04  0.1147E+04
      7.307  0.1400E+03  0.1098E+03  0.1158E+04  0.1153E+04
      7.367  0.1398E+03  0.1382E+03  0.1167E+04  0.1162E+04
      7.427  0.9536E+02  0.1315E+03  0.1173E+04  0.1170E+04
      7.488  0.8876E+02  0.1001E+03  0.1178E+04  0.1176E+04
      7.548  0.1452E+03  0.1180E+03  0.1187E+04  0.1183E+04
      7.608  0.1302E+03  0.1403E+03  0.1194E+04  0.1191E+04
      7.668  0.1097E+03  0.1299E+03  0.1201E+04  0.1199E+04
      7.728  0.1344E+03  0.1279E+03  0.1209E+04  0.1207E+04
      7.788  0.1084E+03  0.1255E+03  0.1216E+04  0.1214E+04
      7.848  0.1364E+03  0.1384E+03  0.1224E+04  0.1223E+04
      7.908  0.1332E+03  0.1098E+03  0.1232E+04  0.1229E+04
      7.968  0.1546E+03  0.1567E+03  0.1241E+04  0.1239E+04
      8.029  0.1167E+03  0.1457E+03  0.1248E+04  0.1247E+04
      8.089  0.1381E+03  0.1195E+03  0.1256E+04  0.1254E+04
      8.149  0.1331E+03  0.1411E+03  0.1264E+04  0.1263E+04
      8.209  0.1082E+03  0.1164E+03  0.1271E+04  0.1270E+04
      8.269  0.1754E+02  0.3390E+02  0.1272E+04  0.1272E+04
      8.329  0.0000E+00  0.0000E+00  0.1272E+04  0.1272E+04
      8.389  0.0000E+00  0.0000E+00  0.1272E+04  0.1272E+04
      8.449  0.0000E+00  0.0000E+00  0.1272E+04  0.1272E+04
      8.509  0.0000E+00  0.0000E+00  0.1272E+04  0.1272E+04
      8.569  0.0000E+00  0.0000E+00  0.1272E+04  0.1272E+04
      8.630  0.0000E+00  0.0000E+00  0.1272E+04  0.1272E+04
      8.690  0.0000E+00  0.0000E+00  0.1272E+04  0.1272E+04
      8.750  0.0000E+00  0.0000E+00  0.1272E+04  0.1272E+04
      8.810  0.0000E+00  0.0000E+00  0.1272E+04  0.1272E+04
      8.870  0.0000E+00  0.0000E+00  0.1272E+04  0.1272E+04
      8.930  0.0000E+00  0.0000E+00  0.1272E+04  0.1272E+04
      8.990  0.0000E+00  0.0000E+00  0.1272E+04  0.1272E+04
      9.050  0.0000E+00  0.0000E+00  0.1272E+04  0.1272E+04
