 vasp.6.4.3 19Mar24 (build Oct 22 2024 11:23:12) complex                        
  
 executed on             LinuxIFC date 2025.06.10  00:38:03
 running   64 mpi-ranks, on    4 nodes
 distrk:  each k-point on   64 cores,    1 groups
 distr:  one band on NCORE=  16 cores,    4 groups


--------------------------------------------------------------------------------------------------------


 INCAR:
   SYSTEM = Si and Ge interface calculation
   ISTART = 0
   ICHARG = 2
   LWAVE = .FALSE.
   LREAL = AUTO
   ENCUT = 700
   ENAUG = 900
   ADDGRID = .TRUE.
   LMAXMIX = 6
   LASPH = .TRUE.
   LMIXTAU = .TRUE.
   NCORE = 16
   NELM = 100
   NBANDS = 634
   EDIFF = 1d-7
   AMIX = 0.6
   ISMEAR = 0
   SIGMA = 0.01
   NELECT = 1056
   ISPIN = 2
   NUPDOWN = 1
   LVTOT = .FALSE.
   LVHAR = .TRUE.

 POTCAR:    PAW_PBE Si 05Jan2001                  
 POTCAR:    PAW_PBE Sn 08Apr2002                  
 -----------------------------------------------------------------------------
|                                                                             |
|           W    W    AA    RRRRR   N    N  II  N    N   GGGG   !!!           |
|           W    W   A  A   R    R  NN   N  II  NN   N  G    G  !!!           |
|           W    W  A    A  R    R  N N  N  II  N N  N  G       !!!           |
|           W WW W  AAAAAA  RRRRR   N  N N  II  N  N N  G  GGG   !            |
|           WW  WW  A    A  R   R   N   NN  II  N   NN  G    G                |
|           W    W  A    A  R    R  N    N  II  N    N   GGGG   !!!           |
|                                                                             |
|     You use a magnetic or noncollinear calculation, but did not specify     |
|     the initial magnetic moment with the MAGMOM tag. Note that a            |
|     default of 3.788e-3 will be used for all atoms. This ferromagnetic      |
|     setup may break the symmetry of the crystal, in particular it may       |
|     rule out finding an antiferromagnetic solution. Thence, we              |
|     recommend setting the initial magnetic moment manually or verifying     |
|     carefully that this magnetic setup is desired.                          |
|                                                                             |
 -----------------------------------------------------------------------------

 POTCAR:    PAW_PBE Si 05Jan2001                  
   VRHFIN =Si: s2p2                                                                                 
   LEXCH  = PE                                                                                      
   EATOM  =   103.0669 eV,    7.5752 Ry                                                             
                                                                                                    
   TITEL  = PAW_PBE Si 05Jan2001                                                                    
   LULTRA =        F    use ultrasoft PP ?                                                          
   IUNSCR =        1    unscreen: 0-lin 1-nonlin 2-no                                               
   RPACOR =    1.500    partial core radius                                                         
   POMASS =   28.085; ZVAL   =    4.000    mass and valenz                                          
   RCORE  =    1.900    outmost cutoff radius                                                       
   RWIGS  =    2.480; RWIGS  =    1.312    wigner-seitz radius (au A)                               
   ENMAX  =  245.345; ENMIN  =  184.009 eV                                                          
   ICORE  =        2    local potential                                                             
   LCOR   =        T    correct aug charges                                                         
   LPAW   =        T    paw PP                                                                      
   EAUG   =  322.069                                                                                
   DEXC   =    0.000                                                                                
   RMAX   =    1.950    core radius for proj-oper                                                   
   RAUG   =    1.300    factor for augmentation sphere                                              
   RDEP   =    1.993    radius for radial grids                                                     
   RDEPT  =    1.837    core radius for aug-charge                                                  
                                                                                                    
   Atomic configuration                                                                             
    6 entries                                                                                       
     n  l   j            E        occ.                                                              
     1  0  0.50     -1785.8828   2.0000                                                             
     2  0  0.50      -139.4969   2.0000                                                             
     2  1  1.50       -95.5546   6.0000                                                             
     3  0  0.50       -10.8127   2.0000                                                             
     3  1  0.50        -4.0811   2.0000                                                             
     3  2  1.50        -4.0817   0.0000                                                             
   Description                                                                                      
     l       E           TYP  RCUT    TYP  RCUT                                                     
     0    -10.8127223     23  1.900                                                                 
     0     -7.6451159     23  1.900                                                                 
     1     -4.0811372     23  1.900                                                                 
     1      2.4879257     23  1.900                                                                 
     2     -4.0817478      7  1.900                                                                 
  local pseudopotential read in
  partial core-charges read in
  partial kinetic energy density read in
  atomic valenz-charges read in
  non local Contribution for L=           0  read in
    real space projection operators read in
  non local Contribution for L=           0  read in
    real space projection operators read in
  non local Contribution for L=           1  read in
    real space projection operators read in
  non local Contribution for L=           1  read in
    real space projection operators read in
    PAW grid and wavefunctions read in
 
   number of l-projection  operators is LMAX  =           4
   number of lm-projection operators is LMMAX =           8
 
 POTCAR:    PAW_PBE Sn 08Apr2002                  
   VRHFIN =Sn: s2p2                                                                                 
   LEXCH  = PE                                                                                      
   EATOM  =    94.0860 eV,    6.9151 Ry                                                             
                                                                                                    
   TITEL  = PAW_PBE Sn 08Apr2002                                                                    
   LULTRA =        F    use ultrasoft PP ?                                                          
   IUNSCR =        1    unscreen: 0-lin 1-nonlin 2-no                                               
   RPACOR =    2.000    partial core radius                                                         
   POMASS =  118.710; ZVAL   =    4.000    mass and valenz                                          
   RCORE  =    3.000    outmost cutoff radius                                                       
   RWIGS  =    2.960; RWIGS  =    1.566    wigner-seitz radius (au A)                               
   ENMAX  =  103.236; ENMIN  =   77.427 eV                                                          
   ICORE  =        3    local potential                                                             
   LCOR   =        T    correct aug charges                                                         
   LPAW   =        T    paw PP                                                                      
   EAUG   =  263.585                                                                                
   DEXC   =    0.000                                                                                
   RMAX   =    3.078    core radius for proj-oper                                                   
   RAUG   =    1.300    factor for augmentation sphere                                              
   RDEP   =    3.022    radius for radial grids                                                     
   RDEPT  =    2.655    core radius for aug-charge                                                  
                                                                                                    
   Atomic configuration                                                                             
   13 entries                                                                                       
     n  l   j            E        occ.                                                              
     1  0  0.50    -29007.2859   2.0000                                                             
     2  0  0.50     -4378.8056   2.0000                                                             
     2  1  1.50     -3930.4293   6.0000                                                             
     3  0  0.50      -845.0264   2.0000                                                             
     3  1  1.50      -698.5725   6.0000                                                             
     3  2  2.50      -473.2839  10.0000                                                             
     4  0  0.50      -133.9036   2.0000                                                             
     4  1  1.50       -89.6752   6.0000                                                             
     4  2  2.50       -25.8375  10.0000                                                             
     5  0  0.50       -10.5484   2.0000                                                             
     5  1  0.50        -3.6940   2.0000                                                             
     5  2  1.50        -1.3606   0.0000                                                             
     4  3  2.50        -4.0817   0.0000                                                             
   Description                                                                                      
     l       E           TYP  RCUT    TYP  RCUT                                                     
     0    -10.5483727     23  3.000                                                                 
     0     27.2116520     23  3.000                                                                 
     1     -3.6939829     23  3.000                                                                 
     1      1.9821976     23  3.000                                                                 
     2     -1.3605826     23  3.000                                                                 
     3     -2.7211652     23  3.000                                                                 
  local pseudopotential read in
  partial core-charges read in
  partial kinetic energy density read in
  atomic valenz-charges read in
  non local Contribution for L=           0  read in
    real space projection operators read in
  non local Contribution for L=           0  read in
    real space projection operators read in
  non local Contribution for L=           1  read in
    real space projection operators read in
  non local Contribution for L=           1  read in
    real space projection operators read in
  non local Contribution for L=           2  read in
    real space projection operators read in
    PAW grid and wavefunctions read in
 
   number of l-projection  operators is LMAX  =           5
   number of lm-projection operators is LMMAX =          13
 
 Optimization of the real space projectors (new method)

 maximal supplied QI-value         = 19.84
 optimisation between [QCUT,QGAM] = [ 13.49, 26.99] = [ 50.98,203.92] Ry 
 Optimized for a Real-space Cutoff    1.07 Angstroem

   l    n(q)    QCUT    max X(q) W(low)/X(q) W(high)/X(q)  e(spline) 
   0      9    13.493   159.560    0.22E-03    0.15E-03    0.72E-07
   0      9    13.493   115.863    0.21E-03    0.15E-03    0.71E-07
   1      8    13.493    88.339    0.15E-03    0.11E-03    0.13E-06
   1      8    13.493    48.592    0.15E-03    0.10E-03    0.13E-06
 Optimization of the real space projectors (new method)

 maximal supplied QI-value         = 12.47
 optimisation between [QCUT,QGAM] = [ 12.47, 27.06] = [ 43.56,205.12] Ry 
 Optimized for a Real-space Cutoff    1.58 Angstroem

   l    n(q)    QCUT    max X(q) W(low)/X(q) W(high)/X(q)  e(spline) 
   0     13    12.472    14.688    0.45E-04    0.45E-04    0.25E-05
   0     13    12.472     7.308    0.94E-04    0.11E-03    0.61E-05
   1     12    12.472    45.102    0.34E-03    0.14E-03    0.21E-05
   1     12    12.472    30.691    0.31E-03    0.13E-03    0.20E-05
   2     12    12.472     7.156    0.86E-04    0.11E-03    0.17E-05
 WARNING: PSMAXN for non-local potential too small
          PSMAXN should be >   13.5545592237991       NTYP=           2
  PAW_PBE Si 05Jan2001                  :
 energy of atom  1       EATOM= -103.0669
 kinetic energy error for atom=    0.0003 (will be added to EATOM!!)
  PAW_PBE Sn 08Apr2002                  :
 energy of atom  2       EATOM=  -94.0860
 kinetic energy error for atom=    0.0000 (will be added to EATOM!!)
 
 
 POSCAR: Si+Sn
  positions in direct lattice
  No initial velocities read in


 exchange-correlation table for PE
   RHO(1)=    0.500       N(1)  =     2000
   RHO(2)=  100.500       N(2)  =     4000
 


--------------------------------------------------------------------------------------------------------


 ion  position               nearest neighbor table
   1  0.996  0.997  0.000- 174 1.62 195 2.26 145 2.35  49 2.35 246 2.36
   2  0.881  0.920  0.182-  76 2.35 146 2.35  50 2.35 145 2.35
   3  0.765  0.843  0.364- 229 1.85  77 2.35  51 2.35 147 2.35 146 2.35 202 3.33
   4  0.073  0.382  0.000-  43 2.35 154 2.35 171 2.42 201 2.58 243 3.23 242 3.32 225 3.32 252 3.44

   5  0.957  0.305  0.182-  73 2.35  44 2.35 155 2.35 154 2.35
   6  0.842  0.228  0.364- 235 1.83  74 2.35  45 2.35 155 2.35 156 2.35
   7  0.227  0.151  0.000- 255 1.38 228 2.08 118 2.35  46 2.35
   8  0.111  0.074  0.182-  49 2.35  47 2.35 119 2.35 118 2.35
   9  0.996  0.997  0.364- 163 1.36  50 2.35  48 2.35 120 2.35 119 2.35
  10  0.150  0.766  0.000- 249 1.89 222 2.10  52 2.35 121 2.35 195 3.26
  11  0.034  0.690  0.182-  40 2.35 122 2.35 121 2.35  53 2.35
  12  0.919  0.613  0.364- 157 2.28  41 2.35 122 2.35 123 2.35  54 2.35 232 3.14
  13  0.304  0.536  0.000- 207 2.31  55 2.35 124 2.35 252 2.60 177 3.07 225 3.29
  14  0.188  0.459  0.182-  43 2.35 125 2.35  56 2.35 124 2.35 252 3.05
  15  0.073  0.382  0.364- 160 2.25  44 2.35  57 2.35 126 2.35 125 2.35 214 3.20
  16  0.457  0.305  0.000- 210 1.40 127 2.35  58 2.35 180 3.05 261 3.22 237 3.24
  17  0.342  0.228  0.182-  46 2.35 128 2.35  59 2.35 127 2.35 210 3.07
  18  0.227  0.151  0.364- 217 1.89  47 2.35  60 2.35 129 2.35 128 2.35 244 3.28
  19  0.611  0.074  0.000- 264 0.67 130 2.35  61 2.35 165 2.39 237 3.33
  20  0.496  0.997  0.182-  64 2.35 131 2.35  62 2.35 130 2.35
  21  0.381  0.920  0.364- 172 2.31  65 2.35  63 2.35 132 2.35 131 2.35 193 3.04 220 3.13
  22  0.381  0.920  0.000- 204 0.62 133 2.35  64 2.35 183 2.47 231 3.25
  23  0.265  0.843  0.182-  52 2.35 134 2.35  65 2.35 133 2.35 249 3.30
  24  0.150  0.766  0.364- 211 1.90  53 2.35  66 2.35 134 2.35 135 2.35
  25  0.534  0.690  0.000- 258 1.46 136 2.35  67 2.35 159 3.01 207 3.18 231 3.34
  26  0.419  0.613  0.182-  55 2.35 137 2.35  68 2.35 136 2.35 207 2.78
  27  0.304  0.536  0.364-  56 2.35 138 2.35  69 2.35 137 2.35 166 2.94 214 3.17
  28  0.688  0.459  0.000- 261 2.30 139 2.35  70 2.35 189 2.68 162 2.99 216 3.29
  29  0.573  0.382  0.182-  58 2.35 140 2.35 139 2.35  71 2.35 261 2.80
  30  0.457  0.305  0.364- 141 2.35  59 2.35 140 2.35  72 2.35 169 2.92 226 3.12 199 3.29
  31  0.842  0.228  0.000- 192 1.95 219 2.04 142 2.35  73 2.35 246 3.14
  32  0.727  0.151  0.182-  61 2.35  74 2.35 143 2.35 142 2.35 192 3.35
  33  0.611  0.074  0.364- 181 2.22  62 2.35 144 2.35  75 2.35 143 2.35 253 3.05 226 3.21
  34  0.765  0.843  0.000- 186 1.49 213 2.05 148 2.35  76 2.35 240 3.40
  35  0.650  0.766  0.182-  67 2.35 149 2.35  77 2.35 148 2.35 258 3.07
  36  0.534  0.690  0.364-  68 2.35  78 2.35 150 2.35 149 2.35 175 2.87 220 3.22 247 3.32
  37  0.919  0.613  0.000-  40 2.35 151 2.35 168 2.44 240 2.69 198 3.17 216 3.26 188 3.30
  38  0.804  0.536  0.182-  70 2.35  41 2.35 152 2.35 151 2.35 189 3.09
  39  0.688  0.459  0.364-  71 2.35  42 2.35 152 2.35 153 2.35 178 2.85 232 3.17
  40  0.015  0.593  0.091- 198 1.85  37 2.35  11 2.35  82 2.35  83 2.35 168 3.33
  41  0.900  0.516  0.273-  83 2.35  38 2.35  12 2.35  84 2.35 232 3.07
  42  0.784  0.440  0.456- 232 1.46  39 2.35  84 2.35 259 3.01 178 3.18 205 3.34
  43  0.169  0.363  0.091- 252 2.28  14 2.35   4 2.35  86 2.35  85 2.35 201 3.14
  44  0.054  0.286  0.273-  15 2.35   5 2.35  87 2.35  86 2.35 160 3.09
  45  0.938  0.209  0.456- 235 2.30   6 2.35  87 2.35 160 2.68 262 2.99 190 3.29
  46  0.323  0.132  0.091- 255 2.25  17 2.35   7 2.35  88 2.35  89 2.35 210 3.20
  47  0.207  0.055  0.273-  18 2.35   8 2.35  89 2.35  90 2.35
  48  0.092  0.978  0.456- 163 1.95 184 2.04   9 2.35  90 2.35 211 3.14
  49  0.092  0.978  0.091- 195 1.83   8 2.35   1 2.35  91 2.35  92 2.35
  50  0.977  0.901  0.273-   9 2.35   2 2.35  92 2.35  93 2.35 163 3.35
  51  0.861  0.824  0.456- 229 0.67   3 2.35  93 2.35 256 2.39 202 3.33
  52  0.246  0.747  0.091- 249 1.36  23 2.35  10 2.35  94 2.35  95 2.35
  53  0.131  0.670  0.273-  24 2.35  95 2.35  11 2.35  96 2.35
  54  0.015  0.593  0.456- 157 1.49 187 2.05  12 2.35  96 2.35 214 3.40
  55  0.400  0.516  0.091- 207 1.90  26 2.35  97 2.35  13 2.35  98 2.35
  56  0.284  0.440  0.273-  27 2.35  98 2.35  14 2.35  99 2.35
  57  0.169  0.363  0.456-  99 2.35  15 2.35 241 2.44 214 2.69 169 3.17 190 3.26 170 3.30
  58  0.554  0.286  0.091-  29 2.35 100 2.35 101 2.35  16 2.35 261 2.94 210 3.17
  59  0.438  0.209  0.273-  30 2.35 102 2.35  17 2.35 101 2.35 226 3.05
  60  0.323  0.132  0.456-  18 2.35 102 2.35 244 2.42 172 2.58 217 3.23 227 3.32 199 3.32 226 3.44

  61  0.707  0.055  0.091-  32 2.35 103 2.35 104 2.35  19 2.35 264 2.92 186 3.12 165 3.29
  62  0.592  0.978  0.273-  33 2.35 105 2.35 104 2.35  20 2.35 181 3.07
  63  0.477  0.901  0.456- 220 1.38 193 2.08  21 2.35 105 2.35
  64  0.477  0.901  0.091- 204 1.89  20 2.35 106 2.35  22 2.35 107 2.35 231 3.28
  65  0.361  0.824  0.273-  21 2.35 107 2.35  23 2.35 108 2.35
  66  0.246  0.747  0.456- 238 1.62 166 2.26 108 2.35  24 2.35 211 2.36
  67  0.631  0.670  0.091- 258 2.31  35 2.35 109 2.35  25 2.35 110 2.35 159 3.04 189 3.13
  68  0.515  0.593  0.273-  36 2.35 110 2.35  26 2.35 111 2.35 223 3.30
  69  0.400  0.516  0.456- 223 1.89 196 2.10 111 2.35  27 2.35 166 3.26
  70  0.784  0.440  0.091-  38 2.35 112 2.35 113 2.35  28 2.35 243 2.87 189 3.22 216 3.32
  71  0.669  0.363  0.273-  39 2.35 114 2.35 113 2.35  29 2.35 178 2.78
  72  0.554  0.286  0.456- 178 2.31 114 2.35  30 2.35 226 2.60 250 3.07 199 3.29
  73  0.938  0.209  0.091-   5 2.35  79 2.35  80 2.35  31 2.35 246 2.85 201 3.17
  74  0.823  0.132  0.273-   6 2.35  80 2.35  32 2.35  81 2.35 235 2.80
  75  0.707  0.055  0.456- 181 1.40  81 2.35  33 2.35 253 3.05 235 3.22 202 3.24
  76  0.861  0.824  0.091- 240 2.22   2 2.35 115 2.35  34 2.35 116 2.35 213 3.05 186 3.21
  77  0.746  0.747  0.273-   3 2.35 116 2.35  35 2.35 117 2.35
  78  0.631  0.670  0.456- 175 0.62 117 2.35  36 2.35 247 2.47 205 3.25
  79  0.034  0.190  0.000- 201 1.46  73 2.35 118 2.35 228 3.01 246 3.18 171 3.34
  80  0.919  0.113  0.182- 145 2.35  74 2.35 119 2.35  73 2.35 246 2.78
  81  0.804  0.036  0.364- 146 2.35  75 2.35 120 2.35  74 2.35 235 2.94 181 3.17
  82  0.111  0.574  0.000- 198 0.67  40 2.35 124 2.35 225 2.39 168 3.33
  83  0.996  0.497  0.182- 154 2.35  41 2.35  40 2.35 125 2.35
  84  0.881  0.420  0.364- 232 2.31 155 2.35  42 2.35 126 2.35  41 2.35 259 3.04 160 3.13
  85  0.265  0.343  0.000- 252 1.49 180 2.05 127 2.35  43 2.35 210 3.40
  86  0.150  0.266  0.182- 118 2.35  43 2.35 128 2.35  44 2.35 201 3.07
  87  0.034  0.190  0.364- 119 2.35 129 2.35  44 2.35  45 2.35 217 2.87 160 3.22 190 3.32
  88  0.419  0.113  0.000- 130 2.35  46 2.35 237 2.44 210 2.69 264 3.17 183 3.26 254 3.30
  89  0.304  0.036  0.182- 133 2.35  47 2.35 131 2.35  46 2.35 255 3.09
  90  0.188  0.959  0.364- 134 2.35 132 2.35  48 2.35  47 2.35 211 2.85 172 3.17
  91  0.188  0.959  0.000- 195 2.30 133 2.35  49 2.35 255 2.68 222 2.99 183 3.29
  92  0.073  0.882  0.182- 121 2.35  50 2.35 134 2.35  49 2.35 195 2.80
  93  0.957  0.805  0.364- 122 2.35  51 2.35  50 2.35 135 2.35 229 2.92 157 3.12 256 3.29
  94  0.342  0.728  0.000- 249 1.95 177 2.04 136 2.35  52 2.35 207 3.14
  95  0.227  0.651  0.182- 124 2.35  53 2.35 137 2.35  52 2.35 249 3.35
  96  0.111  0.574  0.364- 214 2.22 125 2.35 138 2.35  54 2.35  53 2.35 187 3.05 157 3.21
  97  0.496  0.497  0.000- 234 1.62 261 2.26  55 2.35 139 2.35 207 2.36
  98  0.381  0.420  0.182- 127 2.35  56 2.35 140 2.35  55 2.35
  99  0.265  0.343  0.364- 169 1.85 128 2.35  57 2.35 141 2.35  56 2.35 241 3.33
 100  0.650  0.266  0.000- 192 1.89 162 2.10  58 2.35 142 2.35 261 3.26
 101  0.534  0.190  0.182- 130 2.35 143 2.35  58 2.35  59 2.35
 102  0.419  0.113  0.364- 226 2.28 131 2.35  59 2.35 144 2.35  60 2.35 172 3.14
 103  0.804  0.036  0.000- 246 2.31  61 2.35 145 2.35 186 2.60 219 3.07 165 3.29
 104  0.688  0.959  0.182- 148 2.35  61 2.35  62 2.35 146 2.35 186 3.05
 105  0.573  0.882  0.364- 220 2.25 149 2.35  62 2.35 147 2.35  63 2.35 181 3.20
 106  0.573  0.882  0.000-  64 2.35 148 2.35 231 2.42 258 2.58 204 3.23 203 3.32 165 3.32 186 3.44

 107  0.457  0.805  0.182- 136 2.35  65 2.35  64 2.35 149 2.35
 108  0.342  0.728  0.364- 166 1.83 137 2.35  66 2.35 150 2.35  65 2.35
 109  0.727  0.651  0.000- 189 1.38 159 2.08  67 2.35 151 2.35
 110  0.611  0.574  0.182- 139 2.35  68 2.35 152 2.35  67 2.35
 111  0.496  0.497  0.364- 223 1.36 140 2.35  69 2.35 153 2.35  68 2.35
 112  0.881  0.420  0.000- 243 0.62  70 2.35 154 2.35 216 2.47 171 3.25
 113  0.765  0.343  0.182- 155 2.35 142 2.35  70 2.35  71 2.35 192 3.30
 114  0.650  0.266  0.364- 178 1.90 156 2.35  71 2.35 143 2.35  72 2.35
 115  0.957  0.805  0.000- 240 1.40 121 2.35  76 2.35 213 3.05 195 3.22 168 3.24
 116  0.842  0.728  0.182- 151 2.35  77 2.35 122 2.35  76 2.35 240 3.07
 117  0.727  0.651  0.364- 175 1.89 152 2.35 123 2.35  78 2.35  77 2.35 205 3.28
 118  0.131  0.170  0.091- 201 2.31  86 2.35   7 2.35  79 2.35   8 2.35 228 3.04 255 3.13
 119  0.015  0.093  0.273-  87 2.35  80 2.35   8 2.35   9 2.35 163 3.30
 120  0.900  0.016  0.456- 163 1.89 262 2.10   9 2.35  81 2.35 235 3.26
 121  0.054  0.786  0.091-  92 2.35 115 2.35  10 2.35  11 2.35 195 2.94 240 3.17
 122  0.938  0.709  0.273-  93 2.35 116 2.35  11 2.35  12 2.35 157 3.05
 123  0.823  0.632  0.456- 117 2.35  12 2.35 205 2.42 232 2.58 175 3.23 158 3.32 256 3.32 157 3.44

 124  0.207  0.555  0.091-  95 2.35  82 2.35  13 2.35  14 2.35 198 2.92 252 3.12 225 3.29
 125  0.092  0.478  0.273-  96 2.35  14 2.35  83 2.35  15 2.35 214 3.07
 126  0.977  0.401  0.456- 160 1.38 259 2.08  84 2.35  15 2.35
 127  0.361  0.324  0.091- 210 2.22  98 2.35  85 2.35  16 2.35  17 2.35 180 3.05 252 3.21
 128  0.246  0.247  0.273-  99 2.35  17 2.35  86 2.35  18 2.35
 129  0.131  0.170  0.456- 217 0.62  87 2.35  18 2.35 190 2.47 244 3.25
 130  0.515  0.093  0.091- 264 1.85 101 2.35  19 2.35  88 2.35  20 2.35 237 3.33
 131  0.400  0.016  0.273- 102 2.35  20 2.35  89 2.35  21 2.35 172 3.07
 132  0.284  0.940  0.456- 172 1.46  21 2.35  90 2.35 193 3.01 211 3.18 244 3.34
 133  0.284  0.940  0.091-  89 2.35  22 2.35  91 2.35  23 2.35 204 2.87 255 3.22 183 3.32
 134  0.169  0.863  0.273-  90 2.35  23 2.35  24 2.35  92 2.35 211 2.78
 135  0.054  0.786  0.456- 211 2.31  24 2.35  93 2.35 157 2.60 184 3.07 256 3.29
 136  0.438  0.709  0.091- 107 2.35  94 2.35  25 2.35  26 2.35 207 2.85 258 3.17
 137  0.323  0.632  0.273- 108 2.35  95 2.35  26 2.35  27 2.35 166 2.80
 138  0.207  0.555  0.456- 214 1.40  96 2.35  27 2.35 187 3.05 166 3.22 241 3.24
 139  0.592  0.478  0.091- 261 1.83 110 2.35  28 2.35  97 2.35  29 2.35
 140  0.477  0.401  0.273- 111 2.35  29 2.35  98 2.35  30 2.35 223 3.35
 141  0.361  0.324  0.456- 169 0.67  30 2.35  99 2.35 199 2.39 241 3.33
 142  0.746  0.247  0.091- 192 1.36  31 2.35 113 2.35 100 2.35  32 2.35
 143  0.631  0.170  0.273- 101 2.35 114 2.35  32 2.35  33 2.35
 144  0.515  0.093  0.456- 226 1.49 253 2.05  33 2.35 102 2.35 181 3.40
 145  0.900  0.016  0.091- 246 1.90   1 2.35  80 2.35 103 2.35   2 2.35
 146  0.784  0.940  0.273-  81 2.35   2 2.35 104 2.35   3 2.35
 147  0.669  0.863  0.456-   3 2.35 105 2.35 202 2.44 181 2.69 229 3.17 247 3.26 230 3.30
 148  0.669  0.863  0.091- 186 2.28 104 2.35  34 2.35 106 2.35  35 2.35 258 3.14
 149  0.554  0.786  0.273- 105 2.35  35 2.35 107 2.35  36 2.35 220 3.09
 150  0.438  0.709  0.456- 166 2.30 108 2.35  36 2.35 220 2.68 196 2.99 247 3.29
 151  0.823  0.632  0.091- 189 2.25 116 2.35  37 2.35  38 2.35 109 2.35 240 3.20
 152  0.707  0.555  0.273- 117 2.35  38 2.35  39 2.35 110 2.35
 153  0.592  0.478  0.456- 223 1.95 250 2.04 111 2.35  39 2.35 178 3.14
 154  0.977  0.401  0.091- 243 1.89  83 2.35 112 2.35   4 2.35   5 2.35 171 3.28
 155  0.861  0.324  0.273-  84 2.35 113 2.35   5 2.35   6 2.35
 156  0.746  0.247  0.456- 208 1.62 235 2.26 114 2.35   6 2.35 178 2.36
 157  0.995  0.667  0.456-  54 1.49  12 2.28 135 2.60 187 2.82 256 2.82 122 3.05  93 3.12  96 3.21
                           123 3.44
 158  0.828  0.667  0.673- 205 2.82 188 2.82 256 2.82 257 2.82 123 3.32
 159  0.662  0.667  0.891- 109 2.08 206 2.82 257 2.82 189 2.82 258 2.82  25 3.01  67 3.04
 160  0.995  0.333  0.456- 126 1.38  15 2.25  45 2.68 190 2.82 259 2.82  44 3.09  84 3.13  87 3.22

 161  0.828  0.333  0.673- 208 2.82 191 2.82 259 2.82 260 2.82
 162  0.662  0.333  0.891- 100 2.10 209 2.82 260 2.82 192 2.82 261 2.82  28 2.99
 163  0.995  0.000  0.456-   9 1.36 120 1.89  48 1.95 184 2.82 262 2.82 119 3.30  50 3.35
 164  0.828  0.000  0.673- 202 2.82 185 2.82 262 2.82 263 2.82
 165  0.662  0.000  0.891-  19 2.39 203 2.82 263 2.82 186 2.82 264 2.82 103 3.29  61 3.29 106 3.32

 166  0.328  0.667  0.456- 108 1.83  66 2.26 150 2.30 137 2.80 196 2.82 238 2.82  27 2.94 138 3.22
                            69 3.26
 167  0.162  0.667  0.673- 187 2.82 197 2.82 239 2.82 238 2.82
 168  0.995  0.667  0.891-  37 2.44 188 2.82 198 2.82 239 2.82 240 2.82 115 3.24  82 3.33  40 3.33

 169  0.328  0.333  0.456- 141 0.67  99 1.85 199 2.82 241 2.82  30 2.92  57 3.17
 170  0.162  0.333  0.673- 242 2.82 190 2.82 200 2.82 241 2.82  57 3.30
 171  0.995  0.333  0.891-   4 2.42 191 2.82 242 2.82 201 2.82 243 2.82 112 3.25 154 3.28  79 3.34

 172  0.328  0.000  0.456- 132 1.46  21 2.31  60 2.58 193 2.82 244 2.82 131 3.07 102 3.14  90 3.17

 173  0.162  0.000  0.673- 184 2.82 194 2.82 245 2.82 244 2.82
 174  0.995  0.000  0.891-   1 1.62 185 2.82 195 2.82 245 2.82 246 2.82
 175  0.662  0.667  0.456-  78 0.62 117 1.89 205 2.82 247 2.82  36 2.87 123 3.23
 176  0.495  0.667  0.673- 248 2.82 196 2.82 206 2.82 247 2.82
 177  0.328  0.667  0.891-  94 2.04 197 2.82 207 2.82 248 2.82 249 2.82  13 3.07
 178  0.662  0.333  0.456- 114 1.90  72 2.31 156 2.36  71 2.78 250 2.82 208 2.82  39 2.85 153 3.14
                            42 3.18
 179  0.495  0.333  0.673- 251 2.82 199 2.82 209 2.82 250 2.82
 180  0.328  0.333  0.891-  85 2.05 200 2.82 251 2.82 210 2.82 252 2.82  16 3.05 127 3.05
 181  0.662  0.000  0.456-  75 1.40  33 2.22 147 2.69 202 2.82 253 2.82  62 3.07  81 3.17 105 3.20
                           144 3.40
 182  0.495  0.000  0.673- 254 2.82 193 2.82 203 2.82 253 2.82
 183  0.328  0.000  0.891-  22 2.47 194 2.82 204 2.82 254 2.82 255 2.82  88 3.26  91 3.29 133 3.32

 184  0.078  0.917  0.564-  48 2.04 173 2.82 163 2.82 211 2.82 212 2.82 135 3.07
 185  0.912  0.917  0.782- 174 2.82 164 2.82 212 2.82 213 2.82
 186  0.745  0.917  0.000-  34 1.49 148 2.28 103 2.60 165 2.82 213 2.82 104 3.05  61 3.12  76 3.21
                           106 3.44
 187  0.078  0.583  0.564-  54 2.05 167 2.82 157 2.82 214 2.82 215 2.82 138 3.05  96 3.05
 188  0.912  0.583  0.782- 168 2.82 158 2.82 215 2.82 216 2.82  37 3.30
 189  0.745  0.583  0.000- 109 1.38 151 2.25  28 2.68 159 2.82 216 2.82  38 3.09  67 3.13  70 3.22

 190  0.078  0.250  0.564- 129 2.47 170 2.82 217 2.82 160 2.82 218 2.82  57 3.26  45 3.29  87 3.32

 191  0.912  0.250  0.782- 218 2.82 171 2.82 161 2.82 219 2.82
 192  0.745  0.250  0.000- 142 1.36 100 1.89  31 1.95 162 2.82 219 2.82 113 3.30  32 3.35
 193  0.412  0.917  0.564-  63 2.08 172 2.82 182 2.82 220 2.82 221 2.82 132 3.01  21 3.04
 194  0.245  0.917  0.782- 173 2.82 183 2.82 221 2.82 222 2.82
 195  0.078  0.917  0.000-  49 1.83   1 2.26  91 2.30  92 2.80 174 2.82 222 2.82 121 2.94 115 3.22
                            10 3.26
 196  0.412  0.583  0.564-  69 2.10 166 2.82 176 2.82 223 2.82 224 2.82 150 2.99
 197  0.245  0.583  0.782- 167 2.82 177 2.82 224 2.82 225 2.82
 198  0.078  0.583  0.000-  82 0.67  40 1.85 168 2.82 225 2.82 124 2.92  37 3.17
 199  0.412  0.250  0.564- 141 2.39 169 2.82 226 2.82 227 2.82 179 2.82  72 3.29  30 3.29  60 3.32

 200  0.245  0.250  0.782- 227 2.82 170 2.82 228 2.82 180 2.82
 201  0.078  0.250  0.000-  79 1.46 118 2.31   4 2.58 171 2.82 228 2.82  86 3.07  43 3.14  73 3.17

 202  0.745  0.917  0.564- 147 2.44 164 2.82 181 2.82 230 2.82 229 2.82  75 3.24  51 3.33   3 3.33

 203  0.578  0.917  0.782- 165 2.82 182 2.82 230 2.82 231 2.82 106 3.32
 204  0.412  0.917  0.000-  22 0.62  64 1.89 183 2.82 231 2.82 133 2.87 106 3.23
 205  0.745  0.583  0.564- 123 2.42 158 2.82 175 2.82 233 2.82 232 2.82  78 3.25 117 3.28  42 3.34

 206  0.578  0.583  0.782- 159 2.82 176 2.82 233 2.82 234 2.82
 207  0.412  0.583  0.000-  55 1.90  13 2.31  97 2.36  26 2.78 177 2.82 234 2.82 136 2.85  94 3.14
                            25 3.18
 208  0.745  0.250  0.564- 156 1.62 161 2.82 236 2.82 235 2.82 178 2.82
 209  0.578  0.250  0.782- 162 2.82 236 2.82 237 2.82 179 2.82
 210  0.412  0.250  0.000-  16 1.40 127 2.22  88 2.69 180 2.82 237 2.82  17 3.07  58 3.17  46 3.20
                            85 3.40
 211  0.162  0.833  0.456-  24 1.90 135 2.31  66 2.36 134 2.78 238 2.82 184 2.82  90 2.85  48 3.14
                           132 3.18
 212  0.995  0.833  0.673- 256 2.82 239 2.82 185 2.82 184 2.82
 213  0.828  0.833  0.891-  34 2.05 257 2.82 240 2.82 185 2.82 186 2.82 115 3.05  76 3.05
 214  0.162  0.500  0.456- 138 1.40  96 2.22  57 2.69 241 2.82 187 2.82 125 3.07  27 3.17  15 3.20
                            54 3.40
 215  0.995  0.500  0.673- 259 2.82 242 2.82 188 2.82 187 2.82
 216  0.828  0.500  0.891- 112 2.47 260 2.82 243 2.82 188 2.82 189 2.82  37 3.26  28 3.29  70 3.32

 217  0.162  0.167  0.456- 129 0.62  18 1.89 244 2.82 190 2.82  87 2.87  60 3.23
 218  0.995  0.167  0.673- 191 2.82 262 2.82 245 2.82 190 2.82
 219  0.828  0.167  0.891-  31 2.04 191 2.82 263 2.82 246 2.82 192 2.82 103 3.07
 220  0.495  0.833  0.456-  63 1.38 105 2.25 150 2.68 247 2.82 193 2.82 149 3.09  21 3.13  36 3.22

 221  0.328  0.833  0.673- 238 2.82 248 2.82 194 2.82 193 2.82
 222  0.162  0.833  0.891-  10 2.10 239 2.82 249 2.82 194 2.82 195 2.82  91 2.99
 223  0.495  0.500  0.456- 111 1.36  69 1.89 153 1.95 250 2.82 196 2.82  68 3.30 140 3.35
 224  0.328  0.500  0.673- 241 2.82 251 2.82 197 2.82 196 2.82
 225  0.162  0.500  0.891-  82 2.39 242 2.82 197 2.82 252 2.82 198 2.82  13 3.29 124 3.29   4 3.32

 226  0.495  0.167  0.456- 144 1.49 102 2.28  72 2.60 199 2.82 253 2.82  59 3.05  30 3.12  33 3.21
                            60 3.44
 227  0.328  0.167  0.673- 200 2.82 244 2.82 199 2.82 254 2.82  60 3.32
 228  0.162  0.167  0.891-   7 2.08 245 2.82 200 2.82 201 2.82 255 2.82  79 3.01 118 3.04
 229  0.828  0.833  0.456-  51 0.67   3 1.85 256 2.82 202 2.82  93 2.92 147 3.17
 230  0.662  0.833  0.673- 257 2.82 247 2.82 203 2.82 202 2.82 147 3.30
 231  0.495  0.833  0.891- 106 2.42 258 2.82 248 2.82 203 2.82 204 2.82  22 3.25  64 3.28  25 3.34

 232  0.828  0.500  0.456-  42 1.46  84 2.31 123 2.58 259 2.82 205 2.82  41 3.07  12 3.14  39 3.17

 233  0.662  0.500  0.673- 260 2.82 250 2.82 206 2.82 205 2.82
 234  0.495  0.500  0.891-  97 1.62 261 2.82 251 2.82 206 2.82 207 2.82
 235  0.828  0.167  0.456-   6 1.83 156 2.26  45 2.30  74 2.80 262 2.82 208 2.82  81 2.94  75 3.22
                           120 3.26
 236  0.662  0.167  0.673- 263 2.82 209 2.82 208 2.82 253 2.82
 237  0.495  0.167  0.891-  88 2.44 264 2.82 254 2.82 209 2.82 210 2.82  16 3.24  19 3.33 130 3.33

 238  0.245  0.750  0.564-  66 1.62 211 2.82 221 2.82 167 2.82 166 2.82
 239  0.078  0.750  0.782- 222 2.82 212 2.82 167 2.82 168 2.82
 240  0.912  0.750  0.000- 115 1.40  76 2.22  37 2.69 213 2.82 168 2.82 116 3.07 121 3.17 151 3.20
                            34 3.40
 241  0.245  0.417  0.564-  57 2.44 214 2.82 224 2.82 170 2.82 169 2.82 138 3.24 141 3.33  99 3.33

 242  0.078  0.417  0.782- 225 2.82 215 2.82 170 2.82 171 2.82   4 3.32
 243  0.912  0.417  0.000- 112 0.62 154 1.89 216 2.82 171 2.82  70 2.87   4 3.23
 244  0.245  0.083  0.564-  60 2.42 217 2.82 227 2.82 173 2.82 172 2.82 129 3.25  18 3.28 132 3.34

 245  0.078  0.083  0.782- 173 2.82 228 2.82 174 2.82 218 2.82
 246  0.912  0.083  0.000- 145 1.90 103 2.31   1 2.36  80 2.78 219 2.82 174 2.82  73 2.85  31 3.14
                            79 3.18
 247  0.578  0.750  0.564-  78 2.47 220 2.82 230 2.82 175 2.82 176 2.82 147 3.26 150 3.29  36 3.32

 248  0.412  0.750  0.782- 176 2.82 231 2.82 221 2.82 177 2.82
 249  0.245  0.750  0.000-  52 1.36  10 1.89  94 1.95 222 2.82 177 2.82  23 3.30  95 3.35
 250  0.578  0.417  0.564- 153 2.04 223 2.82 233 2.82 178 2.82 179 2.82  72 3.07
 251  0.412  0.417  0.782- 179 2.82 234 2.82 224 2.82 180 2.82
 252  0.245  0.417  0.000-  85 1.49  43 2.28  13 2.60 225 2.82 180 2.82  14 3.05 124 3.12 127 3.21
                             4 3.44
 253  0.578  0.083  0.564- 144 2.05 181 2.82 226 2.82 236 2.82 182 2.82  75 3.05  33 3.05
 254  0.412  0.083  0.782- 182 2.82 237 2.82 227 2.82 183 2.82  88 3.30
 255  0.245  0.083  0.000-   7 1.38  46 2.25  91 2.68 183 2.82 228 2.82  89 3.09 118 3.13 133 3.22

 256  0.912  0.750  0.564-  51 2.39 229 2.82 212 2.82 158 2.82 157 2.82 135 3.29  93 3.29 123 3.32

 257  0.745  0.750  0.782- 230 2.82 213 2.82 159 2.82 158 2.82
 258  0.578  0.750  0.000-  25 1.46  67 2.31 106 2.58 231 2.82 159 2.82  35 3.07 148 3.14 136 3.17

 259  0.912  0.417  0.564- 126 2.08 232 2.82 215 2.82 161 2.82 160 2.82  42 3.01  84 3.04
 260  0.745  0.417  0.782- 233 2.82 216 2.82 162 2.82 161 2.82
 261  0.578  0.417  0.000- 139 1.83  97 2.26  28 2.30  29 2.80 234 2.82 162 2.82  58 2.94  16 3.22
                           100 3.26
 262  0.912  0.083  0.564- 120 2.10 235 2.82 218 2.82 164 2.82 163 2.82  45 2.99
 263  0.745  0.083  0.782- 236 2.82 165 2.82 164 2.82 219 2.82
 264  0.578  0.083  0.000-  19 0.67 130 1.85 237 2.82 165 2.82  61 2.92  88 3.17
 
 -----------------------------------------------------------------------------
|                                                                             |
|           W    W    AA    RRRRR   N    N  II  N    N   GGGG   !!!           |
|           W    W   A  A   R    R  NN   N  II  NN   N  G    G  !!!           |
|           W    W  A    A  R    R  N N  N  II  N N  N  G       !!!           |
|           W WW W  AAAAAA  RRRRR   N  N N  II  N  N N  G  GGG   !            |
|           WW  WW  A    A  R   R   N   NN  II  N   NN  G    G                |
|           W    W  A    A  R    R  N    N  II  N    N   GGGG   !!!           |
|                                                                             |
|     The distance between some ions is very small. Please check the          |
|     nearest-neighbor list in the OUTCAR file.                               |
|     I HOPE YOU KNOW WHAT YOU ARE DOING!                                     |
|                                                                             |
 -----------------------------------------------------------------------------

  LATTYP: Found a simple tetragonal cell.
 ALAT       =    19.5817508700
 C/A-ratio  =     0.7609253398
  
  Lattice vectors:
  
 A1 = (  19.5817508700,   0.0000000000,   0.0000000000)
 A2 = (   0.0000000000,  19.5817489620,   0.0000000000)
 A3 = (   0.0000000000,   0.0000000000,  14.9002504350)


Analysis of symmetry for initial positions (statically):
=====================================================================
 Subroutine PRICEL returns following result:
 
  LATTYP: Found a simple tetragonal cell.
 ALAT       =    13.8463893854
 C/A-ratio  =     1.0761108922
  
  Lattice vectors:
  
 A1 = (   9.7908771778,  -9.7908744810,   0.0000000000)
 A2 = (   9.7908771778,   9.7908744810,   0.0000000000)
 A3 = (   0.0000000000,   0.0000000000,  14.9002504350)
 
   2 primitive cells build up your supercell.
 

 Routine SETGRP: Setting up the symmetry group for a 
 simple tetragonal supercell.


 Subroutine GETGRP returns: Found  2 space group operations
 (whereof  1 operations were pure point group operations)
 out of a pool of 16 trial point group operations.


The static configuration has the point symmetry C_1 .
 The point group associated with its full space group is C_1h.


Analysis of symmetry for dynamics (positions and initial velocities):
=====================================================================
 Subroutine PRICEL returns following result:
 
  LATTYP: Found a simple tetragonal cell.
 ALAT       =    13.8463893854
 C/A-ratio  =     1.0761108922
  
  Lattice vectors:
  
 A1 = (   9.7908771778,  -9.7908744810,   0.0000000000)
 A2 = (   9.7908771778,   9.7908744810,   0.0000000000)
 A3 = (   0.0000000000,   0.0000000000,  14.9002504350)
 
   2 primitive cells build up your supercell.
 

 Routine SETGRP: Setting up the symmetry group for a 
 simple tetragonal supercell.


 Subroutine GETGRP returns: Found  2 space group operations
 (whereof  1 operations were pure point group operations)
 out of a pool of 16 trial point group operations.


The dynamic configuration has the point symmetry C_1 .
 The point group associated with its full space group is C_1h.


Analysis of structural, dynamic, and magnetic symmetry:
=====================================================================
 Subroutine PRICEL returns following result:
 
  LATTYP: Found a simple tetragonal cell.
 ALAT       =    13.8463893854
 C/A-ratio  =     1.0761108922
  
  Lattice vectors:
  
 A1 = (   9.7908771778,  -9.7908744810,   0.0000000000)
 A2 = (   9.7908771778,   9.7908744810,   0.0000000000)
 A3 = (   0.0000000000,   0.0000000000,  14.9002504350)
 
   2 primitive cells build up your supercell.
 

 Routine SETGRP: Setting up the symmetry group for a 
 simple tetragonal supercell.


 Subroutine GETGRP returns: Found  2 space group operations
 (whereof  1 operations were pure point group operations)
 out of a pool of 16 trial point group operations.


The overall configuration has the point symmetry C_1 .
 The point group associated with its full space group is C_1h.


 Subroutine INISYM returns: Found  2 space group operations
 (whereof  1 operations are pure point group operations),
 and found     2 'primitive' translations


----------------------------------------------------------------------------------------

                                     Primitive cell                                     

  volume of cell :    2856.7132

  direct lattice vectors                    reciprocal lattice vectors
     9.790877178 -9.790874481  0.000000000     0.051067947 -0.051067961  0.000000000
     9.790877178  9.790874481  0.000000000     0.051067947  0.051067961  0.000000000
     0.000000000  0.000000000 14.900250435     0.000000000  0.000000000  0.067112966

  length of vectors
    13.846389385 13.846389385 14.900250435     0.072220994  0.072220994  0.067112966

  position of ions in fractional coordinates (direct lattice)
     0.998630824  0.993154826  0.000000000
     0.960169337  0.800847075  0.182245255
     0.921707852  0.608539326  0.364490598
     0.690938661  0.454693565  0.000000000
     0.652476976  0.262385556  0.182245255
     0.614015489  0.070077805  0.364490598
     0.075554062  0.377770414  0.000000000
     0.037092547  0.185462649  0.182245255
     0.998630824  0.993154706  0.364490598
     0.383246350  0.916232038  0.000000000
     0.344784816  0.723924240  0.182245255
     0.306323126  0.531616286  0.364490598
     0.767861693  0.839308841  0.000000000
     0.729400155  0.647001025  0.182245255
     0.690938750  0.454693356  0.364490598
     0.152477154  0.762385734  0.000000000
     0.114015608  0.570077924  0.182245255
     0.075554093  0.377770235  0.364490598
     0.537092487  0.685462693  0.000000000
     0.498630824  0.493154826  0.182245255
     0.460169486  0.300847104  0.364490598
     0.460169396  0.300847492  0.000000000
     0.421707881  0.108539713  0.182245255
     0.383246425  0.916231873  0.364490598
     0.844784839  0.223924321  0.000000000
     0.806323163  0.031616367  0.182245255
     0.767861618  0.839308558  0.364490598
     0.229400289  0.147001159  0.000000000
     0.190938743  0.954693349  0.182245255
     0.152476975  0.762385437  0.364490598
     0.614015578  0.070077954  0.000000000
     0.575554108  0.877770190  0.182245255
     0.537092562  0.685462380  0.364490598
     0.921707912  0.608539624  0.000000000
     0.883246380  0.416231948  0.182245255
     0.844784835  0.223924139  0.364490598
     0.306323245  0.531616523  0.000000000
     0.267861793  0.339308741  0.182245255
     0.229400289  0.147000921  0.364490598
     0.421707978  0.608539690  0.091122650
     0.383246411  0.416231859  0.273367941
     0.344784924  0.223923990  0.455613315
     0.806323230  0.531616748  0.091122650
     0.767861748  0.339308822  0.273367941
     0.729400051  0.147000801  0.455613315
     0.190938669  0.454693483  0.091122650
     0.152477145  0.262385681  0.273367941
     0.114015593  0.070077909  0.455613315
     0.114015593  0.070078149  0.091122650
     0.075553899  0.877770191  0.273367941
     0.037092354  0.685462382  0.455613315
     0.498630987  0.993154989  0.091122650
     0.460169456  0.800847314  0.273367941
     0.421707915  0.608539509  0.455613315
     0.883246317  0.916231893  0.091122650
     0.844784776  0.723924080  0.273367941
     0.806323290  0.531616330  0.455613315
     0.267861706  0.839308960  0.091122650
     0.229400110  0.647000980  0.273367941
     0.190938729  0.454693245  0.455613315
     0.652477127  0.762385731  0.091122650
     0.614015594  0.570077910  0.273367941
     0.575553899  0.377770071  0.455613315
     0.575553869  0.377770339  0.091122650
     0.537092354  0.185462500  0.273367941
     0.498630822  0.993154676  0.455613315
     0.960169456  0.300847374  0.091122650
     0.921707931  0.108539599  0.273367941
     0.883246234  0.916231620  0.455613315
     0.344784775  0.223924437  0.091122650
     0.306323320  0.031616598  0.273367941
     0.267861774  0.839308788  0.455613315
     0.729400169  0.147001159  0.091122650
     0.690938639  0.954693335  0.273367941
     0.652477105  0.762385515  0.455613315
     0.037092592  0.685462858  0.091122650
     0.998631046  0.493155048  0.273367941
     0.960169456  0.300847164  0.455613315
     0.328368248  0.661701622  0.455613315
     0.161701591  0.495034965  0.673368037
     0.995035053  0.328368397  0.891122699
     0.661701592  0.328368278  0.455613315
     0.495035054  0.161701680  0.673368037
     0.328368412  0.995035038  0.891122699
     0.995034935  0.995034935  0.455613315
     0.828368278  0.828368278  0.673368037
     0.661701621  0.661701621  0.891122699
     0.661701726  0.995035070  0.455613315
     0.495035023  0.828368397  0.673368037
     0.328368248  0.661701622  0.891122699
     0.995035085  0.661701711  0.455613315
     0.828368427  0.495035053  0.673368037
     0.661701592  0.328368278  0.891122699
     0.328368397  0.328368397  0.455613315
     0.161701710  0.161701710  0.673368037
     0.995034935  0.995034935  0.891122699
     0.995035068  0.328368412  0.455613315
     0.828368203  0.161701547  0.673368037
     0.661701606  0.995034950  0.891122699
     0.328368427  0.995035053  0.455613315
     0.161701562  0.828368188  0.673368037
     0.995034965  0.661701591  0.891122699
     0.661701680  0.661701680  0.455613315
     0.495034875  0.495034875  0.673368037
     0.328368397  0.328368397  0.891122699
     0.161701673  0.995035165  0.564490676
     0.995034890  0.828368382  0.782245338
     0.828368173  0.661701665  0.000000238
     0.495034986  0.661701852  0.564490676
     0.328368203  0.495035069  0.782245338
     0.161701740  0.328368426  0.000000238
     0.828368419  0.328368419  0.564490676
     0.661701636  0.161701636  0.782245338
     0.495035023  0.995035143  0.000000238
     0.495034950  0.328368442  0.564490676
     0.328368307  0.161701799  0.782245338
     0.161701621  0.995035113  0.000000238
     0.828368234  0.995034920  0.564490676
     0.661701576  0.828368262  0.782245338
     0.495034934  0.661701800  0.000000238
     0.161701517  0.661701637  0.564490676
     0.995034859  0.495034979  0.782245338
     0.828368367  0.328368367  0.000000238
     0.828368293  0.661701785  0.564490676
     0.661701696  0.495035188  0.782245338
     0.495034979  0.328368471  0.000000238
     0.161701710  0.328368396  0.564490676
     0.995035076  0.161701762  0.782245338
     0.828368234  0.995034920  0.000000238
     0.495034993  0.995035113  0.564490676
     0.328368359  0.828368479  0.782245338
     0.161701517  0.661701637  0.000000238

  ion indices of the primitive-cell ions
   primitive index   ion index
                 1           1
                 2           2
                 3           3
                 4           4
                 5           5
                 6           6
                 7           7
                 8           8
                 9           9
                10          10
                11          11
                12          12
                13         103
                14         104
                15          15
                16         115
                17         116
                18          18
                19          19
                20          83
                21          21
                22          22
                23          23
                24          24
                25          79
                26          80
                27          81
                28          91
                29          92
                30          93
                31          31
                32          32
                33          33
                34          34
                35          86
                36          87
                37          37
                38          89
                39          90
                40          40
                41         131
                42         132
                43         148
                44          44
                45          45
                46          46
                47          47
                48          48
                49          49
                50          50
                51          51
                52         142
                53          53
                54          54
                55         145
                56         146
                57         147
                58         121
                59         122
                60          60
                61          61
                62          62
                63         126
                64         154
                65         155
                66         156
                67         118
                68         119
                69         120
                70         133
                71         134
                72         135
                73          73
                74          74
                75          75
                76          76
                77          77
                78         129
                79         157
                80         158
                81         228
                82         160
                83         221
                84         222
                85         163
                86         164
                87         165
                88         235
                89         167
                90         168
                91         229
                92         230
                93         171
                94         172
                95         173
                96         174
                97         217
                98         218
                99         219
               100         211
               101         212
               102         213
               103         181
               104         215
               105         183
               106         184
               107         185
               108         186
               109         187
               110         188
               111         255
               112         190
               113         191
               114         249
               115         193
               116         194
               117         195
               118         262
               119         263
               120         198
               121         256
               122         257
               123         201
               124         202
               125         203
               126         204
               127         244
               128         245
               129         246
               130         238
               131         239
               132         240

----------------------------------------------------------------------------------------

 
 
 KPOINTS: Automatic KPOINTS generated             

Automatic generation of k-mesh.
 Grid dimensions read from file:
 generate k-points for:    2    2    2

 Generating k-lattice:

  Cartesian coordinates                     Fractional coordinates (reciprocal lattice)
     0.025533978  0.000000000  0.000000000     0.500000000  0.000000000  0.000000000
     0.000000000  0.025533981  0.000000000     0.000000000  0.500000000  0.000000000
     0.000000000  0.000000000  0.033556483     0.000000000  0.000000000  0.500000000

  Length of vectors
     0.025533978  0.025533981  0.033556483

  Shift w.r.t. Gamma in fractional coordinates (k-lattice)
     0.000000000  0.000000000  0.000000000

 
 Subroutine IBZKPT returns following result:
 ===========================================
 
 Found      8 irreducible k-points:
 
 Following reciprocal coordinates:
            Coordinates               Weight
  0.000000  0.000000  0.000000      1.000000
  0.500000  0.000000  0.000000      1.000000
  0.000000  0.500000  0.000000      1.000000
  0.500000  0.500000  0.000000      1.000000
  0.000000  0.000000  0.500000      1.000000
  0.500000  0.000000  0.500000      1.000000
  0.000000  0.500000  0.500000      1.000000
  0.500000  0.500000  0.500000      1.000000
 
 Following cartesian coordinates:
            Coordinates               Weight
  0.000000  0.000000  0.000000      1.000000
  0.025534  0.000000  0.000000      1.000000
  0.000000  0.025534  0.000000      1.000000
  0.025534  0.025534  0.000000      1.000000
  0.000000  0.000000  0.033556      1.000000
  0.025534  0.000000  0.033556      1.000000
  0.000000  0.025534  0.033556      1.000000
  0.025534  0.025534  0.033556      1.000000
 
 -----------------------------------------------------------------------------
|                                                                             |
|           W    W    AA    RRRRR   N    N  II  N    N   GGGG   !!!           |
|           W    W   A  A   R    R  NN   N  II  NN   N  G    G  !!!           |
|           W    W  A    A  R    R  N N  N  II  N N  N  G       !!!           |
|           W WW W  AAAAAA  RRRRR   N  N N  II  N  N N  G  GGG   !            |
|           WW  WW  A    A  R   R   N   NN  II  N   NN  G    G                |
|           W    W  A    A  R    R  N    N  II  N    N   GGGG   !!!           |
|                                                                             |
|     The number of bands has been changed from the values supplied in        |
|     the INCAR file. This is a result of running the parallel version.       |
|     The orbitals not found in the WAVECAR file will be initialized with     |
|     random numbers, which is usually adequate. For correlated               |
|     calculations, however, you should redo the groundstate calculation.     |
|     I found NBANDS = 634. Now, NBANDS = 636.                                |
|                                                                             |
 -----------------------------------------------------------------------------



--------------------------------------------------------------------------------------------------------




 Dimension of arrays:
   k-points           NKPTS =      8   k-points in BZ     NKDIM =      8   number of bands    NBANDS=    636
   number of dos      NEDOS =    301   number of ions     NIONS =    264
   non local maximal  LDIM  =      5   non local SUM 2l+1 LMDIM =     13
   total plane-waves  NPLWV = ******
   max r-space proj   IRMAX =   4585   max aug-charges    IRDMAX= 212168
   dimension x,y,z NGX =   128 NGY =  128 NGZ =   96
   dimension x,y,z NGXF=   256 NGYF=  256 NGZF=  192
   support grid    NGXF=   512 NGYF=  512 NGZF=  384
   ions per type =             156 108
   NGX,Y,Z   is equivalent  to a cutoff of  10.87, 10.87, 10.71 a.u.
   NGXF,Y,Z  is equivalent  to a cutoff of  21.73, 21.73, 21.42 a.u.

 SYSTEM =  Si and Ge interface calculation         
 POSCAR =  Si+Sn                                   

 Startparameter for this run:
   NWRITE =      2    write-flag & timer
   PREC   = normal    normal or accurate (medium, high low for compatibility)
   ISTART =      0    job   : 0-new  1-cont  2-samecut
   ICHARG =      2    charge: 1-file 2-atom 10-const
   ISPIN  =      2    spin polarized calculation?
   LNONCOLLINEAR =      F non collinear calculations
   LSORBIT =      F    spin-orbit coupling
   INIWAV =      1    electr: 0-lowe 1-rand  2-diag
   LASPH  =      T    aspherical Exc in radial PAW
 Electronic Relaxation 1
   ENCUT  =  700.0 eV  51.45 Ry    7.17 a.u.  42.24 42.24 32.14*2*pi/ulx,y,z
   ENINI  =  700.0     initial cutoff
   ENAUG  =  900.0 eV  augmentation charge cutoff
   NELM   =    100;   NELMIN=  2; NELMDL= -5     # of ELM steps 
   EDIFF  = 0.1E-06   stopping-criterion for ELM
   LREAL  =      T    real-space projection
   NLSPLINE    = F    spline interpolate recip. space projectors
   LCOMPAT=      F    compatible to vasp.4.4
   GGA_COMPAT  = T    GGA compatible to vasp.4.4-vasp.4.6
   LMAXPAW     = -100 max onsite density
   LMAXMIX     =    6 max onsite mixed and CHGCAR
   VOSKOWN=      0    Vosko Wilk Nusair interpolation
   ROPT   =   -0.00050  -0.00050
 Ionic relaxation
   EDIFFG = 0.1E-05   stopping-criterion for IOM
   NSW    =      0    number of steps for IOM
   NBLOCK =      1;   KBLOCK =      1    inner block; outer block 
   IBRION =     -1    ionic relax: 0-MD 1-quasi-New 2-CG
   NFREE  =      0    steps in history (QN), initial steepest desc. (CG)
   ISIF   =      2    stress and relaxation
   IWAVPR =     10    prediction:  0-non 1-charg 2-wave 3-comb
   ISYM   =      2    0-nonsym 1-usesym 2-fastsym
   LCORR  =      T    Harris-Foulkes like correction to forces

   POTIM  = 0.5000    time-step for ionic-motion
   TEIN   =    0.0    initial temperature
   TEBEG  =    0.0;   TEEND  =   0.0 temperature during run
   SMASS  =  -3.00    Nose mass-parameter (am)
   estimated Nose-frequenzy (Omega)   =  0.10E-29 period in steps = 0.13E+47 mass=  -0.876E-26a.u.
   SCALEE = 1.0000    scale energy and forces
   NPACO  =    256;   APACO  = 10.0  distance and # of slots for P.C.
   PSTRESS=    0.0 pullay stress

  Mass of Ions in am
   POMASS =  28.09118.71
  Ionic Valenz
   ZVAL   =   4.00  4.00
  Atomic Wigner-Seitz radii
   RWIGS  =  -1.00 -1.00
  virtual crystal weights 
   VCA    =   1.00  1.00
   NELECT =    1056.0000    total number of electrons
   NUPDOWN=       1.0000    fix difference up-down

 DOS related values:
   EMIN   =  10.00;   EMAX   =-10.00  energy-range for DOS
   EFERMI =   0.00;   METHOD = LEGACY      
   ISMEAR =     0;   SIGMA  =   0.01  broadening in eV -4-tet -1-fermi 0-gaus

 Electronic relaxation 2 (details)
   IALGO  =     38    algorithm
   LDIAG  =      T    sub-space diagonalisation (order eigenvalues)
   LSUBROT=      F    optimize rotation matrix (better conditioning)
   TURBO    =      0    0=normal 1=particle mesh
   IRESTART =      0    0=no restart 2=restart with 2 vectors
   NREBOOT  =      0    no. of reboots
   NMIN     =      0    reboot dimension
   EREF     =   0.00    reference energy to select bands
   IMIX   =      4    mixing-type and parameters
     AMIX     =   0.60;   BMIX     =  1.00
     AMIX_MAG =   2.40;   BMIX_MAG =  1.00
     AMIN     =   0.10
     WC   =   100.;   INIMIX=   1;  MIXPRE=   1;  MAXMIX= -45

 Intra band minimization:
   WEIMIN = 0.0000     energy-eigenvalue tresh-hold
   EBREAK =  0.39E-10  absolut break condition
   DEPER  =   0.30     relativ break condition  

   TIME   =   0.40     timestep for ELM

  volume/ion in A,a.u.               =      21.64       146.05
  Fermi-wavevector in a.u.,A,eV,Ry     =   0.932532  1.762231 11.831854  0.869617
  Thomas-Fermi vector in A             =   2.059140
 
 Write flags
   LWAVE        =      F    write WAVECAR
   LDOWNSAMPLE  =      F    k-point downsampling of WAVECAR
   LCHARG       =      T    write CHGCAR
   LVTOT        =      F    write LOCPOT, total local potential
   LVHAR        =      T    write LOCPOT, Hartree potential only
   WRT_POTENTIAL=  hartree ionic  ! write potential to hdf5 file
   LELF         =      F    write electronic localiz. function (ELF)
   LORBIT       =      0    0 simple, 1 ext, 2 COOP (PROOUT), +10 PAW based schemes


 Dipole corrections
   LMONO      =      F    monopole corrections only (constant potential shift)
   LDIPOL     =      F    correct potential (dipole corrections)
   IDIPOL     =      0    1-x, 2-y, 3-z, 4-all directions 
   EPSILON    =  1.0000000 bulk dielectric constant
   LVACPOTAV  =      F  vacuum potentials using an averaging scheme for the charge density
   VACPOTFLAT =  0.1000000 required flatness to determine vacuum potential
 Exchange correlation treatment:
   GGA     = PE    functional components
   XC_C    = 1    coefficients multiplying the functional components
   LIBXC   =     F    Libxc                    
   VOSKOWN =     0    Vosko Wilk Nusair interpolation
   LHFCALC =     F    Hartree Fock is set to
   LHFONE  =     F    Hartree Fock one center treatment
   AEXX    =    0.0000 exact exchange contribution

 Parameters of functionals:
   PE:
     No parameter
 
 Van der Waals corrections
   IVDW    =     0    specifies the selected vdW correction

 Linear response parameters
   LEPSILON=     F    determine dielectric tensor
   LRPA    =     F    only Hartree local field effects (RPA)
   LNABLA  =     F    use nabla operator in PAW spheres
   LVEL    =     F    velocity operator in full k-point grid
   CSHIFT  =0.1000    complex shift for real part using Kramers Kronig
   OMEGAMAX=  -1.0    maximum frequency
   DEG_THRESHOLD= 0.2000000E-02 threshold for treating states as degnerate
   RTIME   =   -0.100 relaxation time in fs
  (WPLASMAI=    0.000 imaginary part of plasma frequency in eV, 0.658/RTIME)
   DFIELD  = 0.0000000 0.0000000 0.0000000 field for delta impulse in time
 
  Optional k-point grid parameters
   LKPOINTS_OPT  =     F    use optional k-point grid
   KPOINTS_OPT_MODE=     1    mode for optional k-point grid
 
 Orbital magnetization related:
   ORBITALMAG=     F  switch on orbital magnetization
   LCHIMAG   =     F  perturbation theory with respect to B field
   DQ        =  0.001000  dq finite difference perturbation B field
   LLRAUG    =     F  two centre corrections for induced B field
   LBONE     =     F  B-component reconstruction in AE one-centre
   LVGVCALC  =     T  calculate vGv susceptibility
   LVGVAPPL  =     F  apply vGv susceptibility instead of pGv for G=0

 Random number generation:
   RANDOM_GENERATOR = DEFAULT
   PCG_SEED         = not used


--------------------------------------------------------------------------------------------------------


 Static calculation
 charge density and potential will be updated during run
 spin polarized calculation
 Variant of blocked Davidson
 Davidson routine will perform the subspace rotation
 perform sub-space diagonalisation
    after iterative eigenvector-optimisation
 modified Broyden-mixing scheme, WC =      100.0
 initial mixing is a Kerker type mixing with AMIX =  0.6000 and BMIX =      1.0000
 Hartree-type preconditioning will be used
 using additional bands          108
 real space projection scheme for non local part
 use partial core corrections
 calculate Harris-corrections to forces 
   (improved forces if not selfconsistent)
 use gradient corrections 
 use of overlap-Matrix (Vanderbilt PP)
 Gauss-broadening in eV      SIGMA  =   0.01


--------------------------------------------------------------------------------------------------------


  energy-cutoff  :      700.00
  volume of cell :     5713.43
      direct lattice vectors                 reciprocal lattice vectors
    19.581750870  0.000000000  0.000000000     0.051067956  0.000000000  0.000000000
     0.000000000 19.581748962  0.000000000     0.000000000  0.051067961  0.000000000
     0.000000000  0.000000000 14.900250435     0.000000000  0.000000000  0.067112966

  length of vectors
    19.581750870 19.581748962 14.900250435     0.051067956  0.051067961  0.067112966


 
 k-points in units of 2pi/SCALE and weight: Automatic KPOINTS generated             
   0.00000000  0.00000000  0.00000000       0.125
   0.02553398  0.00000000  0.00000000       0.125
   0.00000000  0.02553398  0.00000000       0.125
   0.02553398  0.02553398  0.00000000       0.125
   0.00000000  0.00000000  0.03355648       0.125
   0.02553398  0.00000000  0.03355648       0.125
   0.00000000  0.02553398  0.03355648       0.125
   0.02553398  0.02553398  0.03355648       0.125
 
 k-points in reciprocal lattice and weights: Automatic KPOINTS generated             
   0.00000000  0.00000000  0.00000000       0.125
   0.50000000  0.00000000  0.00000000       0.125
   0.00000000  0.50000000  0.00000000       0.125
   0.50000000  0.50000000  0.00000000       0.125
   0.00000000  0.00000000  0.50000000       0.125
   0.50000000  0.00000000  0.50000000       0.125
   0.00000000  0.50000000  0.50000000       0.125
   0.50000000  0.50000000  0.50000000       0.125
 
 position of ions in fractional coordinates (direct lattice) 
   0.99589300  0.99726200  0.00000000
   0.88050836  0.92033887  0.18224525
   0.76512373  0.84341574  0.36449060
   0.07281613  0.38187745  0.00000000
   0.95743144  0.30495429  0.18224525
   0.84204680  0.22803116  0.36449060
   0.22666228  0.15110818  0.00000000
   0.11127762  0.07418505  0.18224525
   0.99589294  0.99726194  0.36449060
   0.14973922  0.76649284  0.00000000
   0.03435453  0.68956971  0.18224525
   0.91896987  0.61264658  0.36449060
   0.30358541  0.53572357  0.00000000
   0.18820073  0.45880044  0.18224525
   0.07281607  0.38187730  0.36449060
   0.45743155  0.30495435  0.00000000
   0.34204686  0.22803120  0.18224525
   0.22666220  0.15110807  0.36449060
   0.61127770  0.07418510  0.00000000
   0.49589300  0.99726194  0.18224525
   0.38050836  0.92033881  0.36449060
   0.38050851  0.92033905  0.00000000
   0.26512384  0.84341592  0.18224525
   0.14973918  0.76649272  0.36449060
   0.53435463  0.68956971  0.00000000
   0.41896993  0.61264658  0.18224525
   0.30358526  0.53572345  0.36449060
   0.68820071  0.45880049  0.00000000
   0.57281607  0.38187736  0.18224525
   0.45743138  0.30495423  0.36449060
   0.84204692  0.22803119  0.00000000
   0.72666228  0.15110804  0.18224525
   0.61127758  0.07418491  0.36449060
   0.76512390  0.84341586  0.00000000
   0.64973927  0.76649272  0.18224525
   0.53435457  0.68956959  0.36449060
   0.91897005  0.61264664  0.00000000
   0.80358541  0.53572351  0.18224525
   0.68820071  0.45880038  0.36449060
   0.01512384  0.59341586  0.09112265
   0.89973921  0.51649272  0.27336794
   0.78435451  0.43956962  0.45561332
   0.16896996  0.36264667  0.09112265
   0.05358529  0.28572354  0.27336794
   0.93820059  0.20880038  0.45561332
   0.32281613  0.13187741  0.09112265
   0.20743145  0.05495427  0.27336794
   0.09204677  0.97803116  0.45561332
   0.09204689  0.97803128  0.09112265
   0.97666222  0.90110815  0.27336794
   0.86127752  0.82418501  0.45561332
   0.24589306  0.74726206  0.09112265
   0.13050841  0.67033893  0.27336794
   0.01512372  0.59341580  0.45561332
   0.39973927  0.51649284  0.09112265
   0.28435460  0.43956968  0.27336794
   0.16896993  0.36264655  0.45561332
   0.55358541  0.28572354  0.09112265
   0.43820071  0.20880039  0.27336794
   0.32281604  0.13187726  0.45561332
   0.70743155  0.05495430  0.09112265
   0.59204686  0.97803116  0.27336794
   0.47666219  0.90110803  0.45561332
   0.47666240  0.90110820  0.09112265
   0.36127770  0.82418507  0.27336794
   0.24589300  0.74726194  0.45561332
   0.63050854  0.67033899  0.09112265
   0.51512384  0.59341580  0.27336794
   0.39973915  0.51649267  0.45561332
   0.78435469  0.43956971  0.09112265
   0.66896999  0.36264655  0.27336794
   0.55358529  0.28572342  0.45561332
   0.93820083  0.20880049  0.09112265
   0.82281613  0.13187735  0.27336794
   0.70743144  0.05495421  0.45561332
   0.86127788  0.82418513  0.09112265
   0.74589318  0.74726200  0.27336794
   0.63050842  0.67033881  0.45561332
   0.03435459  0.18956974  0.00000000
   0.91896993  0.11264660  0.18224525
   0.80358523  0.03572347  0.36449060
   0.11127766  0.57418507  0.00000000
   0.99589300  0.49726200  0.18224525
   0.88050830  0.42033884  0.36449060
   0.26512384  0.34341592  0.00000000
   0.14973919  0.26649278  0.18224525
   0.03435449  0.18956965  0.36449060
   0.41896999  0.11264660  0.00000000
   0.30358532  0.03572347  0.18224525
   0.18820064  0.95880032  0.36449060
   0.18820076  0.95880044  0.00000000
   0.07281606  0.88187730  0.18224525
   0.95743138  0.80495423  0.36449060
   0.34204692  0.72803128  0.00000000
   0.22666223  0.65110815  0.18224525
   0.11127757  0.57418501  0.36449060
   0.49589309  0.49726200  0.00000000
   0.38050842  0.42033887  0.18224525
   0.26512373  0.34341574  0.36449060
   0.64973927  0.26649278  0.00000000
   0.53435463  0.18956965  0.18224525
   0.41896993  0.11264652  0.36449060
   0.80358541  0.03572357  0.00000000
   0.68820071  0.95880044  0.18224525
   0.57281607  0.88187730  0.36449060
   0.57281613  0.88187736  0.00000000
   0.45743144  0.80495429  0.18224525
   0.34204680  0.72803110  0.36449060
   0.72666234  0.65110815  0.00000000
   0.61127764  0.57418501  0.18224525
   0.49589294  0.49726185  0.36449060
   0.88050848  0.42033899  0.00000000
   0.76512384  0.34341586  0.18224525
   0.64973915  0.26649272  0.36449060
   0.95743161  0.80495429  0.00000000
   0.84204692  0.72803116  0.18224525
   0.72666228  0.65110803  0.36449060
   0.13050844  0.17033896  0.09112265
   0.01512377  0.09341583  0.27336794
   0.89973909  0.01649269  0.45561332
   0.05358534  0.78572363  0.09112265
   0.93820071  0.70880044  0.27336794
   0.82281601  0.63187730  0.45561332
   0.20743152  0.55495441  0.09112265
   0.09204687  0.47803125  0.27336794
   0.97666216  0.40110809  0.45561332
   0.36127770  0.32418513  0.09112265
   0.24589303  0.24726200  0.27336794
   0.13050833  0.17033885  0.45561332
   0.51512384  0.09341585  0.09112265
   0.39973921  0.01649272  0.27336794
   0.28435451  0.93956953  0.45561332
   0.28435466  0.93956983  0.09112265
   0.16896999  0.86264664  0.27336794
   0.05358529  0.78572351  0.45561332
   0.43820077  0.70880061  0.09112265
   0.32281607  0.63187742  0.27336794
   0.20743141  0.55495429  0.45561332
   0.59204698  0.47803128  0.09112265
   0.47666228  0.40110815  0.27336794
   0.36127761  0.32418501  0.45561332
   0.74589312  0.24726200  0.09112265
   0.63050842  0.17033887  0.27336794
   0.51512379  0.09341572  0.45561332
   0.89973927  0.01649279  0.09112265
   0.78435457  0.93956965  0.27336794
   0.66896993  0.86264652  0.45561332
   0.66897011  0.86264676  0.09112265
   0.55358541  0.78572363  0.27336794
   0.43820071  0.70880049  0.45561332
   0.82281625  0.63187742  0.09112265
   0.70743155  0.55495429  0.27336794
   0.59204680  0.47803113  0.45561332
   0.97666228  0.40110824  0.09112265
   0.86127758  0.32418507  0.27336794
   0.74589288  0.24726193  0.45561332
   0.99503511  0.66666669  0.45561332
   0.82836843  0.66666669  0.67336804
   0.66170174  0.66666669  0.89112270
   0.99503511  0.33333334  0.45561332
   0.82836843  0.33333334  0.67336804
   0.66170174  0.33333334  0.89112270
   0.99503511  0.00000000  0.45561332
   0.82836843  0.00000000  0.67336804
   0.66170174  0.00000000  0.89112270
   0.32836846  0.66666669  0.45561332
   0.16170174  0.66666669  0.67336804
   0.99503511  0.66666669  0.89112270
   0.32836846  0.33333334  0.45561332
   0.16170174  0.33333334  0.67336804
   0.99503511  0.33333334  0.89112270
   0.32836846  0.00000000  0.45561332
   0.16170174  0.00000000  0.67336804
   0.99503511  0.00000000  0.89112270
   0.66170180  0.66666669  0.45561332
   0.49503511  0.66666669  0.67336804
   0.32836846  0.66666669  0.89112270
   0.66170180  0.33333334  0.45561332
   0.49503511  0.33333334  0.67336804
   0.32836846  0.33333334  0.89112270
   0.66170180  0.00000000  0.45561332
   0.49503511  0.00000000  0.67336804
   0.32836846  0.00000000  0.89112270
   0.07836843  0.91666675  0.56449068
   0.91170180  0.91666675  0.78224534
   0.74503505  0.91666675  0.00000024
   0.07836843  0.58333343  0.56449068
   0.91170180  0.58333343  0.78224534
   0.74503505  0.58333343  0.00000024
   0.07836843  0.25000000  0.56449068
   0.91170180  0.25000000  0.78224534
   0.74503505  0.25000000  0.00000024
   0.41170177  0.91666675  0.56449068
   0.24503510  0.91666675  0.78224534
   0.07836838  0.91666675  0.00000024
   0.41170177  0.58333343  0.56449068
   0.24503510  0.58333343  0.78224534
   0.07836838  0.58333343  0.00000024
   0.41170177  0.25000000  0.56449068
   0.24503510  0.25000000  0.78224534
   0.07836838  0.25000000  0.00000024
   0.74503517  0.91666675  0.56449068
   0.57836855  0.91666675  0.78224534
   0.41170180  0.91666675  0.00000024
   0.74503517  0.58333343  0.56449068
   0.57836855  0.58333343  0.78224534
   0.41170180  0.58333343  0.00000024
   0.74503517  0.25000000  0.56449068
   0.57836855  0.25000000  0.78224534
   0.41170180  0.25000000  0.00000024
   0.16170177  0.83333331  0.45561332
   0.99503505  0.83333331  0.67336804
   0.82836843  0.83333331  0.89112270
   0.16170177  0.50000000  0.45561332
   0.99503505  0.50000000  0.67336804
   0.82836843  0.50000000  0.89112270
   0.16170177  0.16666667  0.45561332
   0.99503505  0.16666667  0.67336804
   0.82836843  0.16666667  0.89112270
   0.49503511  0.83333331  0.45561332
   0.32836843  0.83333331  0.67336804
   0.16170175  0.83333331  0.89112270
   0.49503511  0.50000000  0.45561332
   0.32836843  0.50000000  0.67336804
   0.16170175  0.50000000  0.89112270
   0.49503511  0.16666667  0.45561332
   0.32836843  0.16666667  0.67336804
   0.16170175  0.16666667  0.89112270
   0.82836855  0.83333331  0.45561332
   0.66170186  0.83333331  0.67336804
   0.49503520  0.83333331  0.89112270
   0.82836855  0.50000000  0.45561332
   0.66170186  0.50000000  0.67336804
   0.49503520  0.50000000  0.89112270
   0.82836855  0.16666667  0.45561332
   0.66170186  0.16666667  0.67336804
   0.49503520  0.16666667  0.89112270
   0.24503510  0.75000006  0.56449068
   0.07836843  0.75000006  0.78224534
   0.91170174  0.75000006  0.00000024
   0.24503510  0.41666672  0.56449068
   0.07836843  0.41666672  0.78224534
   0.91170174  0.41666672  0.00000024
   0.24503510  0.08333334  0.56449068
   0.07836843  0.08333334  0.78224534
   0.91170174  0.08333334  0.00000024
   0.57836848  0.75000006  0.56449068
   0.41170186  0.75000006  0.78224534
   0.24503513  0.75000006  0.00000024
   0.57836848  0.41666672  0.56449068
   0.41170186  0.41666672  0.78224534
   0.24503513  0.41666672  0.00000024
   0.57836848  0.08333334  0.56449068
   0.41170186  0.08333334  0.78224534
   0.24503513  0.08333334  0.00000024
   0.91170174  0.75000006  0.56449068
   0.74503505  0.75000006  0.78224534
   0.57836837  0.75000006  0.00000024
   0.91170174  0.41666672  0.56449068
   0.74503505  0.41666672  0.78224534
   0.57836837  0.41666672  0.00000024
   0.91170174  0.08333334  0.56449068
   0.74503505  0.08333334  0.78224534
   0.57836837  0.08333334  0.00000024
 
 position of ions in cartesian coordinates  (Angst):
  19.50132866 19.52813415  0.00000000
  17.24189540 18.02184469  2.71549994
  14.98246217 16.51555523  5.43100119
   1.42586724  7.47782840  0.00000000
  18.74818385  5.97153835  2.71549994
  16.48875060  4.46524889  5.43100119
   4.43844426  2.95896237  0.00000000
   2.17901059  1.45267305  2.71549994
  19.50132748 19.52813298  5.43100119
   2.93215612 15.00927045  0.00000000
   0.67272193 13.50298099  2.71549994
  17.99503905 11.99669153  5.43100119
   5.94473387 10.49040440  0.00000000
   3.68529975  8.98411494  2.71549994
   1.42586606  7.47782548  5.43100119
   8.95731075  5.97153953  0.00000000
   6.69787634  4.46524977  2.71549994
   4.43844281  2.95896031  5.43100119
  11.96988761  1.45267406  0.00000000
   9.71045322 19.52813298  2.71549994
   7.45101997 18.02184352  5.43100119
   7.45102289 18.02184820  0.00000000
   5.19158906 16.51555874  2.71549994
   2.93215524 15.00926810  5.43100119
  10.46359918 13.50298099  0.00000000
   8.20416477 11.99669153  2.71549994
   5.94473095 10.49040207  5.43100119
  13.47617489  8.98411612  0.00000000
  11.21674166  7.47782666  2.71549994
   8.95730724  5.97153720  5.43100119
  16.48875293  4.46524948  0.00000000
  14.22931969  2.95895973  2.71549994
  11.96988528  1.45267026  5.43100119
  14.98246567 16.51555756  0.00000000
  12.72303242 15.00926810  2.71549994
  10.46359803 13.50297864  5.43100119
  17.99504254 11.99669269  0.00000000
  15.73560930 10.49040323  2.71549994
  13.47617489  8.98411377  5.43100119
   0.29615121 11.62012032  1.35775031
  17.61846898 10.11383086  4.07325078
  15.35903457  8.60754199  6.78875250
   3.30872764  7.10125603  1.35775031
   1.04929390  5.59496657  4.07325078
  18.37161028  4.08867653  6.78875250
   6.32130509  2.58239028  1.35775031
   4.06187098  1.07610068  4.07325078
   1.80243686 19.15156061  6.78875250
   1.80243921 19.15156296  1.35775031
  19.12475626 17.64527350  4.07325078
  16.86532185 16.13898404  6.78875250
   4.81501666 14.63269809  1.35775031
   2.55558313 13.12640863  4.07325078
   0.29614882 11.62011917  6.78875250
   7.82759470 10.11383321  1.35775031
   5.56816088  8.60754316  4.07325078
   3.30872705  7.10125370  6.78875250
  10.84017158  5.59496657  1.35775031
   8.58073717  4.08867682  4.07325078
   6.32130335  2.58238736  6.78875250
  13.85274847  1.07610135  1.35775031
  11.59331406 19.15156061  4.07325078
   9.33388023 17.64527117  6.78875250
   9.33388431 17.64527466  1.35775031
   7.07444990 16.13898520  4.07325078
   4.81501551 14.63269574  6.78875250
  12.34646119 13.12640978  1.35775031
  10.08702678 11.62011917  4.07325078
   7.82759237 10.11382971  6.78875250
  15.35903807  8.60754375  1.35775031
  13.09960366  7.10125370  4.07325078
  10.84016925  5.59496424  6.78875250
  18.37161494  4.08867888  1.35775031
  16.11218053  2.58238912  4.07325078
  13.85274614  1.07609945  6.78875250
  16.86532884 16.13898637  1.35775031
  14.60589443 14.63269691  4.07325078
  12.34645886 13.12640628  6.78875250
   0.67272294  3.71210708  0.00000000
  17.99504021  2.20581748  2.71549994
  15.73560580  0.69952802  5.43100119
   2.17901145 11.24354796  0.00000000
  19.50132866  9.73725967  2.71549994
  17.24189425  8.23096962  5.43100119
   5.19158906  6.72468426  0.00000000
   2.93215553  5.21839480  2.71549994
   0.67272112  3.71210534  5.43100119
   8.20416595  2.20581748  0.00000000
   5.94473212  0.69952810  2.71549994
   3.68529801 18.77498709  5.43100119
   3.68530034 18.77498942  0.00000000
   1.42586593 17.26869996  2.71549994
  18.74818268 15.76241168  5.43100119
   6.69787749 14.25612572  0.00000000
   4.43844338 12.74983626  2.71549994
   2.17900971 11.24354680  5.43100119
   9.71045497  9.73725967  0.00000000
   7.45102114  8.23097021  2.71549994
   5.19158673  6.72468075  5.43100119
  12.72303242  5.21839480  0.00000000
  10.46359918  3.71210534  2.71549994
   8.20416477  2.20581588  5.43100119
  15.73560930  0.69953006  0.00000000
  13.47617489 18.77498942  2.71549994
  11.21674166 17.26869996  5.43100119
  11.21674281 17.26870114  0.00000000
   8.95730842 15.76241283  2.71549994
   6.69787516 14.25612222  5.43100119
  14.22932087 12.74983626  0.00000000
  11.96988646 11.24354680  2.71549994
   9.71045205  9.73725675  5.43100119
  17.24189773  8.23097254  0.00000000
  14.98246450  6.72468308  2.71549994
  12.72303009  5.21839362  5.43100119
  18.74818734 15.76241283  0.00000000
  16.48875293 14.25612337  2.71549994
  14.22931969 12.74983393  5.43100119
   2.55558372  3.33553473  1.35775031
   0.29614986  1.82924541  4.07325078
  17.61846665  0.32295577  6.78875250
   1.04929484 15.38584282  1.35775031
  18.37161261 13.87955218  4.07325078
  16.11217820 12.37326272  6.78875250
   4.06187245 10.86697794  1.35775031
   1.80243892  9.36068789  4.07325078
  19.12475508  7.85439785  6.78875250
   7.07444990  6.34811189  1.35775031
   4.81501607  4.84182243  4.07325078
   2.55558166  3.33553268  6.78875250
  10.08702678  1.82924570  1.35775031
   7.82759354  0.32295638  4.07325078
   5.56815913 18.39841473  6.78875250
   5.56816205 18.39842056  1.35775031
   3.30872823 16.89212993  4.07325078
   1.04929382 15.38584047  6.78875250
   8.58073835 13.87955569  1.35775031
   6.32130394 12.37326505  4.07325078
   4.06187011 10.86697559  6.78875250
  11.59331639  9.36068848  1.35775031
   9.33388198  7.85439902  4.07325078
   7.07444815  6.34810956  6.78875250
  14.60589327  4.84182243  1.35775031
  12.34645886  3.33553297  4.07325078
  10.08702563  1.82924322  6.78875250
  17.61847014  0.32295763  1.35775031
  15.35903574 18.39841706  4.07325078
  13.09960249 16.89212760  6.78875250
  13.09960599 16.89213228  1.35775031
  10.84017158 15.38584282  4.07325078
   8.58073717 13.87955336  6.78875250
  16.11218288 12.37326505  1.35775031
  13.85274847 10.86697559  4.07325078
  11.59331288  9.36068556  6.78875250
  19.12475741  7.85440076  1.35775031
  16.86532300  6.34811072  4.07325078
  14.60588859  4.84182098  6.78875250
  19.48452967 13.05449971  6.78875250
  16.22090413 13.05449971 10.03335239
  12.95727860 13.05449971 13.27795138
[...]
      2.55558     13.12641      4.07325         0.218758     -0.021977     -0.381340
      0.29615     11.62012      6.78875        13.060478    -68.454356     -8.213539
      7.82759     10.11383      1.35775        -2.366963    -13.184476     14.458810
      5.56816      8.60754      4.07325        -0.197908     -0.039925     -0.534907
      3.30873      7.10125      6.78875        -1.657764     -1.578252     -1.378868
     10.84017      5.59497      1.35775         0.250790     -0.223936      0.672933
      8.58074      4.08868      4.07325         0.073445      0.254283     -0.638472
      6.32130      2.58239      6.78875         1.923909      1.905165     -1.643654
     13.85275      1.07610      1.35775        -1.145709      0.757513     -0.194513
     11.59331     19.15156      4.07325        -0.474977      0.125798     -0.727443
      9.33388     17.64527      6.78875       -19.407385     89.295735     -7.069335
      9.33388     17.64527      1.35775        14.159032     -3.192577     15.369612
      7.07445     16.13899      4.07325        -0.151748      0.033317     -0.379270
      4.81502     14.63270      6.78875        -0.691207     -0.595168    -48.491516
     12.34646     13.12641      1.35775         1.727028     -2.671692      3.508076
     10.08703     11.62012      4.07325         0.323428     -0.070801     -0.412977
      7.82759     10.11383      6.78875       -19.027516     -2.716601     -6.082967
     15.35904      8.60754      1.35775         1.142771     -0.666573     -0.291184
     13.09960      7.10125      4.07325        -0.077106      0.123803     -1.318830
     10.84017      5.59496      6.78875        -3.678154     -1.438670      0.298455
     18.37161      4.08868      1.35775        -0.219316      0.343820      0.781561
     16.11218      2.58239      4.07325         0.074290     -0.127662     -1.257911
     13.85275      1.07610      6.78875        57.468125     69.469944     -0.410249
     16.86533     16.13899      1.35775        -2.572166      3.615828      4.611350
     14.60589     14.63270      4.07325         0.030577     -0.016453     -0.423564
     12.34646     13.12641      6.78875      -591.222687     69.728295      0.733810
      0.67272      3.71211      0.00000       -45.525982    -63.079697      0.408186
     17.99504      2.20582      2.71550        -0.077106      0.123803      1.318830
     15.73561      0.69953      5.43100         0.250790     -0.223936     -0.672933
      2.17901     11.24355      0.00000       482.646169   -133.489576     -0.250431
     19.50133      9.73726      2.71550         0.030577     -0.016453      0.423564
     17.24189      8.23097      5.43100         1.727028     -2.671692     -3.508076
      5.19159      6.72468      0.00000        13.060478    -68.454356      8.213539
      2.93216      5.21839      2.71550         0.447427     -0.129746      0.744812
      0.67272      3.71211      5.43100         1.142771     -0.666573      0.291184
      8.20417      2.20582      0.00000        -1.657764     -1.578252      1.378868
      5.94473      0.69953      2.71550        -0.071112     -0.259166      0.607487
      3.68530     18.77499      5.43100        -0.219316      0.343820     -0.781561
      3.68530     18.77499      0.00000         4.025978      1.645387     -0.296176
      1.42587     17.26870      2.71550         0.074290     -0.127662      1.257911
     18.74818     15.76241      5.43100        -1.145709      0.757513      0.194513
      6.69788     14.25613      0.00000        16.009189      3.778546      8.253828
      4.43844     12.74984      2.71550        -0.319516      0.047339      0.350681
      2.17901     11.24355      5.43100        -2.572166      3.615828     -4.611350
      9.71045      9.73726      0.00000        -0.691207     -0.595168     48.491516
      7.45102      8.23097      2.71550         0.218758     -0.021977      0.381340
      5.19159      6.72468      5.43100       -16.047336      2.583766    -17.651137
     12.72303      5.21839      0.00000       -19.027516     -2.716601      6.082967
     10.46360      3.71211      2.71550        -0.197908     -0.039925      0.534907
      8.20416      2.20582      5.43100        -3.521414     -2.259246     -3.111536
     15.73561      0.69953      0.00000        -3.678154     -1.438670     -0.298455
     13.47617     18.77499      2.71550         0.073445      0.254283      0.638472
     11.21674     17.26870      5.43100         3.962159      2.207344     -3.487015
     11.21674     17.26870      0.00000         1.923909      1.905165      1.643654
      8.95731     15.76241      2.71550         0.147506      0.045388      0.496046
      6.69788     14.25612      5.43100         3.587152     15.869831    -18.736857
     14.22932     12.74984      0.00000       -19.407385     89.295735      7.069335
     11.96989     11.24355      2.71550        -0.151748      0.033317      0.379270
      9.71045      9.73726      5.43100         1.322101     -3.761408    -98.019309
     17.24190      8.23097      0.00000      -591.222687     69.728295     -0.733810
     14.98246      6.72468      2.71550         0.323428     -0.070801      0.412977
     12.72303      5.21839      5.43100        -2.366963    -13.184476    -14.458810
     18.74819     15.76241      0.00000        57.468125     69.469944      0.410249
     16.48875     14.25612      2.71550        -0.474977      0.125798      0.727443
     14.22932     12.74983      5.43100        14.159032     -3.192577    -15.369612
      2.55558      3.33553      1.35775         1.727028     -2.671692      3.508076
      0.29615      1.82925      4.07325         0.323428     -0.070801     -0.412977
     17.61847      0.32296      6.78875       -19.027516     -2.716601     -6.082967
      1.04929     15.38584      1.35775         0.250790     -0.223936      0.672933
     18.37161     13.87955      4.07325         0.073445      0.254283     -0.638472
     16.11218     12.37326      6.78875         1.923909      1.905165     -1.643654
      4.06187     10.86698      1.35775        -1.145709      0.757513     -0.194513
      1.80244      9.36069      4.07325        -0.474977      0.125798     -0.727443
     19.12476      7.85440      6.78875       -19.407385     89.295735     -7.069335
      7.07445      6.34811      1.35775        -2.572166      3.615828      4.611350
      4.81502      4.84182      4.07325         0.030577     -0.016453     -0.423564
      2.55558      3.33553      6.78875      -591.222687     69.728295      0.733810
     10.08703      1.82925      1.35775       -16.047336      2.583766     17.651137
      7.82759      0.32296      4.07325         0.447427     -0.129746     -0.744812
      5.56816     18.39841      6.78875       -45.525982    -63.079697     -0.408186
      5.56816     18.39842      1.35775         1.142771     -0.666573     -0.291184
      3.30873     16.89213      4.07325        -0.077106      0.123803     -1.318830
      1.04929     15.38584      6.78875        -3.678154     -1.438670      0.298455
      8.58074     13.87956      1.35775        -0.219316      0.343820      0.781561
      6.32130     12.37327      4.07325         0.074290     -0.127662     -1.257911
      4.06187     10.86698      6.78875        57.468125     69.469944     -0.410249
     11.59332      9.36069      1.35775         3.587152     15.869831     18.736857
      9.33388      7.85440      4.07325        -0.319516      0.047339     -0.350681
      7.07445      6.34811      6.78875       482.646169   -133.489576      0.250431
     14.60589      4.84182      1.35775         1.322101     -3.761408     98.019309
     12.34646      3.33553      4.07325         0.218758     -0.021977     -0.381340
     10.08703      1.82924      6.78875        13.060478    -68.454356     -8.213539
     17.61847      0.32296      1.35775        -2.366963    -13.184476     14.458810
     15.35904     18.39842      4.07325        -0.197908     -0.039925     -0.534907
     13.09960     16.89213      6.78875        -1.657764     -1.578252     -1.378868
     13.09961     16.89213      1.35775        -3.521414     -2.259246      3.111536
     10.84017     15.38584      4.07325        -0.071112     -0.259166     -0.607487
      8.58074     13.87955      6.78875         4.025978      1.645387      0.296176
     16.11218     12.37327      1.35775         3.962159      2.207344      3.487015
     13.85275     10.86698      4.07325         0.147506      0.045388     -0.496046
     11.59331      9.36069      6.78875        16.009189      3.778546     -8.253828
     19.12476      7.85440      1.35775        14.159032     -3.192577     15.369612
     16.86532      6.34811      4.07325        -0.151748      0.033317     -0.379270
     14.60589      4.84182      6.78875        -0.691207     -0.595168    -48.491516
     19.48453     13.05450      6.78875       -16.188544     71.816770      2.807816
     16.22090     13.05450     10.03335        -0.081152      0.133263      0.489995
     12.95728     13.05450     13.27795        -4.961444      1.925465     -9.079442
     19.48453      6.52725      6.78875        21.411609    -93.095554      3.111166
     16.22090      6.52725     10.03335        -0.123966     -0.202289      0.120973
     12.95728      6.52725     13.27795         0.745366      5.670950     -7.708797
     19.48453      0.00000      6.78875         2.118765      3.965172     96.002114
     16.22090      0.00000     10.03335        -0.037251      0.063528      0.319998
     12.95728      0.00000     13.27795         0.492497     -1.133417     -1.739398
      6.43003     13.05450      6.78875        -3.626748    -20.896558     18.368516
      3.16640     13.05450     10.03335         0.077735      0.222267      0.114794
     19.48453     13.05450     13.27795         2.066226     -0.310930     -2.422076
      6.43003      6.52725      6.78875      -466.089594    131.787414     15.314863
      3.16640      6.52725     10.03335         0.035271     -0.130065      0.503220
     19.48453      6.52725     13.27795        -2.380734      0.257434     -2.727772
      6.43003      0.00000      6.78875        43.131734     64.793321      1.981747
      3.16640      0.00000     10.03335         0.019194     -0.074997      0.330760
     19.48453      0.00000     13.27795        -0.451588      1.649584    -50.332551
     12.95728     13.05450      6.78875       576.253223    -66.885980     13.078448
      9.69365     13.05450     10.03335         0.041987      0.047572      0.073182
      6.43003     13.05450     13.27795        -1.273609     -6.701497     -9.935188
     12.95728      6.52725      6.78875         3.310991     17.005653     14.155404
      9.69365      6.52725     10.03335         0.003876     -0.066495      0.017376
      6.43003      6.52725     13.27795         5.625056     -1.633172    -10.261349
     12.95728      0.00000      6.78875       -54.301086    -72.524062      3.045163
      9.69365      0.00000     10.03335         0.035680     -0.000757      0.488320
      6.43003      0.00000     13.27795        -0.077839      0.464238     -1.093871
      1.53459     17.94994      8.41105        -1.273609     -6.701497      9.935188
     17.85272     17.94994     11.65565         0.077735      0.222267     -0.114794
     14.58909     17.94994      0.00000       -16.188544     71.816770     -2.807816
      1.53459     11.42269      8.41105         5.625056     -1.633172     10.261349
     17.85272     11.42269     11.65565         0.035271     -0.130065     -0.503220
     14.58909     11.42269      0.00000        21.411609    -93.095554     -3.111166
      1.53459      4.89544      8.41105        -0.077839      0.464238      1.093871
     17.85272      4.89544     11.65565         0.019194     -0.074997     -0.330760
     14.58909      4.89544      0.00000         2.118765      3.965172    -96.002114
      8.06184     17.94994      8.41105        -4.961444      1.925465      9.079442
      4.79822     17.94994     11.65565         0.041987      0.047572     -0.073182
      1.53459     17.94994      0.00000        -3.626748    -20.896558    -18.368516
      8.06184     11.42269      8.41105         0.745366      5.670950      7.708797
      4.79822     11.42269     11.65565         0.003876     -0.066495     -0.017376
      1.53459     11.42269      0.00000      -466.089594    131.787414    -15.314863
      8.06184      4.89544      8.41105         0.492497     -1.133417      1.739398
      4.79822      4.89544     11.65565         0.035680     -0.000757     -0.488320
      1.53459      4.89544      0.00000        43.131734     64.793321     -1.981747
     14.58909     17.94994      8.41105         2.066226     -0.310930      2.422076
     11.32547     17.94994     11.65565        -0.081152      0.133263     -0.489995
      8.06184     17.94994      0.00000       576.253223    -66.885980    -13.078448
     14.58909     11.42269      8.41105        -2.380734      0.257434      2.727772
     11.32547     11.42269     11.65565        -0.123966     -0.202289     -0.120973
      8.06184     11.42269      0.00000         3.310991     17.005653    -14.155404
     14.58909      4.89544      8.41105        -0.451588      1.649584     50.332551
     11.32547      4.89544     11.65565        -0.037251      0.063528     -0.319998
      8.06184      4.89544      0.00000       -54.301086    -72.524062     -3.045163
      3.16640     16.31812      6.78875         3.310991     17.005653     14.155404
     19.48453     16.31812     10.03335         0.003876     -0.066495      0.017376
     16.22090     16.31812     13.27795         5.625056     -1.633172    -10.261349
      3.16640      9.79087      6.78875       -54.301086    -72.524062      3.045163
     19.48453      9.79087     10.03335         0.035680     -0.000757      0.488320
     16.22090      9.79087     13.27795        -0.077839      0.464238     -1.093871
      3.16640      3.26362      6.78875       576.253223    -66.885980     13.078448
     19.48453      3.26362     10.03335         0.041987      0.047572      0.073182
     16.22090      3.26362     13.27795        -1.273609     -6.701497     -9.935188
      9.69365     16.31812      6.78875        21.411609    -93.095554      3.111166
      6.43003     16.31812     10.03335        -0.123966     -0.202289      0.120973
      3.16640     16.31812     13.27795         0.745366      5.670950     -7.708797
      9.69365      9.79087      6.78875         2.118765      3.965172     96.002114
      6.43003      9.79087     10.03335        -0.037251      0.063528      0.319998
      3.16640      9.79087     13.27795         0.492497     -1.133417     -1.739398
      9.69365      3.26362      6.78875       -16.188544     71.816770      2.807816
      6.43003      3.26362     10.03335        -0.081152      0.133263      0.489995
      3.16640      3.26362     13.27795        -4.961444      1.925465     -9.079442
     16.22091     16.31812      6.78875      -466.089594    131.787414     15.314863
     12.95728     16.31812     10.03335         0.035271     -0.130065      0.503220
      9.69366     16.31812     13.27795        -2.380734      0.257434     -2.727772
     16.22091      9.79087      6.78875        43.131734     64.793321      1.981747
     12.95728      9.79087     10.03335         0.019194     -0.074997      0.330760
      9.69366      9.79087     13.27795        -0.451588      1.649584    -50.332551
     16.22091      3.26362      6.78875        -3.626748    -20.896558     18.368516
     12.95728      3.26362     10.03335         0.077735      0.222267      0.114794
      9.69366      3.26362     13.27795         2.066226     -0.310930     -2.422076
      4.79822     14.68631      8.41105        -0.451588      1.649584     50.332551
      1.53459     14.68631     11.65565        -0.037251      0.063528     -0.319998
     17.85272     14.68631      0.00000       -54.301086    -72.524062     -3.045163
      4.79822      8.15906      8.41105         2.066226     -0.310930      2.422076
      1.53459      8.15906     11.65565        -0.081152      0.133263     -0.489995
     17.85272      8.15906      0.00000       576.253223    -66.885980    -13.078448
      4.79822      1.63181      8.41105        -2.380734      0.257434      2.727772
      1.53459      1.63181     11.65565        -0.123966     -0.202289     -0.120973
     17.85272      1.63181      0.00000         3.310991     17.005653    -14.155404
     11.32547     14.68631      8.41105        -0.077839      0.464238      1.093871
      8.06184     14.68631     11.65565         0.019194     -0.074997     -0.330760
      4.79822     14.68631      0.00000         2.118765      3.965172    -96.002114
     11.32547      8.15906      8.41105        -1.273609     -6.701497      9.935188
      8.06184      8.15906     11.65565         0.077735      0.222267     -0.114794
      4.79822      8.15906      0.00000       -16.188544     71.816770     -2.807816
     11.32547      1.63181      8.41105         5.625056     -1.633172     10.261349
      8.06184      1.63181     11.65565         0.035271     -0.130065     -0.503220
      4.79822      1.63181      0.00000        21.411609    -93.095554     -3.111166
     17.85272     14.68631      8.41105         0.492497     -1.133417      1.739398
     14.58909     14.68631     11.65565         0.035680     -0.000757     -0.488320
     11.32547     14.68631      0.00000        43.131734     64.793321     -1.981747
     17.85272      8.15906      8.41105        -4.961444      1.925465      9.079442
     14.58909      8.15906     11.65565         0.041987      0.047572     -0.073182
     11.32547      8.15906      0.00000        -3.626748    -20.896558    -18.368516
     17.85272      1.63181      8.41105         0.745366      5.670950      7.708797
     14.58909      1.63181     11.65565         0.003876     -0.066495     -0.017376
     11.32547      1.63181      0.00000      -466.089594    131.787414    -15.314863
 -----------------------------------------------------------------------------------
    total drift:                               -0.021905      0.072509      0.001876


--------------------------------------------------------------------------------------------------------



  FREE ENERGIE OF THE ION-ELECTRON SYSTEM (eV)
  ---------------------------------------------------
  free  energy   TOTEN  =      1334.13247246 eV

  energy  without entropy=     1334.13660537  energy(sigma->0) =     1334.13453892
 


--------------------------------------------------------------------------------------------------------


    POTLOK:  cpu time      2.8888: real time      2.9100


--------------------------------------------------------------------------------------------------------


     LOOP+:  cpu time  16852.1790: real time  17027.4336
    4ORBIT:  cpu time      0.0000: real time      0.0000

 total amount of memory used by VASP MPI-rank0   730714. kBytes
=======================================================================

   base      :      30000. kBytes
   nonlr-proj:      25182. kBytes
   fftplans  :      31824. kBytes
   grid      :      23756. kBytes
   one-center:        275. kBytes
   wavefun   :     619677. kBytes
 
  
  
 General timing and accounting informations for this job:
 ========================================================
  
                  Total CPU time used (sec):    17099.645
                            User time (sec):    16371.732
                          System time (sec):      727.912
                         Elapsed time (sec):    17280.013
  
                   Maximum memory used (kb):     1035000.
                   Average memory used (kb):          N/A
  
                          Minor page faults:      1667573
                          Major page faults:         3118
                 Voluntary context switches:         6568
