  48  48   0   0
  0.2323126E+02  0.8001338E-09  0.1265123E-08  0.1161174E-08  0.5000000E-15
  1.000000000000000E-004
  CAR 
 Si and Ge interface calculation         
      6.60424877    -11.07024934  301      3.33062600      1.00000000
    -11.070  0.0000E+00  0.0000E+00  0.0000E+00  0.0000E+00
    -11.011  0.0000E+00  0.0000E+00  0.0000E+00  0.0000E+00
    -10.952  0.0000E+00  0.0000E+00  0.0000E+00  0.0000E+00
    -10.894  0.0000E+00  0.0000E+00  0.0000E+00  0.0000E+00
    -10.835  0.0000E+00  0.0000E+00  0.0000E+00  0.0000E+00
    -10.776  0.0000E+00  0.0000E+00  0.0000E+00  0.0000E+00
    -10.717  0.0000E+00  0.0000E+00  0.0000E+00  0.0000E+00
    -10.658  0.0000E+00  0.0000E+00  0.0000E+00  0.0000E+00
    -10.599  0.0000E+00  0.0000E+00  0.0000E+00  0.0000E+00
    -10.540  0.0000E+00  0.0000E+00  0.0000E+00  0.0000E+00
    -10.481  0.0000E+00  0.0000E+00  0.0000E+00  0.0000E+00
    -10.422  0.0000E+00  0.0000E+00  0.0000E+00  0.0000E+00
    -10.363  0.0000E+00  0.0000E+00  0.0000E+00  0.0000E+00
    -10.304  0.5401E-07  0.2356E-14  0.3182E-08  0.1388E-15
    -10.245  0.5113E+01  0.1059E+01  0.3012E+00  0.6238E-01
    -10.187  0.3373E+01  0.7428E+01  0.5000E+00  0.5000E+00
    -10.128  0.1066E+01  0.2736E-02  0.5628E+00  0.5002E+00
    -10.069  0.2439E+02  0.2499E+02  0.2000E+01  0.1973E+01
    -10.010  0.6009E-06  0.4617E+00  0.2000E+01  0.2000E+01
     -9.951  0.1548E+02  0.7159E+01  0.2912E+01  0.2422E+01
     -9.892  0.1491E+01  0.9815E+01  0.3000E+01  0.3000E+01
     -9.833  0.0000E+00  0.0000E+00  0.3000E+01  0.3000E+01
     -9.774  0.0000E+00  0.0000E+00  0.3000E+01  0.3000E+01
     -9.715  0.1188E+00  0.3893E-04  0.3007E+01  0.3000E+01
     -9.656  0.1685E+02  0.1463E+02  0.4000E+01  0.3862E+01
     -9.597  0.4111E-02  0.2348E+01  0.4000E+01  0.4000E+01
     -9.538  0.1187E+02  0.1543E+01  0.4699E+01  0.4091E+01
     -9.480  0.5101E+01  0.1543E+02  0.5000E+01  0.5000E+01
     -9.421  0.0000E+00  0.0000E+00  0.5000E+01  0.5000E+01
     -9.362  0.0000E+00  0.0000E+00  0.5000E+01  0.5000E+01
     -9.303  0.0000E+00  0.0000E+00  0.5000E+01  0.5000E+01
     -9.244  0.0000E+00  0.0000E+00  0.5000E+01  0.5000E+01
     -9.185  0.0000E+00  0.0000E+00  0.5000E+01  0.5000E+01
     -9.126  0.0000E+00  0.0000E+00  0.5000E+01  0.5000E+01
     -9.067  0.1352E-10  0.0000E+00  0.5000E+01  0.5000E+01
     -9.008  0.4131E+01  0.4057E+00  0.5243E+01  0.5024E+01
     -8.949  0.1284E+02  0.1657E+02  0.6000E+01  0.6000E+01
     -8.890  0.4241E-02  0.4035E-07  0.6000E+01  0.6000E+01
     -8.831  0.1679E+02  0.1371E+02  0.6990E+01  0.6808E+01
     -8.773  0.1922E+01  0.3928E+01  0.7103E+01  0.7039E+01
     -8.714  0.4326E+01  0.4215E+01  0.7358E+01  0.7288E+01
     -8.655  0.4659E+01  0.3247E+01  0.7632E+01  0.7479E+01
     -8.596  0.7815E+01  0.9170E+01  0.8093E+01  0.8019E+01
     -8.537  0.7352E+01  0.5355E+01  0.8526E+01  0.8335E+01
     -8.478  0.6690E+01  0.8080E+01  0.8920E+01  0.8811E+01
     -8.419  0.4066E+01  0.4861E+01  0.9160E+01  0.9097E+01
     -8.360  0.1197E+00  0.1183E+01  0.9167E+01  0.9167E+01
     -8.301  0.4178E+01  0.6504E+00  0.9413E+01  0.9205E+01
     -8.242  0.2547E+02  0.1698E+02  0.1091E+02  0.1021E+02
     -8.183  0.1459E+02  0.2554E+02  0.1177E+02  0.1171E+02
     -8.124  0.6740E+01  0.6619E+01  0.1217E+02  0.1210E+02
     -8.066  0.2823E+01  0.3958E+01  0.1234E+02  0.1233E+02
     -8.007  0.4655E+01  0.4711E+01  0.1261E+02  0.1261E+02
     -7.948  0.9313E+01  0.6658E+01  0.1316E+02  0.1300E+02
     -7.889  0.9207E+01  0.7521E+01  0.1370E+02  0.1345E+02
     -7.830  0.3610E+01  0.7519E+01  0.1392E+02  0.1389E+02
     -7.771  0.8773E+01  0.7374E+01  0.1443E+02  0.1432E+02
     -7.712  0.1388E+02  0.1367E+02  0.1525E+02  0.1513E+02
     -7.653  0.1090E+02  0.1230E+02  0.1589E+02  0.1585E+02
     -7.594  0.2270E+02  0.1268E+02  0.1723E+02  0.1660E+02
     -7.535  0.1591E+02  0.2232E+02  0.1817E+02  0.1792E+02
     -7.476  0.1213E+02  0.1390E+02  0.1888E+02  0.1874E+02
     -7.418  0.1595E+02  0.1556E+02  0.1982E+02  0.1965E+02
     -7.359  0.1322E+02  0.1201E+02  0.2060E+02  0.2036E+02
     -7.300  0.1287E+02  0.1528E+02  0.2136E+02  0.2126E+02
     -7.241  0.2168E+02  0.1332E+02  0.2264E+02  0.2204E+02
     -7.182  0.1444E+02  0.1927E+02  0.2349E+02  0.2318E+02
     -7.123  0.6937E+01  0.1203E+02  0.2389E+02  0.2389E+02
     -7.064  0.2270E+02  0.2043E+02  0.2523E+02  0.2509E+02
     -7.005  0.2195E+02  0.1538E+02  0.2653E+02  0.2600E+02
     -6.946  0.2836E+02  0.2932E+02  0.2820E+02  0.2773E+02
     -6.887  0.1957E+02  0.1955E+02  0.2935E+02  0.2888E+02
     -6.828  0.2154E+02  0.2534E+02  0.3062E+02  0.3037E+02
     -6.769  0.1827E+02  0.1755E+02  0.3169E+02  0.3141E+02
     -6.711  0.1534E+02  0.1627E+02  0.3260E+02  0.3236E+02
     -6.652  0.1838E+02  0.1471E+02  0.3368E+02  0.3323E+02
     -6.593  0.1381E+02  0.1549E+02  0.3449E+02  0.3414E+02
     -6.534  0.1065E+02  0.1497E+02  0.3512E+02  0.3503E+02
     -6.475  0.1289E+02  0.9340E+01  0.3588E+02  0.3558E+02
     -6.416  0.1536E+02  0.1710E+02  0.3679E+02  0.3658E+02
     -6.357  0.1044E+02  0.9719E+01  0.3740E+02  0.3716E+02
     -6.298  0.6799E+01  0.8300E+01  0.3780E+02  0.3764E+02
     -6.239  0.7570E+01  0.7164E+01  0.3825E+02  0.3807E+02
     -6.180  0.1749E+02  0.1725E+02  0.3928E+02  0.3908E+02
     -6.121  0.1857E+02  0.2013E+02  0.4037E+02  0.4027E+02
     -6.062  0.1946E+01  0.2205E+01  0.4049E+02  0.4040E+02
     -6.004  0.9585E+01  0.6634E+01  0.4105E+02  0.4079E+02
     -5.945  0.7621E+01  0.1166E+02  0.4150E+02  0.4148E+02
     -5.886  0.8129E+01  0.6692E+01  0.4198E+02  0.4187E+02
     -5.827  0.8252E+01  0.4137E+01  0.4247E+02  0.4212E+02
     -5.768  0.1191E+02  0.1622E+02  0.4317E+02  0.4307E+02
     -5.709  0.1248E+02  0.8781E+01  0.4390E+02  0.4359E+02
     -5.650  0.1337E+02  0.1376E+02  0.4469E+02  0.4440E+02
     -5.591  0.1439E+02  0.1803E+02  0.4554E+02  0.4546E+02
     -5.532  0.6862E+01  0.6889E+01  0.4594E+02  0.4587E+02
     -5.473  0.9498E+01  0.7725E+01  0.4650E+02  0.4632E+02
     -5.414  0.7931E+01  0.6483E+01  0.4697E+02  0.4670E+02
     -5.355  0.1287E+02  0.1282E+02  0.4773E+02  0.4746E+02
     -5.297  0.6849E+01  0.8725E+01  0.4813E+02  0.4797E+02
     -5.238  0.1477E+02  0.1618E+02  0.4900E+02  0.4893E+02
     -5.179  0.1879E+02  0.5929E+01  0.5011E+02  0.4928E+02
     -5.120  0.5629E+01  0.1663E+02  0.5044E+02  0.5025E+02
     -5.061  0.9236E+01  0.1005E+02  0.5098E+02  0.5085E+02
     -5.002  0.8494E+01  0.7737E+01  0.5148E+02  0.5130E+02
     -4.943  0.1031E+02  0.1167E+02  0.5209E+02  0.5199E+02
     -4.884  0.6653E+01  0.5777E+01  0.5248E+02  0.5233E+02
     -4.825  0.6072E+01  0.5340E+01  0.5284E+02  0.5265E+02
     -4.766  0.7325E+01  0.7017E+01  0.5327E+02  0.5306E+02
     -4.707  0.8904E+01  0.7919E+01  0.5380E+02  0.5353E+02
     -4.649  0.1582E+02  0.1653E+02  0.5473E+02  0.5450E+02
     -4.590  0.8473E+01  0.9770E+01  0.5523E+02  0.5507E+02
     -4.531  0.2867E+02  0.2065E+02  0.5692E+02  0.5629E+02
     -4.472  0.1380E+02  0.2136E+02  0.5773E+02  0.5755E+02
     -4.413  0.6388E+01  0.7024E+01  0.5811E+02  0.5796E+02
     -4.354  0.7122E+01  0.8384E+01  0.5853E+02  0.5846E+02
     -4.295  0.9537E+01  0.4569E+01  0.5909E+02  0.5873E+02
     -4.236  0.3293E+02  0.2659E+02  0.6103E+02  0.6029E+02
     -4.177  0.2303E+02  0.3012E+02  0.6239E+02  0.6207E+02
     -4.118  0.2074E+02  0.2118E+02  0.6361E+02  0.6332E+02
     -4.059  0.1643E+02  0.1280E+02  0.6458E+02  0.6407E+02
     -4.000  0.1914E+02  0.2345E+02  0.6570E+02  0.6545E+02
     -3.942  0.1067E+02  0.1230E+02  0.6633E+02  0.6618E+02
     -3.883  0.2642E+02  0.2212E+02  0.6789E+02  0.6748E+02
     -3.824  0.1487E+02  0.1206E+02  0.6876E+02  0.6819E+02
     -3.765  0.1034E+02  0.1662E+02  0.6937E+02  0.6917E+02
     -3.706  0.8740E+01  0.7712E+01  0.6989E+02  0.6962E+02
     -3.647  0.1195E+02  0.1277E+02  0.7059E+02  0.7038E+02
     -3.588  0.2087E+02  0.1786E+02  0.7182E+02  0.7143E+02
     -3.529  0.1277E+02  0.1621E+02  0.7258E+02  0.7238E+02
     -3.470  0.1492E+02  0.1410E+02  0.7345E+02  0.7321E+02
     -3.411  0.1543E+02  0.1401E+02  0.7436E+02  0.7404E+02
     -3.352  0.1446E+02  0.1429E+02  0.7522E+02  0.7488E+02
     -3.293  0.2395E+02  0.2448E+02  0.7663E+02  0.7632E+02
     -3.235  0.1448E+02  0.1279E+02  0.7748E+02  0.7708E+02
     -3.176  0.5328E+01  0.1098E+02  0.7779E+02  0.7772E+02
     -3.117  0.1069E+02  0.8500E+01  0.7842E+02  0.7822E+02
     -3.058  0.1303E+01  0.4666E+01  0.7850E+02  0.7850E+02
     -2.999  0.7407E+01  0.5323E+01  0.7894E+02  0.7881E+02
     -2.940  0.1155E+02  0.1219E+02  0.7962E+02  0.7953E+02
     -2.881  0.9493E+01  0.1062E+02  0.8018E+02  0.8016E+02
     -2.822  0.6465E+01  0.5819E+01  0.8056E+02  0.8050E+02
     -2.763  0.1061E+02  0.8875E+01  0.8118E+02  0.8102E+02
     -2.704  0.7963E+01  0.9564E+01  0.8165E+02  0.8159E+02
     -2.645  0.8457E+01  0.7248E+01  0.8215E+02  0.8201E+02
     -2.586  0.7245E+01  0.7310E+01  0.8258E+02  0.8244E+02
     -2.528  0.1334E+02  0.1145E+02  0.8336E+02  0.8312E+02
     -2.469  0.1443E+02  0.1232E+02  0.8421E+02  0.8384E+02
     -2.410  0.1209E+02  0.1517E+02  0.8493E+02  0.8474E+02
     -2.351  0.3568E+01  0.6310E+01  0.8514E+02  0.8511E+02
     -2.292  0.3928E+01  0.2291E+01  0.8537E+02  0.8525E+02
     -2.233  0.6150E+01  0.6627E+01  0.8573E+02  0.8564E+02
     -2.174  0.9286E+01  0.8611E+01  0.8628E+02  0.8614E+02
     -2.115  0.1981E+02  0.1987E+02  0.8744E+02  0.8731E+02
     -2.056  0.7171E+01  0.2643E+01  0.8787E+02  0.8747E+02
     -1.997  0.8748E+01  0.1233E+02  0.8838E+02  0.8820E+02
     -1.938  0.4809E+01  0.6208E+01  0.8866E+02  0.8856E+02
     -1.880  0.5674E+01  0.5421E+01  0.8900E+02  0.8888E+02
     -1.821  0.7466E+01  0.7957E+01  0.8944E+02  0.8935E+02
     -1.762  0.3867E+01  0.4945E+01  0.8967E+02  0.8964E+02
     -1.703  0.6156E+01  0.4297E+01  0.9003E+02  0.8990E+02
     -1.644  0.8925E+01  0.1006E+02  0.9056E+02  0.9049E+02
     -1.585  0.3963E+01  0.4902E+01  0.9079E+02  0.9078E+02
     -1.526  0.3588E+01  0.3788E+01  0.9100E+02  0.9100E+02
     -1.467  0.2555E+01  0.1894E+01  0.9115E+02  0.9111E+02
     -1.408  0.1849E+01  0.1876E+01  0.9126E+02  0.9122E+02
     -1.349  0.1182E+02  0.9330E+01  0.9196E+02  0.9177E+02
     -1.290  0.4653E+01  0.6065E+01  0.9223E+02  0.9213E+02
     -1.231  0.3895E+01  0.4394E+01  0.9246E+02  0.9239E+02
     -1.173  0.5309E+01  0.4687E+01  0.9277E+02  0.9266E+02
     -1.114  0.1562E+02  0.1379E+02  0.9369E+02  0.9348E+02
     -1.055  0.9578E+01  0.9125E+01  0.9426E+02  0.9401E+02
     -0.996  0.2512E+02  0.1913E+02  0.9574E+02  0.9514E+02
     -0.937  0.2193E+02  0.2576E+02  0.9703E+02  0.9666E+02
     -0.878  0.1327E+02  0.1787E+02  0.9781E+02  0.9771E+02
     -0.819  0.2167E+02  0.1847E+02  0.9909E+02  0.9880E+02
     -0.760  0.1753E+02  0.1744E+02  0.1001E+03  0.9983E+02
     -0.701  0.2166E+02  0.2074E+02  0.1014E+03  0.1010E+03
     -0.642  0.2217E+02  0.1979E+02  0.1027E+03  0.1022E+03
     -0.583  0.1652E+02  0.2374E+02  0.1037E+03  0.1036E+03
     -0.524  0.2020E+02  0.1351E+02  0.1049E+03  0.1044E+03
     -0.466  0.2222E+02  0.2322E+02  0.1062E+03  0.1058E+03
     -0.407  0.2473E+02  0.2346E+02  0.1076E+03  0.1072E+03
     -0.348  0.3909E+02  0.3448E+02  0.1099E+03  0.1092E+03
     -0.289  0.2277E+02  0.2963E+02  0.1113E+03  0.1109E+03
     -0.230  0.3004E+02  0.2598E+02  0.1130E+03  0.1125E+03
     -0.171  0.1876E+02  0.2002E+02  0.1142E+03  0.1136E+03
     -0.112  0.2296E+02  0.2567E+02  0.1155E+03  0.1152E+03
     -0.053  0.2431E+02  0.2315E+02  0.1169E+03  0.1165E+03
      0.006  0.2523E+02  0.2446E+02  0.1184E+03  0.1180E+03
      0.065  0.2467E+02  0.2087E+02  0.1199E+03  0.1192E+03
      0.124  0.2854E+02  0.3106E+02  0.1216E+03  0.1210E+03
      0.183  0.1671E+02  0.2042E+02  0.1225E+03  0.1222E+03
      0.241  0.2460E+02  0.2260E+02  0.1240E+03  0.1236E+03
      0.300  0.1591E+02  0.1903E+02  0.1249E+03  0.1247E+03
      0.359  0.2819E+02  0.2515E+02  0.1266E+03  0.1262E+03
      0.418  0.2532E+02  0.2635E+02  0.1281E+03  0.1277E+03
      0.477  0.1741E+02  0.2102E+02  0.1291E+03  0.1290E+03
      0.536  0.2759E+02  0.2652E+02  0.1307E+03  0.1305E+03
      0.595  0.3572E+02  0.3007E+02  0.1328E+03  0.1323E+03
      0.654  0.2675E+02  0.3038E+02  0.1344E+03  0.1341E+03
      0.713  0.2865E+02  0.2453E+02  0.1361E+03  0.1355E+03
      0.772  0.2985E+02  0.2944E+02  0.1379E+03  0.1373E+03
      0.831  0.2394E+02  0.2562E+02  0.1393E+03  0.1388E+03
      0.889  0.3017E+02  0.3446E+02  0.1410E+03  0.1408E+03
      0.948  0.2819E+02  0.2107E+02  0.1427E+03  0.1420E+03
      1.007  0.3908E+02  0.4419E+02  0.1450E+03  0.1446E+03
      1.066  0.2329E+02  0.2355E+02  0.1464E+03  0.1460E+03
      1.125  0.3410E+02  0.2778E+02  0.1484E+03  0.1477E+03
      1.184  0.2037E+02  0.2819E+02  0.1496E+03  0.1493E+03
      1.243  0.2435E+02  0.1923E+02  0.1510E+03  0.1505E+03
      1.302  0.1773E+02  0.2169E+02  0.1521E+03  0.1517E+03
      1.361  0.1657E+02  0.1661E+02  0.1530E+03  0.1527E+03
      1.420  0.2731E+02  0.2709E+02  0.1547E+03  0.1543E+03
      1.479  0.1963E+02  0.2113E+02  0.1558E+03  0.1556E+03
      1.538  0.2438E+02  0.2097E+02  0.1573E+03  0.1568E+03
      1.596  0.1769E+02  0.1938E+02  0.1583E+03  0.1579E+03
      1.655  0.1815E+02  0.1736E+02  0.1594E+03  0.1590E+03
      1.714  0.2953E+02  0.2238E+02  0.1611E+03  0.1603E+03
      1.773  0.2190E+02  0.2858E+02  0.1624E+03  0.1620E+03
      1.832  0.2567E+02  0.2446E+02  0.1639E+03  0.1634E+03
      1.891  0.1710E+02  0.2193E+02  0.1649E+03  0.1647E+03
      1.950  0.2501E+02  0.1517E+02  0.1664E+03  0.1656E+03
      2.009  0.2218E+02  0.2706E+02  0.1677E+03  0.1672E+03
      2.068  0.2570E+02  0.2571E+02  0.1692E+03  0.1687E+03
      2.127  0.2369E+02  0.2260E+02  0.1706E+03  0.1700E+03
      2.186  0.3470E+02  0.2677E+02  0.1726E+03  0.1716E+03
      2.245  0.1332E+02  0.2356E+02  0.1734E+03  0.1730E+03
      2.303  0.1915E+02  0.2300E+02  0.1746E+03  0.1743E+03
      2.362  0.1728E+02  0.1709E+02  0.1756E+03  0.1754E+03
      2.421  0.1479E+02  0.1299E+02  0.1765E+03  0.1761E+03
      2.480  0.1331E+02  0.1391E+02  0.1772E+03  0.1769E+03
      2.539  0.3042E+02  0.1597E+02  0.1790E+03  0.1779E+03
      2.598  0.2546E+02  0.3062E+02  0.1805E+03  0.1797E+03
      2.657  0.2235E+02  0.2250E+02  0.1818E+03  0.1810E+03
      2.716  0.1258E+02  0.2120E+02  0.1826E+03  0.1823E+03
      2.775  0.7819E+01  0.8824E+01  0.1830E+03  0.1828E+03
      2.834  0.1863E+02  0.1211E+02  0.1841E+03  0.1835E+03
      2.893  0.1413E+02  0.1910E+02  0.1850E+03  0.1846E+03
      2.952  0.8406E+01  0.1136E+02  0.1855E+03  0.1853E+03
      3.010  0.8909E+01  0.6606E+01  0.1860E+03  0.1857E+03
      3.069  0.2208E+02  0.1355E+02  0.1873E+03  0.1865E+03
      3.128  0.1111E+02  0.1664E+02  0.1880E+03  0.1875E+03
      3.187  0.2411E+02  0.1839E+02  0.1894E+03  0.1885E+03
      3.246  0.1220E+02  0.2144E+02  0.1901E+03  0.1898E+03
      3.305  0.1928E+02  0.1024E+02  0.1912E+03  0.1904E+03
      3.364  0.1406E+02  0.1780E+02  0.1921E+03  0.1915E+03
      3.423  0.1677E+02  0.1670E+02  0.1930E+03  0.1924E+03
      3.482  0.1058E+02  0.1315E+02  0.1937E+03  0.1932E+03
      3.541  0.9222E+01  0.1064E+02  0.1942E+03  0.1938E+03
      3.600  0.1733E+02  0.1065E+02  0.1952E+03  0.1945E+03
      3.658  0.1291E+02  0.1825E+02  0.1960E+03  0.1955E+03
      3.717  0.2222E+02  0.1352E+02  0.1973E+03  0.1963E+03
      3.776  0.1518E+02  0.2460E+02  0.1982E+03  0.1978E+03
      3.835  0.1464E+02  0.1649E+02  0.1991E+03  0.1988E+03
      3.894  0.7253E+01  0.9529E+01  0.1995E+03  0.1993E+03
      3.953  0.7937E+01  0.9022E+01  0.2000E+03  0.1999E+03
      4.012  0.2467E+02  0.1683E+02  0.2014E+03  0.2008E+03
      4.071  0.1135E+02  0.1674E+02  0.2021E+03  0.2018E+03
      4.130  0.1926E+02  0.1743E+02  0.2032E+03  0.2029E+03
      4.189  0.1572E+02  0.1404E+02  0.2041E+03  0.2037E+03
      4.248  0.1170E+02  0.1552E+02  0.2048E+03  0.2046E+03
      4.307  0.9579E+01  0.6977E+01  0.2054E+03  0.2050E+03
      4.365  0.1227E+02  0.1411E+02  0.2061E+03  0.2058E+03
      4.424  0.1922E+02  0.1653E+02  0.2072E+03  0.2068E+03
      4.483  0.9975E+01  0.1581E+02  0.2078E+03  0.2077E+03
      4.542  0.1347E+02  0.1027E+02  0.2086E+03  0.2084E+03
      4.601  0.1396E+02  0.1209E+02  0.2094E+03  0.2091E+03
      4.660  0.2079E+02  0.1790E+02  0.2107E+03  0.2101E+03
      4.719  0.1976E+02  0.2476E+02  0.2118E+03  0.2116E+03
      4.778  0.1881E+02  0.1671E+02  0.2129E+03  0.2126E+03
      4.837  0.1213E+02  0.1680E+02  0.2137E+03  0.2136E+03
      4.896  0.2482E+02  0.2070E+02  0.2151E+03  0.2148E+03
      4.955  0.3040E+02  0.2971E+02  0.2169E+03  0.2165E+03
      5.014  0.7167E+01  0.1105E+02  0.2173E+03  0.2172E+03
      5.072  0.1751E+02  0.1338E+02  0.2184E+03  0.2180E+03
      5.131  0.2410E+02  0.2255E+02  0.2198E+03  0.2193E+03
      5.190  0.2357E+02  0.2398E+02  0.2212E+03  0.2207E+03
      5.249  0.3166E+02  0.2931E+02  0.2230E+03  0.2224E+03
      5.308  0.2545E+02  0.2836E+02  0.2245E+03  0.2241E+03
      5.367  0.2203E+02  0.2211E+02  0.2258E+03  0.2254E+03
      5.426  0.2022E+02  0.2445E+02  0.2270E+03  0.2268E+03
      5.485  0.2123E+02  0.1754E+02  0.2283E+03  0.2279E+03
      5.544  0.1975E+02  0.2026E+02  0.2294E+03  0.2291E+03
      5.603  0.2234E+02  0.2515E+02  0.2308E+03  0.2306E+03
      5.662  0.1292E+02  0.1102E+02  0.2315E+03  0.2312E+03
      5.721  0.4304E+01  0.7950E+01  0.2318E+03  0.2317E+03
      5.779  0.2203E+01  0.1925E+01  0.2319E+03  0.2318E+03
      5.838  0.1595E+01  0.3642E+01  0.2320E+03  0.2320E+03
      5.897  0.0000E+00  0.0000E+00  0.2320E+03  0.2320E+03
      5.956  0.0000E+00  0.0000E+00  0.2320E+03  0.2320E+03
      6.015  0.0000E+00  0.0000E+00  0.2320E+03  0.2320E+03
      6.074  0.0000E+00  0.0000E+00  0.2320E+03  0.2320E+03
      6.133  0.0000E+00  0.0000E+00  0.2320E+03  0.2320E+03
      6.192  0.0000E+00  0.0000E+00  0.2320E+03  0.2320E+03
      6.251  0.0000E+00  0.0000E+00  0.2320E+03  0.2320E+03
      6.310  0.0000E+00  0.0000E+00  0.2320E+03  0.2320E+03
      6.369  0.0000E+00  0.0000E+00  0.2320E+03  0.2320E+03
      6.428  0.0000E+00  0.0000E+00  0.2320E+03  0.2320E+03
      6.486  0.0000E+00  0.0000E+00  0.2320E+03  0.2320E+03
      6.545  0.0000E+00  0.0000E+00  0.2320E+03  0.2320E+03
      6.604  0.0000E+00  0.0000E+00  0.2320E+03  0.2320E+03
