 264 264   0   0
  0.2770664E+02  0.1946760E-08  0.1946760E-08  0.1930025E-08  0.5000000E-15
  1.000000000000000E-004
  CAR 
 Si and Ge interface calculation         
      6.64585628     -8.88945440  301      4.06570489      1.00000000
     -8.889  0.0000E+00  0.0000E+00  0.0000E+00  0.0000E+00
     -8.838  0.0000E+00  0.0000E+00  0.0000E+00  0.0000E+00
     -8.786  0.0000E+00  0.0000E+00  0.0000E+00  0.0000E+00
     -8.734  0.0000E+00  0.0000E+00  0.0000E+00  0.0000E+00
     -8.682  0.0000E+00  0.0000E+00  0.0000E+00  0.0000E+00
     -8.631  0.0000E+00  0.0000E+00  0.0000E+00  0.0000E+00
     -8.579  0.0000E+00  0.0000E+00  0.0000E+00  0.0000E+00
     -8.527  0.0000E+00  0.0000E+00  0.0000E+00  0.0000E+00
     -8.475  0.0000E+00  0.0000E+00  0.0000E+00  0.0000E+00
     -8.423  0.0000E+00  0.0000E+00  0.0000E+00  0.0000E+00
     -8.372  0.0000E+00  0.0000E+00  0.0000E+00  0.0000E+00
     -8.320  0.0000E+00  0.0000E+00  0.0000E+00  0.0000E+00
     -8.268  0.0000E+00  0.0000E+00  0.0000E+00  0.0000E+00
     -8.216  0.1496E-04  0.4228E-05  0.7748E-06  0.2189E-06
     -8.164  0.9722E+01  0.9630E+01  0.5035E+00  0.4987E+00
     -8.113  0.1891E+02  0.1876E+02  0.1483E+01  0.1470E+01
     -8.061  0.1887E+02  0.1865E+02  0.2460E+01  0.2436E+01
     -8.009  0.1610E+02  0.1560E+02  0.3293E+01  0.3243E+01
     -7.957  0.4480E+01  0.5240E+01  0.3525E+01  0.3515E+01
     -7.906  0.1230E+02  0.1167E+02  0.4162E+01  0.4119E+01
     -7.854  0.1891E+02  0.1900E+02  0.5142E+01  0.5103E+01
     -7.802  0.3753E+02  0.3643E+02  0.7085E+01  0.6989E+01
     -7.750  0.1835E+02  0.1993E+02  0.8035E+01  0.8021E+01
     -7.698  0.2043E+02  0.1894E+02  0.9093E+01  0.9002E+01
     -7.647  0.2712E+02  0.2881E+02  0.1050E+02  0.1049E+02
     -7.595  0.5384E-01  0.1143E+00  0.1050E+02  0.1050E+02
     -7.543  0.5115E+01  0.4259E+01  0.1076E+02  0.1072E+02
     -7.491  0.1258E+02  0.1175E+02  0.1142E+02  0.1133E+02
     -7.439  0.4658E+02  0.4552E+02  0.1383E+02  0.1369E+02
     -7.388  0.3221E+02  0.3487E+02  0.1550E+02  0.1549E+02
     -7.336  0.9996E+01  0.9960E+01  0.1601E+02  0.1601E+02
     -7.284  0.1670E+02  0.1574E+02  0.1688E+02  0.1682E+02
     -7.232  0.3226E+02  0.3279E+02  0.1855E+02  0.1852E+02
     -7.181  0.3007E+02  0.2984E+02  0.2011E+02  0.2007E+02
     -7.129  0.2698E+02  0.2506E+02  0.2150E+02  0.2136E+02
     -7.077  0.4453E+02  0.4541E+02  0.2381E+02  0.2371E+02
     -7.025  0.3825E+02  0.3793E+02  0.2579E+02  0.2568E+02
     -6.973  0.4840E+02  0.4944E+02  0.2830E+02  0.2824E+02
     -6.922  0.2993E+02  0.2957E+02  0.2985E+02  0.2977E+02
     -6.870  0.3545E+02  0.3520E+02  0.3168E+02  0.3159E+02
     -6.818  0.3761E+02  0.3814E+02  0.3363E+02  0.3357E+02
     -6.766  0.3691E+02  0.3774E+02  0.3554E+02  0.3552E+02
     -6.715  0.4913E+02  0.4636E+02  0.3808E+02  0.3792E+02
     -6.663  0.6815E+02  0.6884E+02  0.4161E+02  0.4149E+02
     -6.611  0.4891E+02  0.4857E+02  0.4415E+02  0.4400E+02
     -6.559  0.3529E+02  0.3677E+02  0.4597E+02  0.4591E+02
     -6.507  0.3007E+02  0.3035E+02  0.4753E+02  0.4748E+02
     -6.456  0.2681E+02  0.2543E+02  0.4892E+02  0.4880E+02
     -6.404  0.3655E+02  0.3721E+02  0.5081E+02  0.5072E+02
     -6.352  0.4784E+02  0.4776E+02  0.5329E+02  0.5320E+02
     -6.300  0.4535E+02  0.4531E+02  0.5564E+02  0.5554E+02
     -6.248  0.3735E+02  0.3677E+02  0.5757E+02  0.5745E+02
     -6.197  0.6611E+02  0.6512E+02  0.6100E+02  0.6082E+02
     -6.145  0.7151E+02  0.7235E+02  0.6470E+02  0.6456E+02
     -6.093  0.7881E+02  0.7960E+02  0.6878E+02  0.6869E+02
     -6.041  0.6840E+02  0.6592E+02  0.7232E+02  0.7210E+02
     -5.990  0.7950E+02  0.8008E+02  0.7644E+02  0.7625E+02
     -5.938  0.5870E+02  0.6186E+02  0.7948E+02  0.7945E+02
     -5.886  0.4559E+02  0.4302E+02  0.8184E+02  0.8168E+02
     -5.834  0.6576E+02  0.6617E+02  0.8524E+02  0.8511E+02
     -5.782  0.8401E+02  0.8215E+02  0.8959E+02  0.8936E+02
     -5.731  0.7398E+02  0.7612E+02  0.9343E+02  0.9330E+02
     -5.679  0.7710E+02  0.7513E+02  0.9742E+02  0.9719E+02
     -5.627  0.9940E+02  0.9920E+02  0.1026E+03  0.1023E+03
     -5.575  0.8413E+02  0.8571E+02  0.1069E+03  0.1068E+03
     -5.523  0.5349E+02  0.5218E+02  0.1097E+03  0.1095E+03
     -5.472  0.7351E+02  0.7411E+02  0.1135E+03  0.1133E+03
     -5.420  0.7389E+02  0.7313E+02  0.1173E+03  0.1171E+03
     -5.368  0.6628E+02  0.6669E+02  0.1208E+03  0.1205E+03
     -5.316  0.8457E+02  0.8569E+02  0.1251E+03  0.1250E+03
     -5.265  0.9077E+02  0.8803E+02  0.1298E+03  0.1295E+03
     -5.213  0.7509E+02  0.7796E+02  0.1337E+03  0.1336E+03
     -5.161  0.5479E+02  0.5499E+02  0.1366E+03  0.1364E+03
     -5.109  0.4993E+02  0.4979E+02  0.1391E+03  0.1390E+03
     -5.057  0.9956E+02  0.9692E+02  0.1443E+03  0.1440E+03
     -5.006  0.7167E+02  0.7395E+02  0.1480E+03  0.1479E+03
     -4.954  0.7017E+02  0.7048E+02  0.1516E+03  0.1515E+03
     -4.902  0.5248E+02  0.5296E+02  0.1544E+03  0.1542E+03
     -4.850  0.8545E+02  0.8310E+02  0.1588E+03  0.1586E+03
     -4.798  0.1018E+03  0.1024E+03  0.1641E+03  0.1639E+03
     -4.747  0.9494E+02  0.9317E+02  0.1690E+03  0.1687E+03
     -4.695  0.1074E+03  0.1042E+03  0.1745E+03  0.1741E+03
     -4.643  0.1227E+03  0.1277E+03  0.1809E+03  0.1807E+03
     -4.591  0.9745E+02  0.9389E+02  0.1859E+03  0.1855E+03
     -4.540  0.1166E+03  0.1177E+03  0.1920E+03  0.1916E+03
     -4.488  0.1125E+03  0.1125E+03  0.1978E+03  0.1975E+03
     -4.436  0.1170E+03  0.1165E+03  0.2039E+03  0.2035E+03
     -4.384  0.8547E+02  0.8764E+02  0.2083E+03  0.2080E+03
     -4.332  0.6276E+02  0.6490E+02  0.2115E+03  0.2114E+03
     -4.281  0.9790E+02  0.9462E+02  0.2166E+03  0.2163E+03
     -4.229  0.7677E+02  0.7772E+02  0.2206E+03  0.2203E+03
     -4.177  0.8231E+02  0.8257E+02  0.2248E+03  0.2246E+03
     -4.125  0.7228E+02  0.7548E+02  0.2286E+03  0.2285E+03
     -4.074  0.4756E+02  0.4634E+02  0.2311E+03  0.2309E+03
     -4.022  0.6624E+02  0.6669E+02  0.2345E+03  0.2344E+03
     -3.970  0.6100E+02  0.5883E+02  0.2376E+03  0.2374E+03
     -3.918  0.6272E+02  0.6393E+02  0.2409E+03  0.2407E+03
     -3.866  0.7341E+02  0.7312E+02  0.2447E+03  0.2445E+03
     -3.815  0.7324E+02  0.7329E+02  0.2485E+03  0.2483E+03
     -3.763  0.6922E+02  0.6864E+02  0.2521E+03  0.2519E+03
     -3.711  0.5475E+02  0.5392E+02  0.2549E+03  0.2546E+03
     -3.659  0.7509E+02  0.7724E+02  0.2588E+03  0.2586E+03
     -3.607  0.7307E+02  0.6959E+02  0.2626E+03  0.2623E+03
     -3.556  0.4207E+02  0.4458E+02  0.2648E+03  0.2646E+03
     -3.504  0.4485E+02  0.4350E+02  0.2671E+03  0.2668E+03
     -3.452  0.9038E+02  0.8891E+02  0.2718E+03  0.2714E+03
     -3.400  0.7080E+02  0.7308E+02  0.2754E+03  0.2752E+03
     -3.349  0.8632E+02  0.8528E+02  0.2799E+03  0.2796E+03
     -3.297  0.6438E+02  0.6270E+02  0.2832E+03  0.2829E+03
     -3.245  0.8485E+02  0.8431E+02  0.2876E+03  0.2872E+03
     -3.193  0.8479E+02  0.8591E+02  0.2920E+03  0.2917E+03
     -3.141  0.9158E+02  0.9243E+02  0.2968E+03  0.2965E+03
     -3.090  0.6491E+02  0.6766E+02  0.3001E+03  0.3000E+03
     -3.038  0.8133E+02  0.7971E+02  0.3043E+03  0.3041E+03
     -2.986  0.4924E+02  0.5078E+02  0.3069E+03  0.3067E+03
     -2.934  0.9526E+02  0.9122E+02  0.3118E+03  0.3114E+03
     -2.882  0.9917E+02  0.1003E+03  0.3169E+03  0.3166E+03
     -2.831  0.8292E+02  0.8381E+02  0.3212E+03  0.3210E+03
     -2.779  0.8029E+02  0.7947E+02  0.3254E+03  0.3251E+03
     -2.727  0.9417E+02  0.9551E+02  0.3303E+03  0.3300E+03
     -2.675  0.1040E+03  0.1037E+03  0.3357E+03  0.3354E+03
     -2.624  0.9672E+02  0.9586E+02  0.3407E+03  0.3404E+03
     -2.572  0.1171E+03  0.1160E+03  0.3467E+03  0.3464E+03
     -2.520  0.1250E+03  0.1271E+03  0.3532E+03  0.3530E+03
     -2.468  0.1060E+03  0.1046E+03  0.3587E+03  0.3584E+03
     -2.416  0.7940E+02  0.8238E+02  0.3628E+03  0.3626E+03
     -2.365  0.9926E+02  0.9696E+02  0.3679E+03  0.3677E+03
     -2.313  0.8755E+02  0.8828E+02  0.3725E+03  0.3722E+03
     -2.261  0.1109E+03  0.1092E+03  0.3782E+03  0.3779E+03
     -2.209  0.6794E+02  0.7202E+02  0.3817E+03  0.3816E+03
     -2.157  0.4423E+02  0.4329E+02  0.3840E+03  0.3839E+03
     -2.106  0.6150E+02  0.6023E+02  0.3872E+03  0.3870E+03
     -2.054  0.5455E+02  0.5608E+02  0.3900E+03  0.3899E+03
     -2.002  0.8861E+02  0.8472E+02  0.3946E+03  0.3943E+03
     -1.950  0.8793E+02  0.8950E+02  0.3992E+03  0.3989E+03
     -1.899  0.1100E+03  0.1094E+03  0.4049E+03  0.4046E+03
     -1.847  0.7807E+02  0.7994E+02  0.4089E+03  0.4087E+03
     -1.795  0.7116E+02  0.7025E+02  0.4126E+03  0.4123E+03
     -1.743  0.1032E+03  0.1004E+03  0.4180E+03  0.4175E+03
     -1.691  0.9342E+02  0.9416E+02  0.4228E+03  0.4224E+03
     -1.640  0.7407E+02  0.7611E+02  0.4266E+03  0.4264E+03
     -1.588  0.9976E+02  0.9842E+02  0.4318E+03  0.4315E+03
     -1.536  0.7490E+02  0.7763E+02  0.4357E+03  0.4355E+03
     -1.484  0.7146E+02  0.7192E+02  0.4394E+03  0.4392E+03
     -1.433  0.4641E+02  0.4793E+02  0.4418E+03  0.4417E+03
     -1.381  0.5790E+02  0.5547E+02  0.4448E+03  0.4446E+03
     -1.329  0.7254E+02  0.7568E+02  0.4485E+03  0.4485E+03
     -1.277  0.4530E+02  0.4348E+02  0.4509E+03  0.4507E+03
     -1.225  0.6127E+02  0.6096E+02  0.4540E+03  0.4539E+03
     -1.174  0.4109E+02  0.4253E+02  0.4562E+03  0.4561E+03
     -1.122  0.5206E+02  0.4851E+02  0.4589E+03  0.4586E+03
     -1.070  0.5262E+02  0.5557E+02  0.4616E+03  0.4615E+03
     -1.018  0.6556E+02  0.6261E+02  0.4650E+03  0.4647E+03
     -0.966  0.3444E+02  0.3768E+02  0.4668E+03  0.4667E+03
     -0.915  0.3289E+02  0.3279E+02  0.4685E+03  0.4684E+03
     -0.863  0.7326E+02  0.7243E+02  0.4723E+03  0.4721E+03
     -0.811  0.7553E+02  0.7292E+02  0.4762E+03  0.4759E+03
     -0.759  0.4921E+02  0.5202E+02  0.4787E+03  0.4786E+03
     -0.708  0.4693E+02  0.4438E+02  0.4812E+03  0.4809E+03
     -0.656  0.8666E+02  0.8702E+02  0.4856E+03  0.4854E+03
     -0.604  0.2845E+02  0.3236E+02  0.4871E+03  0.4871E+03
     -0.552  0.3011E+02  0.2893E+02  0.4887E+03  0.4886E+03
     -0.500  0.1260E+02  0.1383E+02  0.4893E+03  0.4893E+03
     -0.449  0.3403E+02  0.3318E+02  0.4911E+03  0.4910E+03
     -0.397  0.4614E+02  0.4520E+02  0.4935E+03  0.4933E+03
     -0.345  0.4705E+02  0.4711E+02  0.4959E+03  0.4958E+03
     -0.293  0.9805E+02  0.9641E+02  0.5010E+03  0.5008E+03
     -0.241  0.5236E+02  0.5259E+02  0.5037E+03  0.5035E+03
     -0.190  0.8732E+02  0.8744E+02  0.5082E+03  0.5080E+03
     -0.138  0.9728E+02  0.9456E+02  0.5133E+03  0.5129E+03
     -0.086  0.1035E+03  0.1061E+03  0.5186E+03  0.5184E+03
     -0.034  0.1262E+03  0.1236E+03  0.5252E+03  0.5248E+03
      0.017  0.1095E+03  0.1126E+03  0.5308E+03  0.5307E+03
      0.069  0.1561E+03  0.1491E+03  0.5389E+03  0.5384E+03
      0.121  0.1558E+03  0.1598E+03  0.5470E+03  0.5466E+03
      0.173  0.6765E+02  0.6902E+02  0.5505E+03  0.5502E+03
      0.225  0.8141E+02  0.8130E+02  0.5547E+03  0.5544E+03
      0.276  0.9608E+02  0.9610E+02  0.5597E+03  0.5594E+03
      0.328  0.7770E+02  0.7997E+02  0.5637E+03  0.5636E+03
      0.380  0.8980E+02  0.8511E+02  0.5684E+03  0.5680E+03
      0.432  0.1022E+03  0.1055E+03  0.5736E+03  0.5734E+03
      0.484  0.7868E+02  0.8210E+02  0.5777E+03  0.5777E+03
      0.535  0.1074E+03  0.1004E+03  0.5833E+03  0.5829E+03
      0.587  0.1333E+03  0.1330E+03  0.5902E+03  0.5898E+03
      0.639  0.1426E+03  0.1417E+03  0.5976E+03  0.5971E+03
      0.691  0.1415E+03  0.1442E+03  0.6049E+03  0.6046E+03
      0.742  0.1243E+03  0.1253E+03  0.6113E+03  0.6111E+03
      0.794  0.1312E+03  0.1318E+03  0.6181E+03  0.6179E+03
      0.846  0.1086E+03  0.1086E+03  0.6238E+03  0.6235E+03
      0.898  0.8236E+02  0.8227E+02  0.6280E+03  0.6278E+03
      0.950  0.9593E+02  0.9430E+02  0.6330E+03  0.6326E+03
      1.001  0.1131E+03  0.1156E+03  0.6388E+03  0.6386E+03
      1.053  0.1592E+03  0.1530E+03  0.6471E+03  0.6465E+03
      1.105  0.1472E+03  0.1509E+03  0.6547E+03  0.6544E+03
      1.157  0.1503E+03  0.1500E+03  0.6625E+03  0.6621E+03
      1.208  0.1666E+03  0.1655E+03  0.6711E+03  0.6707E+03
      1.260  0.1827E+03  0.1837E+03  0.6806E+03  0.6802E+03
      1.312  0.1726E+03  0.1705E+03  0.6895E+03  0.6890E+03
      1.364  0.1960E+03  0.1979E+03  0.6997E+03  0.6993E+03
      1.416  0.1565E+03  0.1575E+03  0.7078E+03  0.7075E+03
      1.467  0.1405E+03  0.1390E+03  0.7151E+03  0.7147E+03
      1.519  0.2170E+03  0.2127E+03  0.7263E+03  0.7257E+03
      1.571  0.2012E+03  0.2016E+03  0.7367E+03  0.7361E+03
      1.623  0.1834E+03  0.1864E+03  0.7462E+03  0.7458E+03
      1.675  0.1592E+03  0.1579E+03  0.7545E+03  0.7539E+03
      1.726  0.1901E+03  0.1892E+03  0.7643E+03  0.7637E+03
      1.778  0.1786E+03  0.1802E+03  0.7736E+03  0.7731E+03
      1.830  0.1947E+03  0.1946E+03  0.7836E+03  0.7831E+03
      1.882  0.1620E+03  0.1622E+03  0.7920E+03  0.7915E+03
      1.933  0.1849E+03  0.1817E+03  0.8016E+03  0.8009E+03
      1.985  0.1914E+03  0.1958E+03  0.8115E+03  0.8111E+03
      2.037  0.1644E+03  0.1634E+03  0.8200E+03  0.8195E+03
      2.089  0.1900E+03  0.1880E+03  0.8299E+03  0.8293E+03
      2.141  0.1798E+03  0.1781E+03  0.8392E+03  0.8385E+03
      2.192  0.1884E+03  0.1910E+03  0.8489E+03  0.8484E+03
      2.244  0.1524E+03  0.1532E+03  0.8568E+03  0.8563E+03
      2.296  0.1810E+03  0.1800E+03  0.8662E+03  0.8656E+03
      2.348  0.1597E+03  0.1544E+03  0.8745E+03  0.8736E+03
      2.400  0.2073E+03  0.2117E+03  0.8852E+03  0.8846E+03
      2.451  0.1509E+03  0.1532E+03  0.8930E+03  0.8925E+03
      2.503  0.1442E+03  0.1440E+03  0.9005E+03  0.9000E+03
      2.555  0.1737E+03  0.1728E+03  0.9095E+03  0.9089E+03
      2.607  0.1398E+03  0.1395E+03  0.9167E+03  0.9162E+03
      2.658  0.1125E+03  0.1158E+03  0.9226E+03  0.9222E+03
      2.710  0.1494E+03  0.1451E+03  0.9303E+03  0.9297E+03
      2.762  0.1396E+03  0.1399E+03  0.9375E+03  0.9369E+03
      2.814  0.1380E+03  0.1376E+03  0.9447E+03  0.9440E+03
      2.866  0.1482E+03  0.1472E+03  0.9523E+03  0.9517E+03
      2.917  0.1337E+03  0.1351E+03  0.9593E+03  0.9587E+03
      2.969  0.1004E+03  0.1005E+03  0.9645E+03  0.9639E+03
      3.021  0.1456E+03  0.1459E+03  0.9720E+03  0.9714E+03
      3.073  0.1151E+03  0.1161E+03  0.9780E+03  0.9774E+03
      3.125  0.1241E+03  0.1200E+03  0.9844E+03  0.9837E+03
      3.176  0.1062E+03  0.1043E+03  0.9899E+03  0.9891E+03
      3.228  0.1272E+03  0.1309E+03  0.9965E+03  0.9958E+03
      3.280  0.9875E+02  0.9758E+02  0.1002E+04  0.1001E+04
      3.332  0.9790E+02  0.1040E+03  0.1007E+04  0.1006E+04
      3.383  0.7010E+02  0.7220E+02  0.1010E+04  0.1010E+04
      3.435  0.1041E+03  0.1010E+03  0.1016E+04  0.1015E+04
      3.487  0.6281E+02  0.6470E+02  0.1019E+04  0.1019E+04
      3.539  0.8837E+02  0.8599E+02  0.1024E+04  0.1023E+04
      3.591  0.8378E+02  0.8598E+02  0.1028E+04  0.1027E+04
      3.642  0.7380E+02  0.7751E+02  0.1032E+04  0.1032E+04
      3.694  0.4213E+02  0.3421E+02  0.1034E+04  0.1033E+04
      3.746  0.6732E+02  0.6633E+02  0.1037E+04  0.1037E+04
      3.798  0.4754E+02  0.5395E+02  0.1040E+04  0.1040E+04
      3.850  0.4899E+02  0.4773E+02  0.1042E+04  0.1042E+04
      3.901  0.4047E+02  0.4071E+02  0.1044E+04  0.1044E+04
      3.953  0.6013E+02  0.4882E+02  0.1048E+04  0.1047E+04
      4.005  0.6398E+02  0.7475E+02  0.1051E+04  0.1050E+04
      4.057  0.8312E+02  0.7315E+02  0.1055E+04  0.1054E+04
      4.108  0.1008E+03  0.1075E+03  0.1060E+04  0.1060E+04
      4.160  0.9933E+02  0.9111E+02  0.1066E+04  0.1065E+04
      4.212  0.1131E+03  0.1114E+03  0.1071E+04  0.1070E+04
      4.264  0.1072E+03  0.1080E+03  0.1077E+04  0.1076E+04
      4.316  0.7240E+02  0.7031E+02  0.1081E+04  0.1080E+04
      4.367  0.1191E+03  0.1251E+03  0.1087E+04  0.1086E+04
      4.419  0.9884E+02  0.9743E+02  0.1092E+04  0.1091E+04
      4.471  0.1333E+03  0.1395E+03  0.1099E+04  0.1098E+04
      4.523  0.1125E+03  0.1065E+03  0.1105E+04  0.1104E+04
      4.574  0.1033E+03  0.1018E+03  0.1110E+04  0.1109E+04
      4.626  0.1065E+03  0.1141E+03  0.1116E+04  0.1115E+04
      4.678  0.1061E+03  0.9989E+02  0.1121E+04  0.1120E+04
      4.730  0.1331E+03  0.1345E+03  0.1128E+04  0.1127E+04
      4.782  0.1173E+03  0.1157E+03  0.1134E+04  0.1133E+04
      4.833  0.1465E+03  0.1507E+03  0.1142E+04  0.1141E+04
      4.885  0.1017E+03  0.1030E+03  0.1147E+04  0.1146E+04
      4.937  0.1080E+03  0.1081E+03  0.1152E+04  0.1152E+04
      4.989  0.1164E+03  0.1154E+03  0.1158E+04  0.1158E+04
      5.041  0.9577E+02  0.9825E+02  0.1163E+04  0.1163E+04
      5.092  0.1519E+03  0.1491E+03  0.1171E+04  0.1171E+04
      5.144  0.1137E+03  0.1158E+03  0.1177E+04  0.1177E+04
      5.196  0.8706E+02  0.8720E+02  0.1182E+04  0.1181E+04
      5.248  0.9645E+02  0.9661E+02  0.1187E+04  0.1186E+04
      5.299  0.1037E+03  0.1053E+03  0.1192E+04  0.1192E+04
      5.351  0.1266E+03  0.1259E+03  0.1199E+04  0.1198E+04
      5.403  0.1339E+03  0.1307E+03  0.1206E+04  0.1205E+04
      5.455  0.1529E+03  0.1564E+03  0.1213E+04  0.1213E+04
      5.507  0.1343E+03  0.1324E+03  0.1220E+04  0.1220E+04
      5.558  0.1476E+03  0.1427E+03  0.1228E+04  0.1227E+04
      5.610  0.1423E+03  0.1488E+03  0.1235E+04  0.1235E+04
      5.662  0.1271E+03  0.1290E+03  0.1242E+04  0.1242E+04
      5.714  0.1132E+03  0.1119E+03  0.1248E+04  0.1247E+04
      5.766  0.1335E+03  0.1324E+03  0.1255E+04  0.1254E+04
      5.817  0.1271E+03  0.1256E+03  0.1261E+04  0.1261E+04
      5.869  0.1252E+03  0.1276E+03  0.1268E+04  0.1267E+04
      5.921  0.6916E+02  0.7239E+02  0.1271E+04  0.1271E+04
      5.973  0.1043E+02  0.1630E+02  0.1272E+04  0.1272E+04
      6.024  0.0000E+00  0.0000E+00  0.1272E+04  0.1272E+04
      6.076  0.0000E+00  0.0000E+00  0.1272E+04  0.1272E+04
      6.128  0.0000E+00  0.0000E+00  0.1272E+04  0.1272E+04
      6.180  0.0000E+00  0.0000E+00  0.1272E+04  0.1272E+04
      6.232  0.0000E+00  0.0000E+00  0.1272E+04  0.1272E+04
      6.283  0.0000E+00  0.0000E+00  0.1272E+04  0.1272E+04
      6.335  0.0000E+00  0.0000E+00  0.1272E+04  0.1272E+04
      6.387  0.0000E+00  0.0000E+00  0.1272E+04  0.1272E+04
      6.439  0.0000E+00  0.0000E+00  0.1272E+04  0.1272E+04
      6.491  0.0000E+00  0.0000E+00  0.1272E+04  0.1272E+04
      6.542  0.0000E+00  0.0000E+00  0.1272E+04  0.1272E+04
      6.594  0.0000E+00  0.0000E+00  0.1272E+04  0.1272E+04
      6.646  0.0000E+00  0.0000E+00  0.1272E+04  0.1272E+04
