 vasp.6.4.3 19Mar24 (build Oct 22 2024 11:23:12) complex                        
  
 executed on             LinuxIFC date 2025.06.08  20:17:39
 running   64 mpi-ranks, on    4 nodes
 distrk:  each k-point on   64 cores,    1 groups
 distr:  one band on NCORE=  16 cores,    4 groups


--------------------------------------------------------------------------------------------------------


 INCAR:
   SYSTEM = Si and Ge interface calculation
   ISTART = 0
   ICHARG = 2
   LWAVE = .FALSE.
   LREAL = AUTO
   ENCUT = 700
   ENAUG = 900
   ADDGRID = .TRUE.
   LMAXMIX = 6
   LASPH = .TRUE.
   LMIXTAU = .TRUE.
   NCORE = 16
   NELM = 100
   NBANDS = 404
   EDIFF = 1d-7
   AMIX = 0.6
   ISMEAR = 0
   SIGMA = 0.01
   NELECT = 672
   ISPIN = 2
   NUPDOWN = 1
   LVTOT = .FALSE.
   LVHAR = .TRUE.

 POTCAR:    PAW_PBE Ge 05Jan2001                  
 POTCAR:    PAW_PBE Sn 08Apr2002                  
 -----------------------------------------------------------------------------
|                                                                             |
|           W    W    AA    RRRRR   N    N  II  N    N   GGGG   !!!           |
|           W    W   A  A   R    R  NN   N  II  NN   N  G    G  !!!           |
|           W    W  A    A  R    R  N N  N  II  N N  N  G       !!!           |
|           W WW W  AAAAAA  RRRRR   N  N N  II  N  N N  G  GGG   !            |
|           WW  WW  A    A  R   R   N   NN  II  N   NN  G    G                |
|           W    W  A    A  R    R  N    N  II  N    N   GGGG   !!!           |
|                                                                             |
|     You use a magnetic or noncollinear calculation, but did not specify     |
|     the initial magnetic moment with the MAGMOM tag. Note that a            |
|     default of 5.952e-3 will be used for all atoms. This ferromagnetic      |
|     setup may break the symmetry of the crystal, in particular it may       |
|     rule out finding an antiferromagnetic solution. Thence, we              |
|     recommend setting the initial magnetic moment manually or verifying     |
|     carefully that this magnetic setup is desired.                          |
|                                                                             |
 -----------------------------------------------------------------------------

 POTCAR:    PAW_PBE Ge 05Jan2001                  
   VRHFIN =Ge: s2p2                                                                                 
   LEXCH  = PE                                                                                      
   EATOM  =   104.9960 eV,    7.7170 Ry                                                             
                                                                                                    
   TITEL  = PAW_PBE Ge 05Jan2001                                                                    
   LULTRA =        F    use ultrasoft PP ?                                                          
   IUNSCR =        1    unscreen: 0-lin 1-nonlin 2-no                                               
   RPACOR =    2.170    partial core radius                                                         
   POMASS =   72.610; ZVAL   =    4.000    mass and valenz                                          
   RCORE  =    2.300    outmost cutoff radius                                                       
   RWIGS  =    2.300; RWIGS  =    1.217    wigner-seitz radius (au A)                               
   ENMAX  =  173.807; ENMIN  =  130.355 eV                                                          
   ICORE  =        3    local potential                                                             
   LCOR   =        T    correct aug charges                                                         
   LPAW   =        T    paw PP                                                                      
   EAUG   =  385.843                                                                                
   DEXC   =    0.000                                                                                
   RMAX   =    2.342    core radius for proj-oper                                                   
   RAUG   =    1.300    factor for augmentation sphere                                              
   RDEP   =    2.318    radius for radial grids                                                     
   RDEPT  =    2.103    core radius for aug-charge                                                  
                                                                                                    
   Atomic configuration                                                                             
   10 entries                                                                                       
     n  l   j            E        occ.                                                              
     1  0  0.50    -10959.8463   2.0000                                                             
     2  0  0.50     -1371.6056   2.0000                                                             
     2  1  1.50     -1198.4791   6.0000                                                             
     3  0  0.50      -168.4733   2.0000                                                             
     3  1  1.50      -115.6019   6.0000                                                             
     3  2  2.50       -29.3106  10.0000                                                             
     4  0  0.50       -11.7309   2.0000                                                             
     4  1  0.50        -3.8952   2.0000                                                             
     4  2  1.50        -4.0817   0.0000                                                             
     4  3  2.50        -4.0817   0.0000                                                             
   Description                                                                                      
     l       E           TYP  RCUT    TYP  RCUT                                                     
     0    -11.7309493     23  2.300                                                                 
     0     -7.4578696     23  2.300                                                                 
     1     -3.8952261     23  2.300                                                                 
     1      6.1178114     23  2.300                                                                 
     2     -4.0817478     23  2.300                                                                 
     3     -1.3605826      7  2.300                                                                 
  local pseudopotential read in
  partial core-charges read in
  partial kinetic energy density read in
  atomic valenz-charges read in
  non local Contribution for L=           0  read in
    real space projection operators read in
  non local Contribution for L=           0  read in
    real space projection operators read in
  non local Contribution for L=           1  read in
    real space projection operators read in
  non local Contribution for L=           1  read in
    real space projection operators read in
  non local Contribution for L=           2  read in
    real space projection operators read in
    PAW grid and wavefunctions read in
 
   number of l-projection  operators is LMAX  =           5
   number of lm-projection operators is LMMAX =          13
 
 POTCAR:    PAW_PBE Sn 08Apr2002                  
   VRHFIN =Sn: s2p2                                                                                 
   LEXCH  = PE                                                                                      
   EATOM  =    94.0860 eV,    6.9151 Ry                                                             
                                                                                                    
   TITEL  = PAW_PBE Sn 08Apr2002                                                                    
   LULTRA =        F    use ultrasoft PP ?                                                          
   IUNSCR =        1    unscreen: 0-lin 1-nonlin 2-no                                               
   RPACOR =    2.000    partial core radius                                                         
   POMASS =  118.710; ZVAL   =    4.000    mass and valenz                                          
   RCORE  =    3.000    outmost cutoff radius                                                       
   RWIGS  =    2.960; RWIGS  =    1.566    wigner-seitz radius (au A)                               
   ENMAX  =  103.236; ENMIN  =   77.427 eV                                                          
   ICORE  =        3    local potential                                                             
   LCOR   =        T    correct aug charges                                                         
   LPAW   =        T    paw PP                                                                      
   EAUG   =  263.585                                                                                
   DEXC   =    0.000                                                                                
   RMAX   =    3.078    core radius for proj-oper                                                   
   RAUG   =    1.300    factor for augmentation sphere                                              
   RDEP   =    3.022    radius for radial grids                                                     
   RDEPT  =    2.655    core radius for aug-charge                                                  
                                                                                                    
   Atomic configuration                                                                             
   13 entries                                                                                       
     n  l   j            E        occ.                                                              
     1  0  0.50    -29007.2859   2.0000                                                             
     2  0  0.50     -4378.8056   2.0000                                                             
     2  1  1.50     -3930.4293   6.0000                                                             
     3  0  0.50      -845.0264   2.0000                                                             
     3  1  1.50      -698.5725   6.0000                                                             
     3  2  2.50      -473.2839  10.0000                                                             
     4  0  0.50      -133.9036   2.0000                                                             
     4  1  1.50       -89.6752   6.0000                                                             
     4  2  2.50       -25.8375  10.0000                                                             
     5  0  0.50       -10.5484   2.0000                                                             
     5  1  0.50        -3.6940   2.0000                                                             
     5  2  1.50        -1.3606   0.0000                                                             
     4  3  2.50        -4.0817   0.0000                                                             
   Description                                                                                      
     l       E           TYP  RCUT    TYP  RCUT                                                     
     0    -10.5483727     23  3.000                                                                 
     0     27.2116520     23  3.000                                                                 
     1     -3.6939829     23  3.000                                                                 
     1      1.9821976     23  3.000                                                                 
     2     -1.3605826     23  3.000                                                                 
     3     -2.7211652     23  3.000                                                                 
  local pseudopotential read in
  partial core-charges read in
  partial kinetic energy density read in
  atomic valenz-charges read in
  non local Contribution for L=           0  read in
    real space projection operators read in
  non local Contribution for L=           0  read in
    real space projection operators read in
  non local Contribution for L=           1  read in
    real space projection operators read in
  non local Contribution for L=           1  read in
    real space projection operators read in
  non local Contribution for L=           2  read in
    real space projection operators read in
    PAW grid and wavefunctions read in
 
   number of l-projection  operators is LMAX  =           5
   number of lm-projection operators is LMMAX =          13
 
 Optimization of the real space projectors (new method)

 maximal supplied QI-value         = 16.25
 optimisation between [QCUT,QGAM] = [ 13.49, 26.98] = [ 50.95,203.80] Ry 
 Optimized for a Real-space Cutoff    1.25 Angstroem

   l    n(q)    QCUT    max X(q) W(low)/X(q) W(high)/X(q)  e(spline) 
   0     10    13.489    65.336    0.91E-04    0.11E-03    0.34E-06
   0     10    13.489    52.220    0.89E-04    0.11E-03    0.34E-06
   1     10    13.489    36.409    0.22E-03    0.27E-03    0.14E-06
   1     10    13.489    21.334    0.21E-03    0.27E-03    0.14E-06
   2      9    13.489     4.673    0.11E-03    0.12E-03    0.19E-06
 Optimization of the real space projectors (new method)

 maximal supplied QI-value         = 12.47
 optimisation between [QCUT,QGAM] = [ 12.47, 27.06] = [ 43.56,205.12] Ry 
 Optimized for a Real-space Cutoff    1.58 Angstroem

   l    n(q)    QCUT    max X(q) W(low)/X(q) W(high)/X(q)  e(spline) 
   0     13    12.472    14.688    0.45E-04    0.45E-04    0.25E-05
   0     13    12.472     7.308    0.94E-04    0.11E-03    0.61E-05
   1     12    12.472    45.102    0.34E-03    0.14E-03    0.21E-05
   1     12    12.472    30.691    0.31E-03    0.13E-03    0.20E-05
   2     12    12.472     7.156    0.86E-04    0.11E-03    0.17E-05
 WARNING: PSMAXN for non-local potential too small
          PSMAXN should be >   13.5545592237991       NTYP=           2
  PAW_PBE Ge 05Jan2001                  :
 energy of atom  1       EATOM= -104.9960
 kinetic energy error for atom=    0.0001 (will be added to EATOM!!)
  PAW_PBE Sn 08Apr2002                  :
 energy of atom  2       EATOM=  -94.0860
 kinetic energy error for atom=    0.0000 (will be added to EATOM!!)
 
 
 POSCAR: Ge+Sn
  positions in direct lattice
  No initial velocities read in


 exchange-correlation table for PE
   RHO(1)=    0.500       N(1)  =     2000
   RHO(2)=  100.500       N(2)  =     4000
 


--------------------------------------------------------------------------------------------------------


 ion  position               nearest neighbor table
   1  0.969  0.479  0.000- 168 2.17  67 2.45  86 2.45  79 2.45
   2  0.594  0.229  0.078-  67 2.45  68 2.45  80 2.45  87 2.45
   3  0.219  0.979  0.155-  69 2.45  81 2.45  88 2.45  68 2.45
   4  0.844  0.729  0.233-  69 2.45  89 2.45  82 2.45  70 2.45
   5  0.469  0.479  0.310-  90 2.45  70 2.45  83 2.45  71 2.45
   6  0.094  0.229  0.388-  71 2.45  72 2.45  84 2.45 109 2.82
   7  0.969  0.979  0.000-  73 2.45  61 2.45  92 2.45
   8  0.594  0.729  0.078-  74 2.45  93 2.45  62 2.45  61 2.45
   9  0.219  0.479  0.155-  75 2.45  63 2.45  94 2.45  62 2.45
  10  0.844  0.229  0.233-  76 2.45  95 2.45  64 2.45  63 2.45
  11  0.469  0.979  0.310-  96 2.45  64 2.45  65 2.45  77 2.45
  12  0.094  0.729  0.388-  78 2.45  65 2.45  66 2.45 157 2.52 103 2.98
  13  0.469  0.479  0.000- 150 2.17  91 2.45  74 2.45  55 2.45
  14  0.094  0.229  0.078-  55 2.45  92 2.45  56 2.45  75 2.45
  15  0.719  0.979  0.155-  57 2.45  93 2.45  56 2.45  76 2.45
  16  0.344  0.729  0.233-  94 2.45  57 2.45  77 2.45  58 2.45
  17  0.969  0.479  0.310-  58 2.45  95 2.45  78 2.45  59 2.45
  18  0.594  0.229  0.388-  59 2.45  60 2.45  96 2.45 127 2.82
  19  0.469  0.979  0.000-  85 2.45  49 2.45  80 2.45
  20  0.094  0.729  0.078-  86 2.45  81 2.45  50 2.45  49 2.45
  21  0.719  0.479  0.155-  51 2.45  87 2.45  82 2.45  50 2.45
  22  0.344  0.229  0.233-  83 2.45  52 2.45  88 2.45  51 2.45
  23  0.969  0.979  0.310-  84 2.45  52 2.45  53 2.45  89 2.45
  24  0.594  0.729  0.388-  53 2.45  54 2.45  90 2.45 139 2.52 121 2.98
  25  0.219  0.479  0.000-  62 2.45  79 2.45  55 2.45 126 2.63
  26  0.844  0.229  0.078-  63 2.45  80 2.45  56 2.45  79 2.45
  27  0.469  0.979  0.155-  57 2.45  81 2.45  80 2.45  64 2.45
  28  0.094  0.729  0.233-  58 2.45  81 2.45  82 2.45  65 2.45
  29  0.719  0.479  0.310-  66 2.45  82 2.45  59 2.45  83 2.45
  30  0.344  0.229  0.388- 151 2.40  84 2.45  60 2.45  83 2.45 127 3.08
  31  0.219  0.979  0.000-  49 2.45  68 2.45  73 2.45 120 2.80 162 3.08 138 3.26
  32  0.844  0.729  0.078-  50 2.45  69 2.45  73 2.45  74 2.45
  33  0.469  0.479  0.155-  51 2.45  74 2.45  75 2.45  70 2.45
  34  0.094  0.229  0.233-  71 2.45  52 2.45  75 2.45  76 2.45
  35  0.719  0.979  0.310-  72 2.45  76 2.45  77 2.45  53 2.45
  36  0.344  0.729  0.388-  54 2.45  77 2.45  78 2.45 115 2.92
  37  0.719  0.479  0.000-  91 2.45  50 2.45  67 2.45 108 2.63
  38  0.344  0.229  0.078-  68 2.45  91 2.45  51 2.45  92 2.45
  39  0.969  0.979  0.155-  69 2.45  93 2.45  92 2.45  52 2.45
  40  0.594  0.729  0.233-  53 2.45  70 2.45  94 2.45  93 2.45
  41  0.219  0.479  0.310-  94 2.45  54 2.45  95 2.45  71 2.45
  42  0.844  0.229  0.388- 133 2.40  95 2.45  96 2.45  72 2.45 109 3.08
  43  0.719  0.979  0.000-  85 2.45  56 2.45  61 2.45 102 2.80 144 3.08 156 3.26
  44  0.344  0.729  0.078-  57 2.45  62 2.45  86 2.45  85 2.45
  45  0.969  0.479  0.155-  63 2.45  87 2.45  58 2.45  86 2.45
  46  0.594  0.229  0.233-  64 2.45  88 2.45  59 2.45  87 2.45
  47  0.219  0.979  0.310-  60 2.45  88 2.45  65 2.45  89 2.45
  48  0.844  0.729  0.388-  90 2.45  66 2.45  89 2.45  97 2.92
  49  0.219  0.854  0.000- 120 2.27  31 2.45  19 2.45  20 2.45
  50  0.844  0.604  0.078-  37 2.45  32 2.45  20 2.45  21 2.45
  51  0.469  0.354  0.155-  21 2.45  33 2.45  22 2.45  38 2.45
  52  0.094  0.104  0.233-  23 2.45  22 2.45  34 2.45  39 2.45
  53  0.719  0.854  0.310-  40 2.45  23 2.45  24 2.45  35 2.45
  54  0.344  0.604  0.388-  36 2.45  41 2.45  24 2.45 163 2.58
  55  0.219  0.354  0.000-  14 2.45  25 2.45  13 2.45 156 3.22
  56  0.844  0.104  0.078-  43 2.45  14 2.45  26 2.45  15 2.45
  57  0.469  0.854  0.155-  44 2.45  16 2.45  27 2.45  15 2.45
  58  0.094  0.604  0.233-  17 2.45  28 2.45  45 2.45  16 2.45
  59  0.719  0.354  0.310-  29 2.45  46 2.45  18 2.45  17 2.45
  60  0.344  0.104  0.388-  47 2.45  30 2.45  18 2.45 127 2.60 151 3.33
  61  0.719  0.854  0.000- 102 2.27   7 2.45  43 2.45   8 2.45
  62  0.344  0.604  0.078-  44 2.45  25 2.45   8 2.45   9 2.45
  63  0.969  0.354  0.155-  45 2.45  26 2.45   9 2.45  10 2.45
  64  0.594  0.104  0.233-  11 2.45  46 2.45  10 2.45  27 2.45
  65  0.219  0.854  0.310-  11 2.45  28 2.45  12 2.45  47 2.45
  66  0.844  0.604  0.388-  48 2.45  29 2.45  12 2.45 145 2.58
  67  0.719  0.354  0.000-   1 2.45   2 2.45  37 2.45 138 3.22
  68  0.344  0.104  0.078-  38 2.45   2 2.45  31 2.45   3 2.45
  69  0.969  0.854  0.155-   4 2.45   3 2.45  39 2.45  32 2.45
  70  0.594  0.604  0.233-   5 2.45   4 2.45  40 2.45  33 2.45
  71  0.219  0.354  0.310-  34 2.45   6 2.45   5 2.45  41 2.45
  72  0.844  0.104  0.388-  35 2.45  42 2.45   6 2.45 109 2.60 133 3.33
  73  0.969  0.854  0.000- 162 2.37   7 2.45  31 2.45  32 2.45
  74  0.594  0.604  0.078-   8 2.45  13 2.45  33 2.45  32 2.45
  75  0.219  0.354  0.155-   9 2.45  34 2.45  14 2.45  33 2.45
  76  0.844  0.104  0.233-  10 2.45  35 2.45  15 2.45  34 2.45
  77  0.469  0.854  0.310-  36 2.45  35 2.45  16 2.45  11 2.45
  78  0.094  0.604  0.388-  12 2.45  36 2.45  17 2.45 103 2.49
  79  0.969  0.354  0.000-  25 2.45  26 2.45   1 2.45 114 3.15 168 3.17 126 3.32
  80  0.594  0.104  0.078-  26 2.45  19 2.45   2 2.45  27 2.45
  81  0.219  0.854  0.155-  28 2.45  27 2.45   3 2.45  20 2.45
  82  0.844  0.604  0.233-  29 2.45  28 2.45   4 2.45  21 2.45
  83  0.469  0.354  0.310-  22 2.45   5 2.45  30 2.45  29 2.45
  84  0.094  0.104  0.388-  23 2.45  30 2.45   6 2.45 151 2.69
  85  0.469  0.854  0.000- 144 2.37  43 2.45  19 2.45  44 2.45
  86  0.094  0.604  0.078-  20 2.45   1 2.45  44 2.45  45 2.45
  87  0.719  0.354  0.155-  21 2.45  45 2.45  46 2.45   2 2.45
  88  0.344  0.104  0.233-  46 2.45  47 2.45  22 2.45   3 2.45
  89  0.969  0.854  0.310-   4 2.45  47 2.45  48 2.45  23 2.45
  90  0.594  0.604  0.388-  48 2.45   5 2.45  24 2.45 121 2.49
  91  0.469  0.354  0.000-  37 2.45  38 2.45  13 2.45 132 3.15 150 3.17 108 3.32
  92  0.094  0.104  0.078-   7 2.45  14 2.45  38 2.45  39 2.45
  93  0.719  0.854  0.155-   8 2.45  15 2.45  39 2.45  40 2.45
  94  0.344  0.604  0.233-  16 2.45  41 2.45  40 2.45   9 2.45
  95  0.969  0.354  0.310-  42 2.45  17 2.45  10 2.45  41 2.45
  96  0.594  0.104  0.388-  11 2.45  42 2.45  18 2.45 133 2.69
  97  0.982  0.897  0.472- 158 2.82 139 2.83 151 2.83  48 2.92
  98  0.732  0.897  0.560- 139 2.82 159 2.82 140 2.83 152 2.83
  99  0.482  0.897  0.649- 140 2.82 160 2.82 141 2.83 153 2.83
 100  0.232  0.897  0.738- 141 2.82 161 2.82 142 2.83 154 2.83
 101  0.982  0.897  0.827- 142 2.82 162 2.82 155 2.83 143 2.83
 102  0.732  0.897  0.916-  61 2.27  43 2.80 143 2.82 144 2.83 156 2.83
 103  0.982  0.564  0.472-  78 2.49 164 2.82 145 2.83 157 2.83  12 2.98
 104  0.732  0.564  0.560- 145 2.82 165 2.82 146 2.83 158 2.83
 105  0.482  0.564  0.649- 146 2.82 166 2.82 147 2.83 159 2.83
 106  0.232  0.564  0.738- 147 2.82 167 2.82 160 2.83 148 2.83
 107  0.982  0.564  0.827- 148 2.82 168 2.82 161 2.83 149 2.83
 108  0.732  0.564  0.916-  37 2.63 149 2.82 150 2.83 162 2.83  91 3.32
 109  0.982  0.231  0.472-  72 2.60 152 2.82   6 2.82 163 2.83 133 2.83  42 3.08
 110  0.732  0.231  0.560- 133 2.82 153 2.82 164 2.83 134 2.83
 111  0.482  0.231  0.649- 154 2.82 134 2.82 165 2.83 135 2.83
 112  0.232  0.231  0.738- 135 2.82 155 2.82 166 2.83 136 2.83
 113  0.982  0.231  0.827- 156 2.82 136 2.82 137 2.83 167 2.83
 114  0.732  0.231  0.916- 137 2.82 168 2.83 138 2.83  79 3.15
 115  0.482  0.897  0.472- 140 2.82 157 2.83 133 2.83  36 2.92
 116  0.232  0.897  0.560- 157 2.82 141 2.82 158 2.83 134 2.83
 117  0.982  0.897  0.649- 158 2.82 142 2.82 159 2.83 135 2.83
 118  0.732  0.897  0.738- 159 2.82 143 2.82 136 2.83 160 2.83
 119  0.482  0.897  0.827- 160 2.82 144 2.82 161 2.83 137 2.83
 120  0.232  0.897  0.916-  49 2.27  31 2.80 161 2.82 138 2.83 162 2.83
 121  0.482  0.564  0.472-  90 2.49 146 2.82 139 2.83 163 2.83  24 2.98
 122  0.232  0.564  0.560- 163 2.82 147 2.82 164 2.83 140 2.83
 123  0.982  0.564  0.649- 164 2.82 148 2.82 141 2.83 165 2.83
 124  0.732  0.564  0.738- 165 2.82 149 2.82 142 2.83 166 2.83
 125  0.482  0.564  0.827- 166 2.82 150 2.82 143 2.83 167 2.83
 126  0.232  0.564  0.916-  25 2.63 167 2.82 144 2.83 168 2.83  79 3.32
 127  0.482  0.231  0.472-  60 2.60 134 2.82  18 2.82 145 2.83 151 2.83  30 3.08
 128  0.232  0.231  0.560- 151 2.82 135 2.82 146 2.83 152 2.83
 129  0.982  0.231  0.649- 152 2.82 136 2.82 147 2.83 153 2.83
 130  0.732  0.231  0.738- 153 2.82 137 2.82 148 2.83 154 2.83
 131  0.482  0.231  0.827- 154 2.82 138 2.82 149 2.83 155 2.83
 132  0.232  0.231  0.916- 155 2.82 150 2.83 156 2.83  91 3.15
 133  0.732  0.147  0.472-  42 2.40  96 2.69 110 2.82 109 2.83 115 2.83  72 3.33
 134  0.482  0.147  0.560- 111 2.82 127 2.82 116 2.83 110 2.83
 135  0.232  0.147  0.649- 112 2.82 128 2.82 117 2.83 111 2.83
 136  0.982  0.147  0.738- 113 2.82 129 2.82 118 2.83 112 2.83
 137  0.732  0.147  0.827- 114 2.82 130 2.82 113 2.83 119 2.83
 138  0.482  0.147  0.916- 131 2.82 120 2.83 114 2.83  67 3.22  31 3.26
 139  0.732  0.814  0.472-  24 2.52  98 2.82 121 2.83  97 2.83
 140  0.482  0.814  0.560-  99 2.82 115 2.82  98 2.83 122 2.83
 141  0.232  0.814  0.649- 100 2.82 116 2.82  99 2.83 123 2.83
 142  0.982  0.814  0.738- 117 2.82 101 2.82 100 2.83 124 2.83
 143  0.732  0.814  0.827- 102 2.82 118 2.82 125 2.83 101 2.83
 144  0.482  0.814  0.916-  85 2.37 119 2.82 102 2.83 126 2.83  43 3.08
 145  0.732  0.481  0.472-  66 2.58 104 2.82 127 2.83 103 2.83
 146  0.482  0.481  0.560- 105 2.82 121 2.82 104 2.83 128 2.83
 147  0.232  0.481  0.649- 106 2.82 122 2.82 129 2.83 105 2.83
 148  0.982  0.481  0.738- 123 2.82 107 2.82 130 2.83 106 2.83
 149  0.732  0.481  0.827- 108 2.82 124 2.82 131 2.83 107 2.83
 150  0.482  0.481  0.916-  13 2.17 125 2.82 132 2.83 108 2.83  91 3.17
 151  0.232  0.147  0.472-  30 2.40  84 2.69 128 2.82 127 2.83  97 2.83  60 3.33
 152  0.982  0.147  0.560- 129 2.82 109 2.82  98 2.83 128 2.83
 153  0.732  0.147  0.649- 130 2.82 110 2.82 129 2.83  99 2.83
 154  0.482  0.147  0.738- 111 2.82 131 2.82 100 2.83 130 2.83
 155  0.232  0.147  0.827- 132 2.82 112 2.82 101 2.83 131 2.83
 156  0.982  0.147  0.916- 113 2.82 102 2.83 132 2.83  55 3.22  43 3.26
 157  0.232  0.814  0.472-  12 2.52 116 2.82 103 2.83 115 2.83
 158  0.982  0.814  0.560- 117 2.82  97 2.82 116 2.83 104 2.83
 159  0.732  0.814  0.649- 118 2.82  98 2.82 117 2.83 105 2.83
 160  0.482  0.814  0.738- 119 2.82  99 2.82 106 2.83 118 2.83
 161  0.232  0.814  0.827- 120 2.82 100 2.82 107 2.83 119 2.83
 162  0.982  0.814  0.916-  73 2.37 101 2.82 108 2.83 120 2.83  31 3.08
 163  0.232  0.481  0.472-  54 2.58 122 2.82 121 2.83 109 2.83
 164  0.982  0.481  0.560- 123 2.82 103 2.82 122 2.83 110 2.83
 165  0.732  0.481  0.649- 124 2.82 104 2.82 123 2.83 111 2.83
 166  0.482  0.481  0.738- 105 2.82 125 2.82 112 2.83 124 2.83
 167  0.232  0.481  0.827- 126 2.82 106 2.82 125 2.83 113 2.83
 168  0.982  0.481  0.916-   1 2.17 107 2.82 126 2.83 114 2.83  79 3.17
 
  LATTYP: Found a simple orthorhombic cell.
 ALAT       =    11.3156013490
 B/A-ratio  =     1.4142134842
 C/A-ratio  =     2.2801207693
  
  Lattice vectors:
  
 A1 = (   0.0000000000,  11.3156013490,   0.0000000000)
 A2 = ( -16.0026760100,   0.0000000000,   0.0000000000)
 A3 = (   0.0000000000,   0.0000000000,  25.8009376530)


Analysis of symmetry for initial positions (statically):
=====================================================================
 Subroutine PRICEL returns following result:
 
  LATTYP: Found a simple orthorhombic cell.
 ALAT       =     8.0013380050
 B/A-ratio  =     1.4142136405
 C/A-ratio  =     3.2245778940
  
  Lattice vectors:
  
 A1 = (   8.0013380050,   0.0000000000,   0.0000000000)
 A2 = (   0.0000000000,  11.3156013490,   0.0000000000)
 A3 = (   0.0000000000,   0.0000000000,  25.8009376530)
 
   2 primitive cells build up your supercell.
 

 Routine SETGRP: Setting up the symmetry group for a 
 simple orthorhombic supercell.


 Subroutine GETGRP returns: Found  1 space group operations
 (whereof  1 operations were pure point group operations)
 out of a pool of  8 trial point group operations.


The static configuration has the point symmetry C_1 .


Analysis of symmetry for dynamics (positions and initial velocities):
=====================================================================
 Subroutine PRICEL returns following result:
 
  LATTYP: Found a simple orthorhombic cell.
 ALAT       =     8.0013380050
 B/A-ratio  =     1.4142136405
 C/A-ratio  =     3.2245778940
  
  Lattice vectors:
  
 A1 = (   8.0013380050,   0.0000000000,   0.0000000000)
 A2 = (   0.0000000000,  11.3156013490,   0.0000000000)
 A3 = (   0.0000000000,   0.0000000000,  25.8009376530)
 
   2 primitive cells build up your supercell.
 

 Routine SETGRP: Setting up the symmetry group for a 
 simple orthorhombic supercell.


 Subroutine GETGRP returns: Found  1 space group operations
 (whereof  1 operations were pure point group operations)
 out of a pool of  8 trial point group operations.


The dynamic configuration has the point symmetry C_1 .


Analysis of structural, dynamic, and magnetic symmetry:
=====================================================================
 Subroutine PRICEL returns following result:
 
  LATTYP: Found a simple orthorhombic cell.
 ALAT       =     8.0013380050
 B/A-ratio  =     1.4142136405
 C/A-ratio  =     3.2245778940
  
  Lattice vectors:
  
 A1 = (   8.0013380050,   0.0000000000,   0.0000000000)
 A2 = (   0.0000000000,  11.3156013490,   0.0000000000)
 A3 = (   0.0000000000,   0.0000000000,  25.8009376530)
 
   2 primitive cells build up your supercell.
 

 Routine SETGRP: Setting up the symmetry group for a 
 simple orthorhombic supercell.


 Subroutine GETGRP returns: Found  1 space group operations
 (whereof  1 operations were pure point group operations)
 out of a pool of  8 trial point group operations.


The overall configuration has the point symmetry C_1 .


 Subroutine INISYM returns: Found  1 space group operations
 (whereof  1 operations are pure point group operations),
 and found     2 'primitive' translations


----------------------------------------------------------------------------------------

                                     Primitive cell                                     

  volume of cell :    2336.0156

  direct lattice vectors                    reciprocal lattice vectors
     8.001338005  0.000000000  0.000000000     0.124979097  0.000000000  0.000000000
     0.000000000 11.315601349  0.000000000     0.000000000  0.088373562  0.000000000
     0.000000000  0.000000000 25.800937653     0.000000000  0.000000000  0.038758281

  length of vectors
     8.001338005 11.315601349 25.800937653     0.124979097  0.088373562  0.038758281

  position of ions in fractional coordinates (direct lattice)
     0.979378402  0.479378492  0.000000007
     0.729378462  0.229378477  0.077529542
     0.479378462  0.979378402  0.155059099
     0.229378462  0.729378462  0.232588619
     0.979378582  0.479378521  0.310118109
     0.729378462  0.229378462  0.387647659
     0.979378462  0.979378462  0.000000011
     0.729378476  0.729378462  0.077529535
     0.479378462  0.479378402  0.155059084
     0.229378462  0.229378462  0.232588619
     0.979378462  0.979378581  0.310118139
     0.729378462  0.729378462  0.387647659
     0.479378402  0.479378492  0.000000009
     0.229378432  0.229378477  0.077529550
     0.979378462  0.979378402  0.155059084
     0.729378462  0.729378462  0.232588619
     0.479378582  0.479378521  0.310118139
     0.229378462  0.229378462  0.387647629
     0.479378432  0.979378462  0.000000010
     0.229378462  0.729378462  0.077529542
     0.979378462  0.479378402  0.155059084
     0.729378462  0.229378462  0.232588619
     0.479378462  0.979378581  0.310118139
     0.229378462  0.729378462  0.387647659
     0.729378462  0.854378521  0.000000011
     0.479378462  0.604378462  0.077529542
     0.229378342  0.354378462  0.155059069
     0.979378506  0.104378499  0.232588619
     0.729378582  0.854378521  0.310118109
     0.479378344  0.604378521  0.387647629
     0.729378432  0.354378462  0.000000012
     0.479378462  0.104378462  0.077529535
     0.229378462  0.854378402  0.155059099
     0.979378342  0.604378462  0.232588619
     0.729378462  0.354378462  0.310118139
     0.479378344  0.104378402  0.387647659
     0.229378344  0.854378521  0.000000016
     0.979378446  0.604378462  0.077529542
     0.729378342  0.354378462  0.155059084
     0.479378150  0.104378499  0.232588649
     0.229378582  0.854378521  0.310118109
     0.979378344  0.604378521  0.387647659
     0.229378462  0.354378462  0.000000000
     0.979378462  0.104378462  0.077529542
     0.729378462  0.854378402  0.155059084
     0.479378462  0.604378462  0.232588619
     0.229378462  0.354378462  0.310118139
     0.979378582  0.104378402  0.387647629
     0.169169186  0.897435904  0.471518070
     0.669169186  0.897435904  0.560440361
     0.169169188  0.897435784  0.649362683
     0.669169306  0.897435725  0.738284945
     0.169169306  0.897435606  0.827207267
     0.669169306  0.897435606  0.916129589
     0.835835814  0.564102590  0.471518070
     0.335835934  0.564102530  0.560440361
     0.835835934  0.564102411  0.649362683
     0.335835934  0.564102411  0.738284945
     0.835836054  0.564102232  0.827207267
     0.335836054  0.564102232  0.916129589
     0.502502530  0.230769232  0.471518070
     0.002502680  0.230769157  0.560440361
     0.502502442  0.230769157  0.649362683
     0.002502680  0.230769038  0.738284945
     0.502502680  0.230768919  0.827207267
     0.002502918  0.230768800  0.916129589
     0.169168948  0.147436023  0.471518070
     0.669169186  0.147435904  0.560440421
     0.169169188  0.147435784  0.649362683
     0.669169070  0.147435784  0.738284945
     0.169169188  0.147435665  0.827207327
     0.669168950  0.147435784  0.916129589
     0.835835814  0.814102590  0.471518070
     0.335835934  0.814102530  0.560440421
     0.835835934  0.814102411  0.649362683
     0.335835816  0.814102411  0.738284945
     0.835835814  0.814102352  0.827207327
     0.335835814  0.814102352  0.916129589
     0.502502560  0.480769217  0.471518070
     0.002502560  0.480769217  0.560440421
     0.502502560  0.480769098  0.649362683
     0.002502562  0.480769038  0.738284945
     0.502502560  0.480768979  0.827207327
     0.002502560  0.480768979  0.916129589

  ion indices of the primitive-cell ions
   primitive index   ion index
                 1           1
                 2          14
                 3           3
                 4           4
                 5          17
                 6           6
                 7           7
                 8          20
                 9           9
                10          10
                11          23
                12          12
                13          37
                14          26
                15          39
                16          28
                17          29
                18          42
                19          31
                20          32
                21          45
                22          34
                23          35
                24          48
                25          61
                26          50
                27          63
                28          52
                29          53
                30          66
                31          55
                32          56
                33          69
                34          58
                35          59
                36          72
                37          73
                38          86
                39          75
                40          76
                41          89
                42          78
                43          79
                44          92
                45          81
                46          82
                47          95
                48          84
                49          97
                50          98
                51         117
                52         118
                53         101
                54         102
                55         103
                56         104
                57         123
                58         124
                59         107
                60         108
                61         109
                62         110
                63         129
                64         130
                65         113
                66         114
                67         133
                68         152
                69         153
                70         136
                71         137
                72         156
                73         139
                74         158
                75         159
                76         142
                77         143
                78         162
                79         145
                80         164
                81         165
                82         148
                83         149
                84         168

----------------------------------------------------------------------------------------

 
 
 KPOINTS: Automatic KPOINTS generated             

Automatic generation of k-mesh.
 Grid dimensions read from file:
 generate k-points for:    3    3    1

 Generating k-lattice:

  Cartesian coordinates                     Fractional coordinates (reciprocal lattice)
     0.020829850  0.029457854  0.000000000     0.333333333 -0.000000000  0.000000000
     0.000000000  0.029457854  0.000000000     0.000000000  0.333333333  0.000000000
     0.000000000  0.000000000  0.038758281     0.000000000  0.000000000  1.000000000

  Length of vectors
     0.036078356  0.029457854  0.038758281

  Shift w.r.t. Gamma in fractional coordinates (k-lattice)
     0.000000000  0.000000000  0.000000000

 
 Subroutine IBZKPT returns following result:
 ===========================================
 
 Found      5 irreducible k-points:
 
 Following reciprocal coordinates:
            Coordinates               Weight
  0.000000  0.000000  0.000000      1.000000
  0.333333  0.000000  0.000000      2.000000
 -0.333333 -0.333333  0.000000      2.000000
  0.000000  0.333333  0.000000      2.000000
 -0.333333  0.333333  0.000000      2.000000
 
 Following cartesian coordinates:
            Coordinates               Weight
  0.000000  0.000000  0.000000      1.000000
  0.020830  0.029458  0.000000      2.000000
 -0.020830 -0.058916  0.000000      2.000000
  0.000000  0.029458  0.000000      2.000000
 -0.020830 -0.000000  0.000000      2.000000
 


--------------------------------------------------------------------------------------------------------




 Dimension of arrays:
   k-points           NKPTS =      5   k-points in BZ     NKDIM =      5   number of bands    NBANDS=    404
   number of dos      NEDOS =    301   number of ions     NIONS =    168
   non local maximal  LDIM  =      5   non local SUM 2l+1 LMDIM =     13
   total plane-waves  NPLWV = ******
   max r-space proj   IRMAX =   8239   max aug-charges    IRDMAX= 382948
   dimension x,y,z NGX =   108 NGY =  128 NGZ =  168
   dimension x,y,z NGXF=   216 NGYF=  256 NGZF=  336
   support grid    NGXF=   432 NGYF=  512 NGZF=  672
   ions per type =              96  72
   NGX,Y,Z   is equivalent  to a cutoff of  11.22, 10.86, 10.82 a.u.
   NGXF,Y,Z  is equivalent  to a cutoff of  22.44, 21.71, 21.65 a.u.

 SYSTEM =  Si and Ge interface calculation         
 POSCAR =  Ge+Sn                                   

 Startparameter for this run:
   NWRITE =      2    write-flag & timer
   PREC   = normal    normal or accurate (medium, high low for compatibility)
   ISTART =      0    job   : 0-new  1-cont  2-samecut
   ICHARG =      2    charge: 1-file 2-atom 10-const
   ISPIN  =      2    spin polarized calculation?
   LNONCOLLINEAR =      F non collinear calculations
   LSORBIT =      F    spin-orbit coupling
   INIWAV =      1    electr: 0-lowe 1-rand  2-diag
   LASPH  =      T    aspherical Exc in radial PAW
 Electronic Relaxation 1
   ENCUT  =  700.0 eV  51.45 Ry    7.17 a.u.  34.52 42.28 55.66*2*pi/ulx,y,z
   ENINI  =  700.0     initial cutoff
   ENAUG  =  900.0 eV  augmentation charge cutoff
   NELM   =    100;   NELMIN=  2; NELMDL= -5     # of ELM steps 
   EDIFF  = 0.1E-06   stopping-criterion for ELM
   LREAL  =      T    real-space projection
   NLSPLINE    = F    spline interpolate recip. space projectors
   LCOMPAT=      F    compatible to vasp.4.4
   GGA_COMPAT  = T    GGA compatible to vasp.4.4-vasp.4.6
   LMAXPAW     = -100 max onsite density
   LMAXMIX     =    6 max onsite mixed and CHGCAR
   VOSKOWN=      0    Vosko Wilk Nusair interpolation
   ROPT   =   -0.00050  -0.00050
 Ionic relaxation
   EDIFFG = 0.1E-05   stopping-criterion for IOM
   NSW    =      0    number of steps for IOM
   NBLOCK =      1;   KBLOCK =      1    inner block; outer block 
   IBRION =     -1    ionic relax: 0-MD 1-quasi-New 2-CG
   NFREE  =      0    steps in history (QN), initial steepest desc. (CG)
   ISIF   =      2    stress and relaxation
   IWAVPR =     10    prediction:  0-non 1-charg 2-wave 3-comb
   ISYM   =      2    0-nonsym 1-usesym 2-fastsym
   LCORR  =      T    Harris-Foulkes like correction to forces

   POTIM  = 0.5000    time-step for ionic-motion
   TEIN   =    0.0    initial temperature
   TEBEG  =    0.0;   TEEND  =   0.0 temperature during run
   SMASS  =  -3.00    Nose mass-parameter (am)
   estimated Nose-frequenzy (Omega)   =  0.10E-29 period in steps = 0.13E+47 mass=  -0.585E-26a.u.
   SCALEE = 1.0000    scale energy and forces
   NPACO  =    256;   APACO  = 10.0  distance and # of slots for P.C.
   PSTRESS=    0.0 pullay stress

  Mass of Ions in am
   POMASS =  72.61118.71
  Ionic Valenz
   ZVAL   =   4.00  4.00
  Atomic Wigner-Seitz radii
   RWIGS  =  -1.00 -1.00
  virtual crystal weights 
   VCA    =   1.00  1.00
   NELECT =     672.0000    total number of electrons
   NUPDOWN=       1.0000    fix difference up-down

 DOS related values:
   EMIN   =  10.00;   EMAX   =-10.00  energy-range for DOS
   EFERMI =   0.00;   METHOD = LEGACY      
   ISMEAR =     0;   SIGMA  =   0.01  broadening in eV -4-tet -1-fermi 0-gaus

 Electronic relaxation 2 (details)
   IALGO  =     38    algorithm
   LDIAG  =      T    sub-space diagonalisation (order eigenvalues)
   LSUBROT=      F    optimize rotation matrix (better conditioning)
   TURBO    =      0    0=normal 1=particle mesh
   IRESTART =      0    0=no restart 2=restart with 2 vectors
   NREBOOT  =      0    no. of reboots
   NMIN     =      0    reboot dimension
   EREF     =   0.00    reference energy to select bands
   IMIX   =      4    mixing-type and parameters
     AMIX     =   0.60;   BMIX     =  1.00
     AMIX_MAG =   2.40;   BMIX_MAG =  1.00
     AMIN     =   0.10
     WC   =   100.;   INIMIX=   1;  MIXPRE=   1;  MAXMIX= -45

 Intra band minimization:
   WEIMIN = 0.0000     energy-eigenvalue tresh-hold
   EBREAK =  0.62E-10  absolut break condition
   DEPER  =   0.30     relativ break condition  

   TIME   =   0.40     timestep for ELM

  volume/ion in A,a.u.               =      27.81       187.67
  Fermi-wavevector in a.u.,A,eV,Ry     =   0.857754  1.620920 10.010373  0.735742
  Thomas-Fermi vector in A             =   1.974855
 
 Write flags
   LWAVE        =      F    write WAVECAR
   LDOWNSAMPLE  =      F    k-point downsampling of WAVECAR
   LCHARG       =      T    write CHGCAR
   LVTOT        =      F    write LOCPOT, total local potential
   LVHAR        =      T    write LOCPOT, Hartree potential only
   WRT_POTENTIAL=  hartree ionic  ! write potential to hdf5 file
   LELF         =      F    write electronic localiz. function (ELF)
   LORBIT       =      0    0 simple, 1 ext, 2 COOP (PROOUT), +10 PAW based schemes


 Dipole corrections
   LMONO      =      F    monopole corrections only (constant potential shift)
   LDIPOL     =      F    correct potential (dipole corrections)
   IDIPOL     =      0    1-x, 2-y, 3-z, 4-all directions 
   EPSILON    =  1.0000000 bulk dielectric constant
   LVACPOTAV  =      F  vacuum potentials using an averaging scheme for the charge density
   VACPOTFLAT =  0.1000000 required flatness to determine vacuum potential
 Exchange correlation treatment:
   GGA     = PE    functional components
   XC_C    = 1    coefficients multiplying the functional components
   LIBXC   =     F    Libxc                    
   VOSKOWN =     0    Vosko Wilk Nusair interpolation
   LHFCALC =     F    Hartree Fock is set to
   LHFONE  =     F    Hartree Fock one center treatment
   AEXX    =    0.0000 exact exchange contribution

 Parameters of functionals:
   PE:
     No parameter
 
 Van der Waals corrections
   IVDW    =     0    specifies the selected vdW correction

 Linear response parameters
   LEPSILON=     F    determine dielectric tensor
   LRPA    =     F    only Hartree local field effects (RPA)
   LNABLA  =     F    use nabla operator in PAW spheres
   LVEL    =     F    velocity operator in full k-point grid
   CSHIFT  =0.1000    complex shift for real part using Kramers Kronig
   OMEGAMAX=  -1.0    maximum frequency
   DEG_THRESHOLD= 0.2000000E-02 threshold for treating states as degnerate
   RTIME   =   -0.100 relaxation time in fs
  (WPLASMAI=    0.000 imaginary part of plasma frequency in eV, 0.658/RTIME)
   DFIELD  = 0.0000000 0.0000000 0.0000000 field for delta impulse in time
 
  Optional k-point grid parameters
   LKPOINTS_OPT  =     F    use optional k-point grid
   KPOINTS_OPT_MODE=     1    mode for optional k-point grid
 
 Orbital magnetization related:
   ORBITALMAG=     F  switch on orbital magnetization
   LCHIMAG   =     F  perturbation theory with respect to B field
   DQ        =  0.001000  dq finite difference perturbation B field
   LLRAUG    =     F  two centre corrections for induced B field
   LBONE     =     F  B-component reconstruction in AE one-centre
   LVGVCALC  =     T  calculate vGv susceptibility
   LVGVAPPL  =     F  apply vGv susceptibility instead of pGv for G=0

 Random number generation:
   RANDOM_GENERATOR = DEFAULT
   PCG_SEED         = not used


--------------------------------------------------------------------------------------------------------


 Static calculation
 charge density and potential will be updated during run
 spin polarized calculation
 Variant of blocked Davidson
 Davidson routine will perform the subspace rotation
 perform sub-space diagonalisation
    after iterative eigenvector-optimisation
 modified Broyden-mixing scheme, WC =      100.0
 initial mixing is a Kerker type mixing with AMIX =  0.6000 and BMIX =      1.0000
 Hartree-type preconditioning will be used
 using additional bands           68
 real space projection scheme for non local part
 use partial core corrections
 calculate Harris-corrections to forces 
   (improved forces if not selfconsistent)
 use gradient corrections 
 use of overlap-Matrix (Vanderbilt PP)
 Gauss-broadening in eV      SIGMA  =   0.01


--------------------------------------------------------------------------------------------------------


  energy-cutoff  :      700.00
  volume of cell :     4672.03
      direct lattice vectors                 reciprocal lattice vectors
    16.002676010  0.000000000  0.000000000     0.062489549  0.088373562  0.000000000
   -16.002676010 11.315601349  0.000000000     0.000000000  0.088373562  0.000000000
     0.000000000  0.000000000 25.800937653     0.000000000  0.000000000  0.038758281

  length of vectors
    16.002676010 19.599195733 25.800937653     0.108235069  0.088373562  0.038758281


 
 k-points in units of 2pi/SCALE and weight: Automatic KPOINTS generated             
   0.00000000  0.00000000  0.00000000       0.111
   0.02082985  0.02945785  0.00000000       0.222
  -0.02082985 -0.05891571  0.00000000       0.222
   0.00000000  0.02945785  0.00000000       0.222
  -0.02082985  0.00000000  0.00000000       0.222
 
 k-points in reciprocal lattice and weights: Automatic KPOINTS generated             
   0.00000000  0.00000000  0.00000000       0.111
   0.33333333  0.00000000  0.00000000       0.222
  -0.33333333 -0.33333333  0.00000000       0.222
   0.00000000  0.33333333  0.00000000       0.222
  -0.33333333  0.33333333  0.00000000       0.222
 
 position of ions in fractional coordinates (direct lattice) 
   0.96906769  0.47937849  0.00000001
   0.59406769  0.22937848  0.07752953
   0.21906763  0.97937840  0.15505910
   0.84406769  0.72937846  0.23258862
   0.46906781  0.47937852  0.31011814
   0.09406769  0.22937846  0.38764766
   0.96906769  0.97937846  0.00000001
   0.59406769  0.72937846  0.07752954
   0.21906763  0.47937840  0.15505908
   0.84406769  0.22937846  0.23258862
   0.46906781  0.97937858  0.31011811
   0.09406769  0.72937846  0.38764766
   0.46906772  0.47937849  0.00000001
   0.09406771  0.22937848  0.07752954
   0.71906763  0.97937840  0.15505908
   0.34406775  0.72937846  0.23258862
   0.96906781  0.47937852  0.31011811
   0.59406769  0.22937846  0.38764766
   0.46906769  0.97937846  0.00000000
   0.09406770  0.72937846  0.07752953
   0.71906763  0.47937840  0.15505908
   0.34406769  0.22937846  0.23258862
   0.96906781  0.97937858  0.31011814
   0.59406769  0.72937846  0.38764763
   0.21906771  0.47937849  0.00000001
   0.84406769  0.22937848  0.07752955
   0.46906763  0.97937840  0.15505908
   0.09406769  0.72937846  0.23258862
   0.71906781  0.47937852  0.31011814
   0.34406769  0.22937846  0.38764763
   0.21906768  0.97937846  0.00000001
   0.84406769  0.72937846  0.07752954
   0.46906763  0.47937840  0.15505908
   0.09406769  0.22937846  0.23258862
   0.71906781  0.97937858  0.31011814
   0.34406769  0.72937846  0.38764766
   0.71906769  0.47937849  0.00000001
   0.34406772  0.22937848  0.07752954
   0.96906763  0.97937840  0.15505908
   0.59406769  0.72937846  0.23258862
   0.21906775  0.47937852  0.31011814
   0.84406769  0.22937846  0.38764763
   0.71906763  0.97937846  0.00000001
   0.34406769  0.72937846  0.07752956
   0.96906763  0.47937840  0.15505908
   0.59406769  0.22937846  0.23258862
   0.21906787  0.97937858  0.31011817
   0.84406769  0.72937846  0.38764766
   0.21906774  0.85437852  0.00000000
   0.84406769  0.60437846  0.07752954
   0.46906769  0.35437846  0.15505908
   0.09406775  0.10437850  0.23258862
   0.71906781  0.85437852  0.31011811
   0.34406769  0.60437852  0.38764766
   0.21906768  0.35437846  0.00000001
   0.84406769  0.10437846  0.07752953
   0.46906763  0.85437840  0.15505908
   0.09406763  0.60437846  0.23258862
   0.71906769  0.35437846  0.31011814
   0.34406757  0.10437840  0.38764763
   0.71906775  0.85437852  0.00000001
   0.34406766  0.60437846  0.07752954
   0.96906763  0.35437846  0.15505907
   0.59406769  0.10437850  0.23258862
   0.21906781  0.85437852  0.31011814
   0.84406769  0.60437852  0.38764763
   0.71906769  0.35437846  0.00000001
   0.34406769  0.10437846  0.07752954
   0.96906763  0.85437840  0.15505910
   0.59406769  0.60437846  0.23258862
   0.21906775  0.35437846  0.31011814
   0.84406757  0.10437840  0.38764766
   0.96906769  0.85437852  0.00000002
   0.59406763  0.60437846  0.07752956
   0.21906763  0.35437846  0.15505908
   0.84406757  0.10437850  0.23258865
   0.46906781  0.85437852  0.31011817
   0.09406769  0.60437852  0.38764766
   0.96906769  0.35437846  0.00000000
   0.59406769  0.10437846  0.07752954
   0.21906763  0.85437840  0.15505908
   0.84406769  0.60437846  0.23258862
   0.46906769  0.35437846  0.31011811
   0.09406769  0.10437840  0.38764763
   0.46906775  0.85437852  0.00000000
   0.09406768  0.60437846  0.07752954
   0.71906769  0.35437846  0.15505908
   0.34406775  0.10437850  0.23258862
   0.96906781  0.85437852  0.31011811
   0.59406781  0.60437852  0.38764763
   0.46906769  0.35437846  0.00000001
   0.09406769  0.10437846  0.07752954
   0.71906763  0.85437840  0.15505907
   0.34406769  0.60437846  0.23258862
   0.96906769  0.35437846  0.31011814
   0.59406769  0.10437840  0.38764763
   0.98202050  0.89743590  0.47151807
   0.73202050  0.89743590  0.56044036
   0.48202038  0.89743573  0.64936268
   0.23202032  0.89743578  0.73828494
   0.98202026  0.89743561  0.82720727
   0.73202026  0.89743561  0.91612959
   0.98202050  0.56410259  0.47151807
   0.73202050  0.56410253  0.56044036
   0.48202038  0.56410241  0.64936268
   0.23202032  0.56410235  0.73828494
   0.98202026  0.56410223  0.82720727
   0.73202026  0.56410223  0.91612959
   0.98202050  0.23076923  0.47151807
   0.73202050  0.23076916  0.56044036
   0.48202038  0.23076904  0.64936268
   0.23202032  0.23076904  0.73828494
   0.98202026  0.23076892  0.82720727
   0.73202026  0.23076880  0.91612959
   0.48202050  0.89743590  0.47151807
   0.23202048  0.89743590  0.56044036
   0.98202038  0.89743578  0.64936268
   0.73202038  0.89743573  0.73828494
   0.48202032  0.89743555  0.82720727
   0.23202026  0.89743555  0.91612959
   0.48202050  0.56410259  0.47151807
   0.23202048  0.56410253  0.56044036
   0.98202038  0.56410241  0.64936268
   0.73202038  0.56410241  0.73828494
   0.48202032  0.56410229  0.82720727
   0.23202026  0.56410217  0.91612959
   0.48202050  0.23076928  0.47151807
   0.23202048  0.23076916  0.56044036
   0.98202038  0.23076916  0.64936268
   0.73202038  0.23076904  0.73828494
   0.48202032  0.23076892  0.82720727
   0.23202026  0.23076892  0.91612959
   0.73202050  0.14743602  0.47151807
   0.48202047  0.14743590  0.56044042
   0.23202039  0.14743590  0.64936268
   0.98202032  0.14743578  0.73828494
   0.73202026  0.14743567  0.82720733
   0.48202026  0.14743567  0.91612959
   0.73202050  0.81410259  0.47151807
   0.48202047  0.81410253  0.56044042
   0.23202039  0.81410241  0.64936268
   0.98202032  0.81410241  0.73828494
   0.73202026  0.81410235  0.82720733
   0.48202026  0.81410229  0.91612959
   0.73202050  0.48076922  0.47151807
   0.48202047  0.48076916  0.56044042
   0.23202039  0.48076910  0.64936268
   0.98202032  0.48076904  0.73828494
   0.73202026  0.48076898  0.82720733
   0.48202026  0.48076892  0.91612959
   0.23202050  0.14743602  0.47151807
   0.98202050  0.14743590  0.56044042
   0.73202038  0.14743578  0.64936268
   0.48202026  0.14743590  0.73828494
   0.23202032  0.14743567  0.82720727
   0.98202026  0.14743578  0.91612959
   0.23202050  0.81410259  0.47151807
   0.98202050  0.81410253  0.56044042
   0.73202038  0.81410241  0.64936268
   0.48202026  0.81410235  0.73828494
   0.23202032  0.81410229  0.82720727
   0.98202026  0.81410235  0.91612959
   0.23202050  0.48076928  0.47151807
   0.98202050  0.48076922  0.56044042
   0.73202038  0.48076910  0.64936268
   0.48202026  0.48076898  0.73828494
   0.23202032  0.48076904  0.82720727
   0.98202026  0.48076898  0.91612959
 
 position of ions in cartesian coordinates  (Angst):
   7.83633763  5.42445591  0.00000018
   5.83600337  2.59555540  2.00033470
 -12.16700690 11.08225557  4.00067015
   1.83533461  8.25335591  6.00100446
  -0.16499894  5.42445624  8.00133877
  -2.16533440  2.59555523 10.00167308
  -0.16499990 11.08225625  0.00000028
  -2.16533440  8.25335591  2.00033488
  -4.16566890  5.42445489  4.00066976
   9.83667261  2.59555523  6.00100446
  -8.16633790 11.08225759  8.00133800
 -10.16667240  8.25335591 10.00167308
  -0.16499990  5.42445591  0.00000028
  -2.16533440  2.59555540  2.00033488
  -4.16566890 11.08225557  4.00066976
  -6.16600246  8.25335591  6.00100446
   7.83633907  5.42445624  8.00133800
   5.83600361  2.59555523 10.00167308
  -8.16633790 11.08225625  0.00000003
 -10.16667229  8.25335591  2.00033470
   3.83566911  5.42445489  4.00066976
   1.83533461  2.59555523  6.00100446
  -0.16499990 11.08225759  8.00133877
  -2.16533440  8.25335591 10.00167231
  -4.16566914  5.42445591  0.00000034
   9.83667237  2.59555540  2.00033509
  -8.16633790 11.08225557  4.00066976
 -10.16667240  8.25335591  6.00100446
   3.83567007  5.42445624  8.00133877
   1.83533461  2.59555523 10.00167231
 -12.16700714 11.08225625  0.00000026
   1.83533461  8.25335591  2.00033488
  -0.16499990  5.42445489  4.00066976
  -2.16533440  2.59555523  6.00100446
  -4.16566890 11.08225759  8.00133877
  -6.16600340  8.25335591 10.00167308
   3.83566863  5.42445591  0.00000023
   1.83533485  2.59555540  2.00033488
  -0.16499990 11.08225557  4.00066976
  -2.16533440  8.25335591  6.00100446
  -4.16566890  5.42445624  8.00133877
   9.83667261  2.59555523 10.00167231
  -4.16566986 11.08225625  0.00000034
  -6.16600340  8.25335591  2.00033527
   7.83633811  5.42445489  4.00066976
   5.83600361  2.59555523  6.00100446
 -12.16700594 11.08225759  8.00133954
   1.83533461  8.25335591 10.00167308
 -10.16667264  9.66780674  0.00000003
   3.83566911  6.83890574  2.00033488
   1.83533461  4.01000540  4.00066976
  -0.16499954  1.18110548  6.00100446
  -2.16533344  9.66780674  8.00133800
  -4.16566984  6.83890641 10.00167308
  -2.16533464  4.01000540  0.00000031
  11.83700711  1.18110507  2.00033470
  -6.16600340  9.66780540  4.00066976
  -8.16633886  6.83890574  6.00100446
   5.83600361  4.01000540  8.00133877
   3.83566816  1.18110439 10.00167231
  -2.16533440  9.66780674  0.00000028
  -4.16566938  6.83890574  2.00033488
   9.83667165  4.01000540  4.00066937
   7.83633752  1.18110548  6.00100446
 -10.16667144  9.66780674  8.00133877
   3.83566816  6.83890641 10.00167231
   5.83600361  4.01000540  0.00000023
   3.83566911  1.18110507  2.00033488
   1.83533461  9.66780540  4.00067015
  -0.16499990  6.83890574  6.00100446
  -2.16533345  4.01000540  8.00133877
  11.83700617  1.18110439 10.00167308
   1.83533366  9.66780674  0.00000041
  -0.16500086  6.83890574  2.00033527
  -2.16533536  4.01000540  4.00066976
  11.83700462  1.18110548  6.00100523
  -6.16600244  9.66780674  8.00133954
  -8.16633884  6.83890641 10.00167308
   9.83667261  4.01000540  0.00000000
   7.83633811  1.18110507  2.00033488
 -10.16667240  9.66780540  4.00066976
   3.83566911  6.83890574  6.00100446
   1.83533461  4.01000540  8.00133800
  -0.16499894  1.18110439 10.00167231
  -6.16600340  9.66780674  0.00000000
  -8.16633803  6.83890574  2.00033488
   5.83600361  4.01000540  4.00066976
   3.83566946  1.18110548  6.00100446
   1.83533557  9.66780674  8.00133800
  -0.16499894  6.83890641 10.00167231
   1.83533461  4.01000540  0.00000026
  -0.16499990  1.18110507  2.00033488
  -2.16533440  9.66780540  4.00066937
  -4.16566890  6.83890574  6.00100446
   9.83667261  4.01000540  8.00133877
   7.83633907  1.18110439 10.00167231
   1.35357984 10.15502693 12.16560833
  -2.64708917 10.15502693 14.45988681
  -6.64775721 10.15502490 16.75416610
 -10.64842810 10.15502557 19.04844384
   1.35358080 10.15502355 21.34272312
  -2.64708821 10.15502355 23.63700241
   6.68780486  6.38316003 12.16560833
   2.68713682  6.38315935 14.45988681
  -1.31353218  6.38315800 16.75416610
  -5.31420118  6.38315734 19.04844384
   6.68780678  6.38315598 21.34272312
   2.68713778  6.38315598 23.63700241
  12.02203060  2.61129263 12.16560833
   8.02136279  2.61129178 14.45988681
   4.02069379  2.61129044 16.75416610
   0.02002384  2.61129044 19.04844384
  12.02203180  2.61128909 21.34272312
   8.02136470  2.61128774 23.63700241
  -6.64775817 10.15502693 12.16560833
 -10.64842741 10.15502693 14.45988681
   1.35357985 10.15502557 16.75416610
  -2.64708821 10.15502490 19.04844384
  -6.64775529 10.15502287 21.34272312
 -10.64842525 10.15502287 23.63700241
  -1.31353314  6.38316003 12.16560833
  -5.31420142  6.38315935 14.45988681
   6.68780582  6.38315800 16.75416610
   2.68713682  6.38315800 19.04844384
  -1.31353122  6.38315666 21.34272312
  -5.31419928  6.38315531 23.63700241
   4.02069187  2.61129314 12.16560833
   0.02002455  2.61129178 14.45988681
  12.02202989  2.61129178 16.75416610
   8.02136279  2.61129044 19.04844384
   4.02069475  2.61128909 21.34272312
   0.02002479  2.61128909 23.63700241
   9.35491594  1.66832726 12.16560833
   5.35424838  1.66832591 14.45988836
   1.35357817  1.66832591 16.75416610
  13.35558592  1.66832456 19.04844384
   9.35491786  1.66832321 21.34272467
   5.35424886  1.66832321 23.63700241
  -1.31353314  9.21206037 12.16560833
  -5.31420165  9.21205969 14.45988836
  -9.31486995  9.21205834 16.75416610
   2.68713588  9.21205834 19.04844384
  -1.31353314  9.21205767 21.34272467
  -5.31420118  9.21205699 23.63700241
   4.02069283  5.44019280 12.16560833
   0.02002432  5.44019212 14.45988836
  -3.98064493  5.44019145 16.75416610
   8.02136185  5.44019077 19.04844384
   4.02069283  5.44019011 21.34272467
   0.02002479  5.44018943 23.63700241
   1.35357793  1.66832726 12.16560833
  13.35558684  1.66832591 14.45988836
   9.35491786  1.66832456 16.75416610
   5.35424503  1.66832591 19.04844384
   1.35358081  1.66832321 21.34272312
  13.35558496  1.66832456 23.63700241
  -9.31487115  9.21206037 12.16560833
   2.68713682  9.21205969 14.45988836
  -1.31353218  9.21205834 16.75416610
  -5.31420214  9.21205767 19.04844384
  -9.31486923  9.21205699 21.34272312
   2.68713586  9.21205767 23.63700241
  -3.98064613  5.44019348 12.16560833
   8.02136183  5.44019280 14.45988836
   4.02069283  5.44019145 16.75416610
   0.02002383  5.44019011 19.04844384
  -3.98064516  5.44019077 21.34272312
   8.02136183  5.44019011 23.63700241
 


--------------------------------------------------------------------------------------------------------


 k-point     1 :   0.0000 0.0000 0.0000  plane waves:  196475
 k-point     2 :   0.3333 0.0000 0.0000  plane waves:  196465
 k-point     3 :  -0.3333-0.3333 0.0000  plane waves:  196465
 k-point     4 :   0.0000 0.3333 0.0000  plane waves:  196541
 k-point     5 :  -0.3333 0.3333 0.0000  plane waves:  196463

 maximum and minimum number of plane-waves per node :     12319    12220

 maximum number of plane-waves:    196541
 maximum index in each direction: 
   IXMAX=   34   IYMAX=   42   IZMAX=   55
   IXMIN=  -34   IYMIN=  -42   IZMIN=  -55


 real space projection operators:
  total allocation   :      96129.72 KBytes
  max/ min on nodes  :       6316.38       5285.41


 parallel 3D FFT for wavefunctions:
    minimum data exchange during FFTs selected (reduces bandwidth)
 parallel 3D FFT for charge:
    minimum data exchange during FFTs selected (reduces bandwidth)


 total amount of memory used by VASP MPI-rank0   350980. kBytes
=======================================================================

   base      :      30000. kBytes
   nonlr-proj:      31220. kBytes
   fftplans  :      48760. kBytes
   grid      :      39727. kBytes
   one-center:        178. kBytes
   wavefun   :     201095. kBytes
 
     INWAV:  cpu time      0.0000: real time      0.0003
 Broyden mixing: mesh for mixing (old mesh)
   NGX = 69   NGY = 85   NGZ =111
  (NGX  =216   NGY  =256   NGZ  =336)
  gives a total of 651015 points

 initial charge density was supplied:
 charge density of overlapping atoms calculated
 number of electron     672.0000000 magnetization       1.0000000
 keeping initial charge density in first step


--------------------------------------------------------------------------------------------------------


 Maximum index for non-local projection operator          566
 Maximum index for augmentation-charges         6831 (set IRDMAX)


--------------------------------------------------------------------------------------------------------


 First call to EWALD:  gamma=   0.106
 Maximum number of real-space cells 5x 4x 2
 Maximum number of reciprocal cells 3x 3x 4

    FEWALD:  cpu time      0.0053: real time      0.0053


--------------------------------------- Ionic step        1  -------------------------------------------




--------------------------------------- Iteration      1(   1)  ---------------------------------------


    POTLOK:  cpu time      0.5883: real time      0.5946
    SETDIJ:  cpu time      2.8874: real time      2.9084
     EDDAV:  cpu time     65.4799: real time     66.1474
       DOS:  cpu time      0.0027: real time      0.0027
    --------------------------------------------
      LOOP:  cpu time     68.9583: real time     69.6531

 eigenvalue-minimisations  :  8080
 total energy-change (2. order) : 0.3440343E+04  (-0.2796543E+05)
 number of electron     672.0000000 magnetization       1.0000000
 augmentation part      672.0000000 magnetization       1.0000000

 Free energy of the ion-electron system (eV)
  ---------------------------------------------------
  alpha Z        PSCENC =       983.66115971
  Ewald energy   TEWEN  =    -11695.50839807
  -Hartree energ DENC   =     -6513.73456174
  -exchange      EXHF   =         0.00000000
  -V(xc)+E(xc)   XCENC  =     -9240.16293810
  PAW double counting   =     22099.84193803   -11791.56227843
  entropy T*S    EENTRO =        -0.00338876
  eigenvalues    EBANDS =      2744.01348192
  atomic energy  EATOM  =     16853.79812076
  Solvation  Ediel_sol  =         0.00000000
  ---------------------------------------------------
  free energy    TOTEN  =      3440.34313532 eV

  energy without entropy =     3440.34652408  energy(sigma->0) =     3440.34482970


--------------------------------------------------------------------------------------------------------




--------------------------------------- Iteration      1(   2)  ---------------------------------------


     EDDAV:  cpu time     74.3878: real time     75.1457
       DOS:  cpu time      0.0033: real time      0.0033
    --------------------------------------------
      LOOP:  cpu time     74.3910: real time     75.1490

 eigenvalue-minimisations  :  9520
 total energy-change (2. order) :-0.3703648E+04  (-0.3582256E+04)
 number of electron     672.0000000 magnetization       1.0000000
 augmentation part      672.0000000 magnetization       1.0000000

 Free energy of the ion-electron system (eV)
  ---------------------------------------------------
  alpha Z        PSCENC =       983.66115971
  Ewald energy   TEWEN  =    -11695.50839807
  -Hartree energ DENC   =     -6513.73456174
  -exchange      EXHF   =         0.00000000
  -V(xc)+E(xc)   XCENC  =     -9240.16293810
  PAW double counting   =     22099.84193803   -11791.56227843
  entropy T*S    EENTRO =        -0.00215261
  eigenvalues    EBANDS =      -959.63558317
  atomic energy  EATOM  =     16853.79812076
  Solvation  Ediel_sol  =         0.00000000
  ---------------------------------------------------
  free energy    TOTEN  =      -263.30469361 eV

  energy without entropy =     -263.30254100  energy(sigma->0) =     -263.30361731


--------------------------------------------------------------------------------------------------------




--------------------------------------- Iteration      1(   3)  ---------------------------------------


     EDDAV:  cpu time     76.3387: real time     77.1233
       DOS:  cpu time      0.0021: real time      0.0021
    --------------------------------------------
      LOOP:  cpu time     76.3409: real time     77.1254

 eigenvalue-minimisations  :  9896
 total energy-change (2. order) :-0.4070134E+03  (-0.3959624E+03)
 number of electron     672.0000000 magnetization       1.0000000
 augmentation part      672.0000000 magnetization       1.0000000

 Free energy of the ion-electron system (eV)
  ---------------------------------------------------
  alpha Z        PSCENC =       983.66115971
  Ewald energy   TEWEN  =    -11695.50839807
  -Hartree energ DENC   =     -6513.73456174
  -exchange      EXHF   =         0.00000000
  -V(xc)+E(xc)   XCENC  =     -9240.16293810
  PAW double counting   =     22099.84193803   -11791.56227843
  entropy T*S    EENTRO =        -0.00193306
  eigenvalues    EBANDS =     -1366.64920946
  atomic energy  EATOM  =     16853.79812076
  Solvation  Ediel_sol  =         0.00000000
  ---------------------------------------------------
  free energy    TOTEN  =      -670.31810035 eV

  energy without entropy =     -670.31616729  energy(sigma->0) =     -670.31713382


--------------------------------------------------------------------------------------------------------




--------------------------------------- Iteration      1(   4)  ---------------------------------------


     EDDAV:  cpu time     75.2022: real time     76.0996
       DOS:  cpu time      0.0024: real time      0.0024
    --------------------------------------------
      LOOP:  cpu time     75.2045: real time     76.1019

 eigenvalue-minimisations  :  9736
 total energy-change (2. order) :-0.1642071E+02  (-0.1612646E+02)
 number of electron     672.0000000 magnetization       1.0000000
 augmentation part      672.0000000 magnetization       1.0000000

 Free energy of the ion-electron system (eV)
  ---------------------------------------------------
  alpha Z        PSCENC =       983.66115971
  Ewald energy   TEWEN  =    -11695.50839807
  -Hartree energ DENC   =     -6513.73456174
  -exchange      EXHF   =         0.00000000
  -V(xc)+E(xc)   XCENC  =     -9240.16293810
  PAW double counting   =     22099.84193803   -11791.56227843
  entropy T*S    EENTRO =        -0.00281041
  eigenvalues    EBANDS =     -1383.06904594
  atomic energy  EATOM  =     16853.79812076
  Solvation  Ediel_sol  =         0.00000000
  ---------------------------------------------------
  free energy    TOTEN  =      -686.73881418 eV

  energy without entropy =     -686.73600377  energy(sigma->0) =     -686.73740898


--------------------------------------------------------------------------------------------------------




--------------------------------------- Iteration      1(   5)  ---------------------------------------


     EDDAV:  cpu time     81.6437: real time     82.4718
       DOS:  cpu time      0.0022: real time      0.0022
    CHARGE:  cpu time      5.7000: real time      5.7633
    MIXING:  cpu time      0.0137: real time      0.0138
    --------------------------------------------
      LOOP:  cpu time     87.3596: real time     88.2511

 eigenvalue-minimisations  : 10760
 total energy-change (2. order) :-0.7181910E+00  (-0.7132380E+00)
 number of electron     671.9999992 magnetization       1.0000000
 augmentation part     -141.6805528 magnetization      -0.1422049

 Broyden mixing:
  rms(total) = 0.28988E+01    rms(broyden)= 0.28988E+01
  rms(prec ) = 0.30444E+01
  weight for this iteration     100.00

 Free energy of the ion-electron system (eV)
  ---------------------------------------------------
  alpha Z        PSCENC =       983.66115971
  Ewald energy   TEWEN  =    -11695.50839807
  -Hartree energ DENC   =     -6513.73456174
  -exchange      EXHF   =         0.00000000
  -V(xc)+E(xc)   XCENC  =     -9240.16293810
  PAW double counting   =     22099.84193803   -11791.56227843
  entropy T*S    EENTRO =        -0.00274678
  eigenvalues    EBANDS =     -1383.78730053
  atomic energy  EATOM  =     16853.79812076
  Solvation  Ediel_sol  =         0.00000000
  ---------------------------------------------------
  free energy    TOTEN  =      -687.45700515 eV

  energy without entropy =     -687.45425836  energy(sigma->0) =     -687.45563176


--------------------------------------------------------------------------------------------------------




--------------------------------------- Iteration      1(   6)  ---------------------------------------


    POTLOK:  cpu time      0.5784: real time      0.5833
    SETDIJ:  cpu time      2.8883: real time      2.9097
     EDDAV:  cpu time     95.1173: real time     96.0129
       DOS:  cpu time      0.0025: real time      0.0025
    CHARGE:  cpu time      5.6675: real time      5.7292
    MIXING:  cpu time      0.0145: real time      0.0149
    --------------------------------------------
      LOOP:  cpu time    104.2685: real time    105.2525

 eigenvalue-minimisations  : 12920
 total energy-change (2. order) : 0.8752105E+01  (-0.2374301E+01)
 number of electron     671.9999992 magnetization       1.0000000
 augmentation part     -141.8588444 magnetization      -0.1277029

 Broyden mixing:
  rms(total) = 0.14333E+01    rms(broyden)= 0.14333E+01
  rms(prec ) = 0.16420E+01
  weight for this iteration     100.00

 eigenvalues of (default mixing * dielectric matrix)
  average eigenvalue GAMMA=   1.7322
  1.7322

 Free energy of the ion-electron system (eV)
  ---------------------------------------------------
  alpha Z        PSCENC =       983.66115971
  Ewald energy   TEWEN  =    -11695.50839807
  -Hartree energ DENC   =     -6724.15731272
  -exchange      EXHF   =         0.00000000
  -V(xc)+E(xc)   XCENC  =     -9211.71757784
  PAW double counting   =     31519.71302645   -21233.61675377
  entropy T*S    EENTRO =        -0.00221166
  eigenvalues    EBANDS =     -1170.87495319
  atomic energy  EATOM  =     16853.79812076
  Solvation  Ediel_sol  =         0.00000000
  ---------------------------------------------------
  free energy    TOTEN  =      -678.70490032 eV

  energy without entropy =     -678.70268866  energy(sigma->0) =     -678.70379449


--------------------------------------------------------------------------------------------------------




--------------------------------------- Iteration      1(   7)  ---------------------------------------


    POTLOK:  cpu time      0.5775: real time      0.5821
    SETDIJ:  cpu time      2.8804: real time      2.9032
     EDDAV:  cpu time     87.9124: real time     88.8461
       DOS:  cpu time      0.0029: real time      0.0029
    CHARGE:  cpu time      5.6606: real time      5.7258
    MIXING:  cpu time      0.0243: real time      0.0245
    --------------------------------------------
      LOOP:  cpu time     97.0582: real time     98.0846

 eigenvalue-minimisations  : 11752
 total energy-change (2. order) :-0.2927713E+01  (-0.3517001E+01)
 number of electron     671.9999992 magnetization       1.0000000
 augmentation part     -140.7046392 magnetization      -0.1343406

 Broyden mixing:
  rms(total) = 0.71890E+00    rms(broyden)= 0.71890E+00
  rms(prec ) = 0.14834E+01
  weight for this iteration     100.00

 eigenvalues of (default mixing * dielectric matrix)
  average eigenvalue GAMMA=   1.1731
  1.8539  0.4922

 Free energy of the ion-electron system (eV)
  ---------------------------------------------------
  alpha Z        PSCENC =       983.66115971
  Ewald energy   TEWEN  =    -11695.50839807
  -Hartree energ DENC   =     -6684.26963050
  -exchange      EXHF   =         0.00000000
  -V(xc)+E(xc)   XCENC  =     -9195.85995462
  PAW double counting   =     38493.64923148   -28221.38719238
  entropy T*S    EENTRO =        -0.00111417
  eigenvalues    EBANDS =     -1215.71483510
  atomic energy  EATOM  =     16853.79812076
  Solvation  Ediel_sol  =         0.00000000
  ---------------------------------------------------
  free energy    TOTEN  =      -681.63261289 eV

  energy without entropy =     -681.63149872  energy(sigma->0) =     -681.63205580


--------------------------------------------------------------------------------------------------------




--------------------------------------- Iteration      1(   8)  ---------------------------------------


    POTLOK:  cpu time      0.5807: real time      0.5849
    SETDIJ:  cpu time      2.8856: real time      2.9066
     EDDAV:  cpu time     96.1710: real time     97.0828
       DOS:  cpu time      0.0041: real time      0.0042
    CHARGE:  cpu time      5.6354: real time      5.6972
    MIXING:  cpu time      0.0171: real time      0.0172
    --------------------------------------------
      LOOP:  cpu time    105.2939: real time    106.2929

 eigenvalue-minimisations  : 13064
 total energy-change (2. order) : 0.4514709E+01  (-0.1790631E+01)
 number of electron     671.9999992 magnetization       1.0000000
 augmentation part     -140.5088157 magnetization      -0.1239470

 Broyden mixing:
  rms(total) = 0.32280E+00    rms(broyden)= 0.32280E+00
  rms(prec ) = 0.76848E+00
  weight for this iteration     100.00

 eigenvalues of (default mixing * dielectric matrix)
  average eigenvalue GAMMA=   0.9524
  1.8757  0.6073  0.3742

 Free energy of the ion-electron system (eV)
  ---------------------------------------------------
  alpha Z        PSCENC =       983.66115971
  Ewald energy   TEWEN  =    -11695.50839807
  -Hartree energ DENC   =     -6770.05914130
  -exchange      EXHF   =         0.00000000
  -V(xc)+E(xc)   XCENC  =     -9187.74169270
  PAW double counting   =     42719.60476214   -32453.76634327
  entropy T*S    EENTRO =        -0.00269955
  eigenvalues    EBANDS =     -1127.10367142
  atomic energy  EATOM  =     16853.79812076
  Solvation  Ediel_sol  =         0.00000000
  ---------------------------------------------------
  free energy    TOTEN  =      -677.11790369 eV

  energy without entropy =     -677.11520414  energy(sigma->0) =     -677.11655392


--------------------------------------------------------------------------------------------------------




--------------------------------------- Iteration      1(   9)  ---------------------------------------


    POTLOK:  cpu time      0.5746: real time      0.5800
    SETDIJ:  cpu time      2.8891: real time      2.9109
     EDDAV:  cpu time     80.0736: real time     80.8462
       DOS:  cpu time      0.0031: real time      0.0031
    CHARGE:  cpu time      5.6545: real time      5.7157
    MIXING:  cpu time      0.0165: real time      0.0166
    --------------------------------------------
      LOOP:  cpu time     89.2113: real time     90.0726

 eigenvalue-minimisations  : 10472
 total energy-change (2. order) : 0.6630497E+00  (-0.6606267E+00)
 number of electron     671.9999992 magnetization       1.0000000
 augmentation part     -140.4349675 magnetization      -0.1359276

 Broyden mixing:
  rms(total) = 0.17843E+00    rms(broyden)= 0.17843E+00
  rms(prec ) = 0.28322E+00
  weight for this iteration     100.00

 eigenvalues of (default mixing * dielectric matrix)
  average eigenvalue GAMMA=   0.9046
  1.8924  0.9542  0.5124  0.2597

 Free energy of the ion-electron system (eV)
  ---------------------------------------------------
  alpha Z        PSCENC =       983.66115971
  Ewald energy   TEWEN  =    -11695.50839807
  -Hartree energ DENC   =     -6782.75780015
  -exchange      EXHF   =         0.00000000
  -V(xc)+E(xc)   XCENC  =     -9186.87541369
  PAW double counting   =     43357.81734911   -33092.69948157
  entropy T*S    EENTRO =        -0.00192571
  eigenvalues    EBANDS =     -1113.88846442
  atomic energy  EATOM  =     16853.79812076
  Solvation  Ediel_sol  =         0.00000000
  ---------------------------------------------------
  free energy    TOTEN  =      -676.45485403 eV

  energy without entropy =     -676.45292832  energy(sigma->0) =     -676.45389118


--------------------------------------------------------------------------------------------------------




--------------------------------------- Iteration      1(  10)  ---------------------------------------


    POTLOK:  cpu time      0.5807: real time      0.5852
    SETDIJ:  cpu time      2.8874: real time      2.9076
     EDDAV:  cpu time     72.3808: real time     73.0882
       DOS:  cpu time      0.0030: real time      0.0030
    CHARGE:  cpu time      5.6445: real time      5.7058
    MIXING:  cpu time      0.0239: real time      0.0240
    --------------------------------------------
      LOOP:  cpu time     81.5202: real time     82.3137

 eigenvalue-minimisations  :  9208
 total energy-change (2. order) : 0.8496235E-02  (-0.1886001E+00)
 number of electron     671.9999992 magnetization       1.0000000
 augmentation part     -140.3522348 magnetization      -0.1301867

 Broyden mixing:
  rms(total) = 0.11518E+00    rms(broyden)= 0.11518E+00
  rms(prec ) = 0.13389E+00
  weight for this iteration     100.00

 eigenvalues of (default mixing * dielectric matrix)
  average eigenvalue GAMMA=   0.9028
  1.8276  1.3148  0.6660  0.4322  0.2734

 Free energy of the ion-electron system (eV)
  ---------------------------------------------------
  alpha Z        PSCENC =       983.66115971
  Ewald energy   TEWEN  =    -11695.50839807
  -Hartree energ DENC   =     -6776.15062152
  -exchange      EXHF   =         0.00000000
  -V(xc)+E(xc)   XCENC  =     -9186.90193280
  PAW double counting   =     43639.10889726   -33374.04825560
  entropy T*S    EENTRO =        -0.00258954
  eigenvalues    EBANDS =     -1120.40273799
  atomic energy  EATOM  =     16853.79812076
  Solvation  Ediel_sol  =         0.00000000
  ---------------------------------------------------
  free energy    TOTEN  =      -676.44635780 eV

  energy without entropy =     -676.44376826  energy(sigma->0) =     -676.44506303


--------------------------------------------------------------------------------------------------------




--------------------------------------- Iteration      1(  11)  ---------------------------------------


    POTLOK:  cpu time      0.5774: real time      0.5818
    SETDIJ:  cpu time      2.8860: real time      2.9078
     EDDAV:  cpu time     78.7630: real time     79.5034
       DOS:  cpu time      0.0026: real time      0.0026
    CHARGE:  cpu time      5.6371: real time      5.7003
[...]
   -.120E+01 0.183E+01 0.698E+02   0.116E+01 -.189E+01 -.697E+02   0.144E+00 0.390E-01 -.292E+00   -.431E-04 -.604E-04 -.122E-03
   0.474E+01 0.721E+01 0.129E+03   -.442E+01 -.762E+01 -.130E+03   0.191E+00 -.716E+00 -.285E+01   -.870E-05 -.977E-04 -.259E-03
   0.834E+01 0.615E+01 -.117E+03   -.855E+01 -.613E+01 0.117E+03   0.244E+00 -.212E+00 0.139E+00   -.318E-04 -.104E-03 0.333E-03
   -.156E+01 0.190E+01 -.692E+02   0.112E+01 -.164E+01 0.686E+02   0.541E+00 -.358E+00 0.530E+00   0.152E-05 -.322E-04 0.195E-03
   -.272E+00 0.210E+00 -.236E+02   0.215E+00 -.212E+00 0.236E+02   0.122E+00 -.510E-01 0.210E-01   0.478E-06 -.411E-04 0.123E-03
   -.202E+00 0.112E+00 0.236E+02   0.215E+00 -.926E-01 -.237E+02   0.782E-01 -.358E-01 0.732E-01   0.183E-04 -.347E-04 -.186E-05
   -.134E+01 0.191E+00 0.705E+02   0.112E+01 0.190E-01 -.702E+02   0.304E+00 -.264E+00 -.232E+00   0.496E-04 0.188E-04 -.107E-03
   0.781E+01 -.154E+02 0.140E+03   -.787E+01 0.151E+02 -.140E+03   0.561E+00 0.106E+01 -.697E+01   -.685E-04 0.170E-03 -.306E-03
   0.898E+01 0.181E+00 -.136E+03   -.880E+01 0.479E-02 0.137E+03   -.123E+01 -.105E+01 0.194E+01   0.108E-04 0.664E-04 0.368E-03
   -.122E+01 0.121E+01 -.706E+02   0.112E+01 -.109E+01 0.704E+02   0.261E+00 -.205E+00 0.277E+00   -.483E-04 0.192E-04 0.185E-03
   -.322E+00 0.202E+00 -.237E+02   0.215E+00 -.173E+00 0.237E+02   0.164E+00 -.120E+00 -.647E-02   0.110E-04 0.476E-05 0.125E-03
   -.283E+00 0.202E+00 0.236E+02   0.215E+00 -.132E+00 -.235E+02   0.157E+00 -.143E+00 -.775E-01   0.355E-04 -.152E-04 -.240E-04
   -.141E+01 0.788E+00 0.687E+02   0.112E+01 -.532E+00 -.682E+02   0.413E+00 -.362E+00 -.525E+00   0.510E-04 0.112E-04 -.225E-03
   0.907E+01 -.843E+01 0.109E+03   -.886E+01 0.845E+01 -.109E+03   -.460E+00 0.619E+00 0.156E+01   -.187E-03 0.722E-04 -.320E-03
   0.556E+01 -.212E+02 -.121E+03   -.533E+01 0.212E+02 0.121E+03   -.257E+00 0.846E+00 0.101E+01   -.329E-04 0.896E-04 0.398E-03
   -.131E+01 -.207E+00 -.693E+02   0.116E+01 0.328E+00 0.690E+02   0.208E+00 -.170E+00 0.344E+00   0.190E-05 0.344E-04 0.208E-03
   -.162E+00 0.829E-01 -.235E+02   0.216E+00 -.721E-01 0.236E+02   0.184E-01 -.437E-01 -.101E+00   0.450E-07 -.152E-05 0.122E-03
   -.280E+00 0.231E+00 0.236E+02   0.216E+00 -.232E+00 -.236E+02   0.949E-01 -.645E-01 0.692E-01   0.130E-04 -.110E-04 0.499E-06
   -.120E+01 0.183E+01 0.698E+02   0.116E+01 -.189E+01 -.697E+02   0.144E+00 0.390E-01 -.292E+00   -.783E-05 -.466E-04 -.762E-04
   0.474E+01 0.721E+01 0.129E+03   -.442E+01 -.762E+01 -.130E+03   0.191E+00 -.716E+00 -.285E+01   0.101E-03 -.972E-04 -.287E-03
   0.834E+01 0.615E+01 -.117E+03   -.855E+01 -.613E+01 0.117E+03   0.244E+00 -.212E+00 0.139E+00   -.678E-04 -.102E-03 0.353E-03
   -.156E+01 0.190E+01 -.692E+02   0.112E+01 -.164E+01 0.686E+02   0.541E+00 -.358E+00 0.530E+00   -.110E-04 -.328E-04 0.187E-03
   -.272E+00 0.210E+00 -.236E+02   0.215E+00 -.212E+00 0.236E+02   0.122E+00 -.510E-01 0.210E-01   0.253E-04 -.425E-04 0.112E-03
   -.202E+00 0.112E+00 0.236E+02   0.215E+00 -.926E-01 -.237E+02   0.782E-01 -.358E-01 0.732E-01   0.122E-04 -.349E-04 -.287E-04
   -.134E+01 0.191E+00 0.705E+02   0.112E+01 0.190E-01 -.702E+02   0.304E+00 -.264E+00 -.232E+00   -.210E-04 0.241E-04 -.109E-03
   0.781E+01 -.154E+02 0.140E+03   -.787E+01 0.151E+02 -.140E+03   0.561E+00 0.106E+01 -.697E+01   -.570E-04 0.132E-03 -.279E-03
 -----------------------------------------------------------------------------------------------
   -.277E+01 0.288E+00 0.710E+01   -.560E-13 -.604E-13 0.199E-12   0.317E+01 -.624E+00 -.731E+01   -.256E-03 -.356E-04 -.151E-02
 
 
 POSITION                                       TOTAL-FORCE (eV/Angst)
 -----------------------------------------------------------------------------------
      7.83634      5.42446      0.00000        -0.932146      0.258353      7.451846
      5.83600      2.59556      2.00033        -0.203715     -0.076065      0.106893
    -12.16701     11.08226      4.00067        -0.049953     -0.100535     -0.079663
      1.83533      8.25336      6.00100        -0.029044     -0.037538      0.001195
     -0.16500      5.42446      8.00134         0.016489     -0.045285     -0.002227
     -2.16533      2.59556     10.00167         0.136639      0.366864      0.200713
     -0.16500     11.08226      0.00000         0.134941      0.831828     -0.188771
     -2.16533      8.25336      2.00033        -0.024750     -0.174103     -0.155095
     -4.16567      5.42445      4.00067        -0.004062     -0.054153      0.048738
      9.83667      2.59556      6.00100        -0.019987     -0.102683      0.063183
     -8.16634     11.08226      8.00134         0.029925     -0.285154      0.088608
    -10.16667      8.25336     10.00167        -0.477793      0.693291     -1.692038
     -0.16500      5.42446      0.00000        -0.932146      0.258353      7.451846
     -2.16533      2.59556      2.00033        -0.203715     -0.076065      0.106893
     -4.16567     11.08226      4.00067        -0.049953     -0.100535     -0.079663
     -6.16600      8.25336      6.00100        -0.029044     -0.037538      0.001195
      7.83634      5.42446      8.00134         0.016489     -0.045285     -0.002227
      5.83600      2.59556     10.00167         0.136639      0.366864      0.200713
     -8.16634     11.08226      0.00000         0.134941      0.831828     -0.188771
    -10.16667      8.25336      2.00033        -0.024750     -0.174103     -0.155095
      3.83567      5.42445      4.00067        -0.004062     -0.054153      0.048738
      1.83533      2.59556      6.00100        -0.019987     -0.102683      0.063183
     -0.16500     11.08226      8.00134         0.029925     -0.285154      0.088608
     -2.16533      8.25336     10.00167        -0.477793      0.693291     -1.692038
     -4.16567      5.42446      0.00000         0.018707      0.020054     -0.195319
      9.83667      2.59556      2.00034        -0.105660     -0.142492      0.104183
     -8.16634     11.08226      4.00067        -0.026659     -0.061982     -0.065418
    -10.16667      8.25336      6.00100        -0.036732     -0.032661     -0.023109
      3.83567      5.42446      8.00134         0.046207      0.010439     -0.131761
      1.83533      2.59556     10.00167         0.341757      1.540181     -3.167962
    -12.16701     11.08226      0.00000        -0.322073      1.422635      1.204715
      1.83533      8.25336      2.00033         0.089026     -0.073686      0.000347
     -0.16500      5.42445      4.00067        -0.027633     -0.059691      0.090425
     -2.16533      2.59556      6.00100        -0.032258     -0.027995      0.073238
     -4.16567     11.08226      8.00134         0.005506     -0.349638      0.090276
     -6.16600      8.25336     10.00167        -0.023710      0.872332      0.712034
      3.83567      5.42446      0.00000         0.018707      0.020054     -0.195319
      1.83533      2.59556      2.00033        -0.105660     -0.142492      0.104183
     -0.16500     11.08226      4.00067        -0.026659     -0.061982     -0.065418
     -2.16533      8.25336      6.00100        -0.036732     -0.032661     -0.023109
     -4.16567      5.42446      8.00134         0.046207      0.010439     -0.131761
      9.83667      2.59556     10.00167         0.341757      1.540181     -3.167962
     -4.16567     11.08226      0.00000        -0.322073      1.422635      1.204715
     -6.16600      8.25336      2.00034         0.089026     -0.073686      0.000347
      7.83634      5.42445      4.00067        -0.027633     -0.059691      0.090425
      5.83600      2.59556      6.00100        -0.032258     -0.027995      0.073238
    -12.16701     11.08226      8.00134         0.005506     -0.349638      0.090276
      1.83533      8.25336     10.00167        -0.023710      0.872332      0.712034
    -10.16667      9.66781      0.00000         1.424937     -1.217863      4.531666
      3.83567      6.83891      2.00033        -0.073094     -0.006215      0.049774
      1.83533      4.01001      4.00067         0.054901      0.056649     -0.084692
     -0.16500      1.18111      6.00100        -0.002056      0.095633      0.103192
     -2.16533      9.66781      8.00134        -0.133688      0.062941     -0.067927
     -4.16567      6.83891     10.00167        -0.395103      0.194249     -0.228933
     -2.16533      4.01001      0.00000        -0.459671     -0.894133     -0.164204
     11.83701      1.18111      2.00033         0.119146      0.296823      0.040860
     -6.16600      9.66781      4.00067         0.016489      0.052487     -0.023753
     -8.16634      6.83891      6.00100         0.041873      0.077402     -0.060534
      5.83600      4.01001      8.00134         0.020216      0.148151      0.097893
      3.83567      1.18110     10.00167         0.167013     -1.154939     -1.076583
     -2.16533      9.66781      0.00000         1.424937     -1.217863      4.531666
     -4.16567      6.83891      2.00033        -0.073094     -0.006215      0.049774
      9.83667      4.01001      4.00067         0.054901      0.056649     -0.084692
      7.83634      1.18111      6.00100        -0.002056      0.095633      0.103192
    -10.16667      9.66781      8.00134        -0.133688      0.062941     -0.067927
      3.83567      6.83891     10.00167        -0.395103      0.194249     -0.228933
      5.83600      4.01001      0.00000        -0.459671     -0.894133     -0.164204
      3.83567      1.18111      2.00033         0.119146      0.296823      0.040860
      1.83533      9.66781      4.00067         0.016489      0.052487     -0.023753
     -0.16500      6.83891      6.00100         0.041873      0.077402     -0.060534
     -2.16533      4.01001      8.00134         0.020216      0.148151      0.097893
     11.83701      1.18110     10.00167         0.167013     -1.154939     -1.076583
      1.83533      9.66781      0.00000        -1.225419      0.771186      2.349937
     -0.16500      6.83891      2.00034        -0.096894      0.095910     -0.213419
     -2.16534      4.01001      4.00067         0.031416      0.060267     -0.110133
     11.83700      1.18111      6.00101         0.016157      0.102805      0.058225
     -6.16600      9.66781      8.00134        -0.013829     -0.101233     -0.143954
     -8.16634      6.83891     10.00167         0.591199     -0.340179     -1.292407
      9.83667      4.01001      0.00000        -0.221646     -1.274864      0.188779
      7.83634      1.18111      2.00033         0.145102      0.048020     -0.040336
    -10.16667      9.66781      4.00067        -0.001803      0.083366      0.006532
      3.83567      6.83891      6.00100        -0.016172      0.058114     -0.041514
      1.83533      4.01001      8.00134        -0.126021      0.391334      0.166174
     -0.16500      1.18110     10.00167        -0.783455     -0.389934     -0.419192
     -6.16600      9.66781      0.00000        -1.225419      0.771186      2.349937
     -8.16634      6.83891      2.00033        -0.096894      0.095910     -0.213419
      5.83600      4.01001      4.00067         0.031416      0.060267     -0.110133
      3.83567      1.18111      6.00100         0.016157      0.102805      0.058225
      1.83534      9.66781      8.00134        -0.013829     -0.101233     -0.143954
     -0.16500      6.83891     10.00167         0.591199     -0.340179     -1.292407
      1.83533      4.01001      0.00000        -0.221646     -1.274864      0.188779
     -0.16500      1.18111      2.00033         0.145102      0.048020     -0.040336
     -2.16533      9.66781      4.00067        -0.001803      0.083366      0.006532
     -4.16567      6.83891      6.00100        -0.016172      0.058114     -0.041514
      9.83667      4.01001      8.00134        -0.126021      0.391334      0.166174
      7.83634      1.18110     10.00167        -0.783455     -0.389934     -0.419192
      1.35358     10.15503     12.16561         0.319693     -0.892535     -0.758960
     -2.64709     10.15503     14.45989        -0.167529      0.084690     -0.134143
     -6.64776     10.15502     16.75417        -0.028276      0.043150      0.020256
    -10.64843     10.15503     19.04844        -0.038945      0.031284      0.014149
      1.35358     10.15502     21.34272        -0.112849      0.052532      0.049698
     -2.64709     10.15502     23.63700        -0.396512     -0.030145     -5.278625
      6.68780      6.38316     12.16561         0.150758     -1.089201      2.191948
      2.68714      6.38316     14.45989        -0.091819      0.091036      0.088652
     -1.31353      6.38316     16.75417        -0.035865     -0.002194      0.022495
     -5.31420      6.38316     19.04844        -0.017224      0.034904     -0.012968
      6.68781      6.38316     21.34272        -0.104944      0.082202      0.061911
      2.68714      6.38316     23.63700         0.506078      0.303731     -0.739659
     12.02203      2.61129     12.16561         1.273176      0.536490      1.180678
      8.02136      2.61129     14.45989        -0.167532      0.133778      0.118117
      4.02069      2.61129     16.75417        -0.039082      0.064221      0.006578
      0.02002      2.61129     19.04844        -0.054652      0.028691     -0.023877
     12.02203      2.61129     21.34272        -0.143830      0.135610     -0.125130
      8.02136      2.61129     23.63700         0.855827     -0.552609      0.390865
     -6.64776     10.15503     12.16561         0.319693     -0.892535     -0.758960
    -10.64843     10.15503     14.45989        -0.167529      0.084690     -0.134143
      1.35358     10.15503     16.75417        -0.028276      0.043150      0.020256
     -2.64709     10.15502     19.04844        -0.038945      0.031284      0.014149
     -6.64776     10.15502     21.34272        -0.112849      0.052532      0.049698
    -10.64843     10.15502     23.63700        -0.396512     -0.030145     -5.278625
     -1.31353      6.38316     12.16561         0.150758     -1.089201      2.191948
     -5.31420      6.38316     14.45989        -0.091819      0.091036      0.088652
      6.68781      6.38316     16.75417        -0.035865     -0.002194      0.022495
      2.68714      6.38316     19.04844        -0.017224      0.034904     -0.012968
     -1.31353      6.38316     21.34272        -0.104944      0.082202      0.061911
     -5.31420      6.38316     23.63700         0.506078      0.303731     -0.739659
      4.02069      2.61129     12.16561         1.273176      0.536490      1.180678
      0.02002      2.61129     14.45989        -0.167532      0.133778      0.118117
     12.02203      2.61129     16.75417        -0.039082      0.064221      0.006578
      8.02136      2.61129     19.04844        -0.054652      0.028691     -0.023877
      4.02069      2.61129     21.34272        -0.143830      0.135610     -0.125130
      0.02002      2.61129     23.63700         0.855827     -0.552609      0.390865
      9.35492      1.66833     12.16561        -1.063373     -0.862041      3.276667
      5.35425      1.66833     14.45989         0.158255     -0.084711      0.160693
      1.35358      1.66833     16.75417         0.054514     -0.089037     -0.014103
     13.35559      1.66832     19.04844         0.087240     -0.071674      0.033209
      9.35492      1.66832     21.34272         0.120903     -0.104168      0.001264
      5.35425      1.66832     23.63700        -0.257858      0.637550      0.740136
     -1.31353      9.21206     12.16561        -0.028416      0.827875      1.318092
     -5.31420      9.21206     14.45989         0.058912     -0.046802      0.112586
     -9.31487      9.21206     16.75417         0.069379     -0.030891     -0.019399
      2.68714      9.21206     19.04844         0.028540     -0.063537      0.015307
     -1.31353      9.21206     21.34272         0.106513     -0.024755     -0.186197
     -5.31420      9.21206     23.63700         0.505628     -1.131049     -3.165934
      4.02069      5.44019     12.16561         0.025956     -0.191314      0.318284
      0.02002      5.44019     14.45989         0.104523     -0.102130     -0.135441
     -3.98064      5.44019     16.75417         0.062907     -0.051910     -0.013913
      8.02136      5.44019     19.04844         0.089031     -0.014751      0.007374
      4.02069      5.44019     21.34272         0.087104     -0.051928      0.074809
      0.02002      5.44019     23.63700         0.501148      0.791343     -7.755899
      1.35358      1.66833     12.16561        -1.063373     -0.862041      3.276667
     13.35559      1.66833     14.45989         0.158255     -0.084711      0.160693
      9.35492      1.66832     16.75417         0.054514     -0.089037     -0.014103
      5.35425      1.66833     19.04844         0.087240     -0.071674      0.033209
      1.35358      1.66832     21.34272         0.120903     -0.104168      0.001264
     13.35558      1.66832     23.63700        -0.257858      0.637550      0.740136
     -9.31487      9.21206     12.16561        -0.028416      0.827875      1.318092
      2.68714      9.21206     14.45989         0.058912     -0.046802      0.112586
     -1.31353      9.21206     16.75417         0.069379     -0.030891     -0.019399
     -5.31420      9.21206     19.04844         0.028540     -0.063537      0.015307
     -9.31487      9.21206     21.34272         0.106513     -0.024755     -0.186197
      2.68714      9.21206     23.63700         0.505628     -1.131049     -3.165934
     -3.98065      5.44019     12.16561         0.025956     -0.191314      0.318284
      8.02136      5.44019     14.45989         0.104523     -0.102130     -0.135441
      4.02069      5.44019     16.75417         0.062907     -0.051910     -0.013913
      0.02002      5.44019     19.04844         0.089031     -0.014751      0.007374
     -3.98065      5.44019     21.34272         0.087104     -0.051928      0.074809
      8.02136      5.44019     23.63700         0.501148      0.791343     -7.755899
 -----------------------------------------------------------------------------------
    total drift:                                0.399788     -0.336004     -0.211111


--------------------------------------------------------------------------------------------------------



  FREE ENERGIE OF THE ION-ELECTRON SYSTEM (eV)
  ---------------------------------------------------
  free  energy   TOTEN  =      -676.44012627 eV

  energy  without entropy=     -676.43746063  energy(sigma->0) =     -676.43879345
 


--------------------------------------------------------------------------------------------------------


    POTLOK:  cpu time      3.4519: real time      3.4781


--------------------------------------------------------------------------------------------------------


     LOOP+:  cpu time   1836.4292: real time   1857.1239
    4ORBIT:  cpu time      0.0000: real time      0.0000

 total amount of memory used by VASP MPI-rank0   350980. kBytes
=======================================================================

   base      :      30000. kBytes
   nonlr-proj:      31220. kBytes
   fftplans  :      48760. kBytes
   grid      :      39727. kBytes
   one-center:        178. kBytes
   wavefun   :     201095. kBytes
 
  
  
 General timing and accounting informations for this job:
 ========================================================
  
                  Total CPU time used (sec):     1991.315
                            User time (sec):     1862.006
                          System time (sec):      129.309
                         Elapsed time (sec):     2020.267
  
                   Maximum memory used (kb):      689568.
                   Average memory used (kb):          N/A
  
                          Minor page faults:       398442
                          Major page faults:          730
                 Voluntary context switches:         3714
