Si and Ge interface calculation         
           1
    16.002676    0.000000    0.000000
   -16.002676   11.315601    0.000000
     0.000000    0.000000   25.800938
   Ge   Sn
    96    72
Direct configuration=     1
   0.96906769  0.47937849  0.00000001
   0.59406769  0.22937848  0.07752953
   0.21906763  0.97937840  0.15505910
   0.84406769  0.72937846  0.23258862
   0.46906781  0.47937852  0.31011814
   0.09406769  0.22937846  0.38764766
   0.96906769  0.97937846  0.00000001
   0.59406769  0.72937846  0.07752954
   0.21906763  0.47937840  0.15505908
   0.84406769  0.22937846  0.23258862
   0.46906781  0.97937858  0.31011811
   0.09406769  0.72937846  0.38764766
   0.46906772  0.47937849  0.00000001
   0.09406771  0.22937848  0.07752954
   0.71906763  0.97937840  0.15505908
   0.34406775  0.72937846  0.23258862
   0.96906781  0.47937852  0.31011811
   0.59406769  0.22937846  0.38764766
   0.46906769  0.97937846  0.00000000
   0.09406770  0.72937846  0.07752953
   0.71906763  0.47937840  0.15505908
   0.34406769  0.22937846  0.23258862
   0.96906781  0.97937858  0.31011814
   0.59406769  0.72937846  0.38764763
   0.21906771  0.47937849  0.00000001
   0.84406769  0.22937848  0.07752955
   0.46906763  0.97937840  0.15505908
   0.09406769  0.72937846  0.23258862
   0.71906781  0.47937852  0.31011814
   0.34406769  0.22937846  0.38764763
   0.21906768  0.97937846  0.00000001
   0.84406769  0.72937846  0.07752954
   0.46906763  0.47937840  0.15505908
   0.09406769  0.22937846  0.23258862
   0.71906781  0.97937858  0.31011814
   0.34406769  0.72937846  0.38764766
   0.71906769  0.47937849  0.00000001
   0.34406772  0.22937848  0.07752954
   0.96906763  0.97937840  0.15505908
   0.59406769  0.72937846  0.23258862
   0.21906775  0.47937852  0.31011814
   0.84406769  0.22937846  0.38764763
   0.71906763  0.97937846  0.00000001
   0.34406769  0.72937846  0.07752956
   0.96906763  0.47937840  0.15505908
   0.59406769  0.22937846  0.23258862
   0.21906787  0.97937858  0.31011817
   0.84406769  0.72937846  0.38764766
   0.21906774  0.85437852  0.00000000
   0.84406769  0.60437846  0.07752954
   0.46906769  0.35437846  0.15505908
   0.09406775  0.10437850  0.23258862
   0.71906781  0.85437852  0.31011811
   0.34406769  0.60437852  0.38764766
   0.21906768  0.35437846  0.00000001
   0.84406769  0.10437846  0.07752953
   0.46906763  0.85437840  0.15505908
   0.09406763  0.60437846  0.23258862
   0.71906769  0.35437846  0.31011814
   0.34406757  0.10437840  0.38764763
   0.71906775  0.85437852  0.00000001
   0.34406766  0.60437846  0.07752954
   0.96906763  0.35437846  0.15505907
   0.59406769  0.10437850  0.23258862
   0.21906781  0.85437852  0.31011814
   0.84406769  0.60437852  0.38764763
   0.71906769  0.35437846  0.00000001
   0.34406769  0.10437846  0.07752954
   0.96906763  0.85437840  0.15505910
   0.59406769  0.60437846  0.23258862
   0.21906775  0.35437846  0.31011814
   0.84406757  0.10437840  0.38764766
   0.96906769  0.85437852  0.00000002
   0.59406763  0.60437846  0.07752956
   0.21906763  0.35437846  0.15505908
   0.84406757  0.10437850  0.23258865
   0.46906781  0.85437852  0.31011817
   0.09406769  0.60437852  0.38764766
   0.96906769  0.35437846  0.00000000
   0.59406769  0.10437846  0.07752954
   0.21906763  0.85437840  0.15505908
   0.84406769  0.60437846  0.23258862
   0.46906769  0.35437846  0.31011811
   0.09406769  0.10437840  0.38764763
   0.46906775  0.85437852  0.00000000
   0.09406768  0.60437846  0.07752954
   0.71906769  0.35437846  0.15505908
   0.34406775  0.10437850  0.23258862
   0.96906781  0.85437852  0.31011811
   0.59406781  0.60437852  0.38764763
   0.46906769  0.35437846  0.00000001
   0.09406769  0.10437846  0.07752954
   0.71906763  0.85437840  0.15505907
   0.34406769  0.60437846  0.23258862
   0.96906769  0.35437846  0.31011814
   0.59406769  0.10437840  0.38764763
   0.98202050  0.89743590  0.47151807
   0.73202050  0.89743590  0.56044036
   0.48202038  0.89743573  0.64936268
   0.23202032  0.89743578  0.73828494
   0.98202026  0.89743561  0.82720727
   0.73202026  0.89743561  0.91612959
   0.98202050  0.56410259  0.47151807
   0.73202050  0.56410253  0.56044036
   0.48202038  0.56410241  0.64936268
   0.23202032  0.56410235  0.73828494
   0.98202026  0.56410223  0.82720727
   0.73202026  0.56410223  0.91612959
   0.98202050  0.23076923  0.47151807
   0.73202050  0.23076916  0.56044036
   0.48202038  0.23076904  0.64936268
   0.23202032  0.23076904  0.73828494
   0.98202026  0.23076892  0.82720727
   0.73202026  0.23076880  0.91612959
   0.48202050  0.89743590  0.47151807
   0.23202048  0.89743590  0.56044036
   0.98202038  0.89743578  0.64936268
   0.73202038  0.89743573  0.73828494
   0.48202032  0.89743555  0.82720727
   0.23202026  0.89743555  0.91612959
   0.48202050  0.56410259  0.47151807
   0.23202048  0.56410253  0.56044036
   0.98202038  0.56410241  0.64936268
   0.73202038  0.56410241  0.73828494
   0.48202032  0.56410229  0.82720727
   0.23202026  0.56410217  0.91612959
   0.48202050  0.23076928  0.47151807
   0.23202048  0.23076916  0.56044036
   0.98202038  0.23076916  0.64936268
   0.73202038  0.23076904  0.73828494
   0.48202032  0.23076892  0.82720727
   0.23202026  0.23076892  0.91612959
   0.73202050  0.14743602  0.47151807
   0.48202047  0.14743590  0.56044042
   0.23202039  0.14743590  0.64936268
   0.98202032  0.14743578  0.73828494
   0.73202026  0.14743567  0.82720733
   0.48202026  0.14743567  0.91612959
   0.73202050  0.81410259  0.47151807
   0.48202047  0.81410253  0.56044042
   0.23202039  0.81410241  0.64936268
   0.98202032  0.81410241  0.73828494
   0.73202026  0.81410235  0.82720733
   0.48202026  0.81410229  0.91612959
   0.73202050  0.48076922  0.47151807
   0.48202047  0.48076916  0.56044042
   0.23202039  0.48076910  0.64936268
   0.98202032  0.48076904  0.73828494
   0.73202026  0.48076898  0.82720733
   0.48202026  0.48076892  0.91612959
   0.23202050  0.14743602  0.47151807
   0.98202050  0.14743590  0.56044042
   0.73202038  0.14743578  0.64936268
   0.48202026  0.14743590  0.73828494
   0.23202032  0.14743567  0.82720727
   0.98202026  0.14743578  0.91612959
   0.23202050  0.81410259  0.47151807
   0.98202050  0.81410253  0.56044042
   0.73202038  0.81410241  0.64936268
   0.48202026  0.81410235  0.73828494
   0.23202032  0.81410229  0.82720727
   0.98202026  0.81410235  0.91612959
   0.23202050  0.48076928  0.47151807
   0.98202050  0.48076922  0.56044042
   0.73202038  0.48076910  0.64936268
   0.48202026  0.48076898  0.73828494
   0.23202032  0.48076904  0.82720727
   0.98202026  0.48076898  0.91612959
