Si Bulk DFT energetics calculations using VASP\n
This script is running on comp049.cluster.local in /lustre/home/ah1365/projects/127870/upgrade_report/case_studies/common/structures/interfaces/120_Si36C84_012_012_a0.280303_b0.074074_c1.482413_interface11shift7\n
Job started on: Sun  8 Jun 00:54:35 UTC 2025\n
 running   64 mpi-ranks, on    4 nodes
 distrk:  each k-point on   64 cores,    1 groups
 distr:  one band on   16 cores,    4 groups
 vasp.6.4.3 19Mar24 (build Oct 22 2024 11:23:12) complex                        
  
 POSCAR found type information on POSCAR SiC 
 POSCAR found :  2 types and     120 ions
 -----------------------------------------------------------------------------
|                                                                             |
|           W    W    AA    RRRRR   N    N  II  N    N   GGGG   !!!           |
|           W    W   A  A   R    R  NN   N  II  NN   N  G    G  !!!           |
|           W    W  A    A  R    R  N N  N  II  N N  N  G       !!!           |
|           W WW W  AAAAAA  RRRRR   N  N N  II  N  N N  G  GGG   !            |
|           WW  WW  A    A  R   R   N   NN  II  N   NN  G    G                |
|           W    W  A    A  R    R  N    N  II  N    N   GGGG   !!!           |
|                                                                             |
|     You use a magnetic or noncollinear calculation, but did not specify     |
|     the initial magnetic moment with the MAGMOM tag. Note that a            |
|     default of 8.333e-3 will be used for all atoms. This ferromagnetic      |
|     setup may break the symmetry of the crystal, in particular it may       |
|     rule out finding an antiferromagnetic solution. Thence, we              |
|     recommend setting the initial magnetic moment manually or verifying     |
|     carefully that this magnetic setup is desired.                          |
|                                                                             |
 -----------------------------------------------------------------------------

 scaLAPACK will be used
 LDA part: xc-table for (Slater+PW92), standard interpolation
 POSCAR, INCAR and KPOINTS ok, starting setup
 FFT: planning ... GRIDC
 FFT: planning ... GRID_SOFT
 FFT: planning ... GRID
 WAVECAR not read
 entering main loop
       N       E                     dE             d eps       ncg     rms          rms(c)
DAV:   1     0.238092551702E+04    0.23809E+04   -0.25585E+05 16128   0.186E+03
DAV:   2    -0.514412717534E+03   -0.28953E+04   -0.27641E+04 19800   0.293E+02
DAV:   3    -0.825869497968E+03   -0.31146E+03   -0.29711E+03 19976   0.898E+01
DAV:   4    -0.842504896741E+03   -0.16635E+02   -0.16027E+02 21544   0.203E+01
DAV:   5    -0.843372268506E+03   -0.86737E+00   -0.85275E+00 23152   0.407E+00    0.406E+01
DAV:   6    -0.829728317750E+03    0.13644E+02   -0.38375E+02 22136   0.369E+01    0.338E+01
DAV:   7    -0.794143124483E+03    0.35585E+02   -0.17639E+02 22456   0.259E+01    0.125E+01
DAV:   8    -0.797852629461E+03   -0.37095E+01   -0.34593E+01 21816   0.116E+01    0.905E+00
DAV:   9    -0.795970762733E+03    0.18819E+01   -0.98467E+00 21112   0.865E+00    0.496E+00
DAV:  10    -0.795514873280E+03    0.45589E+00   -0.31521E+00 22512   0.411E+00    0.264E+00
DAV:  11    -0.795433241239E+03    0.81632E-01   -0.10965E+00 21336   0.233E+00    0.162E+00
DAV:  12    -0.795430923970E+03    0.23173E-02   -0.30192E-01 20608   0.127E+00    0.112E+00
DAV:  13    -0.795424393117E+03    0.65309E-02   -0.10893E-01 21360   0.835E-01    0.701E-01
DAV:  14    -0.795420919884E+03    0.34732E-02   -0.39327E-02 21360   0.495E-01    0.355E-01
DAV:  15    -0.795419458142E+03    0.14617E-02   -0.13447E-02 21496   0.279E-01    0.203E-01
DAV:  16    -0.795419054833E+03    0.40331E-03   -0.54146E-03 21880   0.166E-01    0.117E-01
DAV:  17    -0.795418834209E+03    0.22062E-03   -0.15415E-03 21448   0.891E-02    0.524E-02
DAV:  18    -0.795418842560E+03   -0.83502E-05   -0.49420E-04 21304   0.432E-02    0.294E-02
DAV:  19    -0.795418846031E+03   -0.34714E-05   -0.13998E-04 21080   0.233E-02    0.156E-02
DAV:  20    -0.795418850959E+03   -0.49282E-05   -0.36370E-05 20608   0.126E-02    0.103E-02
DAV:  21    -0.795418855069E+03   -0.41099E-05   -0.13139E-05 20968   0.739E-03    0.703E-03
DAV:  22    -0.795418856819E+03   -0.17502E-05   -0.51317E-06 21784   0.489E-03    0.521E-03
DAV:  23    -0.795418857639E+03   -0.82000E-06   -0.27020E-06 21528   0.356E-03    0.378E-03
DAV:  24    -0.795418858228E+03   -0.58912E-06   -0.19132E-06 20896   0.271E-03    0.226E-03
DAV:  25    -0.795418858491E+03   -0.26276E-06   -0.10385E-06 20368   0.187E-03    0.119E-03
DAV:  26    -0.795418858537E+03   -0.45431E-07   -0.26501E-07 11544   0.115E-03
   1 F= -.79541886E+03 E0= -.79541760E+03  d E =-.252555E-02  mag=     1.0000
Job ended on: Sun  8 Jun 01:11:17 UTC 2025\n
