Si and Ge interface calculation         
           1
    13.303180    0.000000    0.000000
     6.651589   14.873406    0.000000
     0.000000    0.000000    7.994752
   Si   C 
    36    84
Direct configuration=     1
   0.28324950  0.64162475  0.00000005
   0.81658280  0.40829128  0.15190083
   0.34991598  0.17495777  0.30380166
   0.61658275  0.30829138  0.00000006
   0.14991605  0.07495793  0.15190083
   0.68324923  0.84162444  0.30380163
   0.94991612  0.97495806  0.00000004
   0.48324949  0.74162459  0.15190083
   0.01658267  0.50829112  0.30380163
   0.79991627  0.77495801  0.07595029
   0.33324951  0.54162455  0.22785109
   0.86658275  0.30829108  0.37975195
   0.13324969  0.44162476  0.07595030
   0.66658294  0.20829128  0.22785109
   0.19991624  0.97495776  0.37975195
   0.46658289  0.10829154  0.07595030
   0.99991614  0.87495804  0.22785109
   0.53324938  0.64162457  0.37975195
   0.78324956  0.64162475  0.00000000
   0.31658283  0.40829128  0.15190081
   0.84991604  0.17495778  0.30380166
   0.11658280  0.30829140  0.00000006
   0.64991605  0.07495795  0.15190086
   0.18324930  0.84162450  0.30380166
   0.44991612  0.97495806  0.00000006
   0.98324943  0.74162459  0.15190086
   0.51658267  0.50829112  0.30380166
   0.29991618  0.77495813  0.07595030
   0.83324945  0.54162467  0.22785115
   0.36658269  0.30829120  0.37975192
   0.63324940  0.44162473  0.07595032
   0.16658264  0.20829126  0.22785115
   0.69991595  0.97495782  0.37975189
   0.96658272  0.10829155  0.07595030
   0.49991596  0.87495804  0.22785115
   0.03324926  0.64162463  0.37975195
   0.25673318  0.90118557  0.76469648
   0.59959024  0.92975724  0.56517530
   0.92816174  0.91547144  0.66493589
   0.54244733  0.75832850  0.76469648
   0.88530457  0.78690010  0.56517530
   0.21387601  0.77261430  0.66493589
   0.82816160  0.61547136  0.76469648
   0.17101872  0.64404297  0.56517530
   0.49959019  0.62975717  0.66493589
   0.11387598  0.47261417  0.76469648
   0.45673311  0.50118578  0.56517523
   0.78530455  0.48690003  0.66493589
   0.39959028  0.32975704  0.76469648
   0.74244738  0.35832864  0.56517523
   0.07101882  0.34404290  0.66493589
   0.68530452  0.18689993  0.76469648
   0.02816164  0.21547154  0.56517523
   0.35673311  0.20118576  0.66493589
   0.97101891  0.04404283  0.76469654
   0.31387597  0.07261431  0.56517523
   0.64244747  0.05832863  0.66493589
   0.70673299  0.00118554  0.81457668
   0.04959011  0.02975714  0.61505550
   0.37816158  0.01547134  0.71481615
   0.99244726  0.85832846  0.81457668
   0.33530441  0.88690007  0.61505550
   0.66387582  0.87261420  0.71481615
   0.27816153  0.71547133  0.81457681
   0.62101871  0.74404293  0.61505544
   0.94959021  0.72975713  0.71481609
   0.56387591  0.57261425  0.81457668
   0.90673304  0.60118580  0.61505544
   0.23530447  0.58690006  0.71481615
   0.84959030  0.42975712  0.81457681
   0.19244742  0.45832872  0.61505544
   0.52101874  0.44404292  0.71481609
   0.13530445  0.28689992  0.81457681
   0.47816163  0.31547153  0.61505550
   0.80673313  0.30118573  0.71481615
   0.42101887  0.14404279  0.81457668
   0.76387596  0.17261440  0.61505550
   0.09244740  0.15832861  0.71481609
   0.75673306  0.90118563  0.76469648
   0.09959018  0.92975712  0.56517523
   0.42816153  0.91547144  0.66493595
   0.04244757  0.75832850  0.76469654
   0.38530457  0.78690010  0.56517523
   0.71387601  0.77261430  0.66493589
   0.32816186  0.61547136  0.76469654
   0.67101884  0.64404297  0.56517523
   0.99959028  0.62975717  0.66493589
   0.61387598  0.47261423  0.76469654
   0.95673311  0.50118583  0.56517523
   0.28530446  0.48690003  0.66493589
   0.89959013  0.32975715  0.76469654
   0.24244738  0.35832870  0.56517523
   0.57101882  0.34404290  0.66493589
   0.18530464  0.18689996  0.76469654
   0.52816164  0.21547151  0.56517530
   0.85673320  0.20118572  0.66493589
   0.47101882  0.04404283  0.76469654
   0.81387591  0.07261443  0.56517530
   0.14244735  0.05832863  0.66493589
   0.20673311  0.00118566  0.81457668
   0.54959023  0.02975726  0.61505550
   0.87816155  0.01547134  0.71481609
   0.49244741  0.85832852  0.81457668
   0.83530450  0.88690013  0.61505550
   0.16387594  0.87261426  0.71481609
   0.77816164  0.71547133  0.81457668
   0.12101889  0.74404293  0.61505550
   0.44959035  0.72975707  0.71481609
   0.06387579  0.57261425  0.81457663
   0.40673307  0.60118574  0.61505544
   0.73530447  0.58690000  0.71481609
   0.34959033  0.42975706  0.81457668
   0.69244748  0.45832866  0.61505544
   0.02101886  0.44404286  0.71481609
   0.63530433  0.28689989  0.81457668
   0.97816157  0.31547150  0.61505544
   0.30673292  0.30118573  0.71481609
   0.92101872  0.14404288  0.81457668
   0.26387596  0.17261437  0.61505550
   0.59244728  0.15832859  0.71481615
