  96  96   0   0
  0.2882730E+02  0.1131560E-08  0.1789154E-08  0.1366942E-08  0.5000000E-15
  1.000000000000000E-004
  CAR 
 Si and Ge interface calculation         
      6.13777858    -10.53812305  301      3.35567682      1.00000000
    -10.538  0.0000E+00  0.0000E+00  0.0000E+00  0.0000E+00
    -10.483  0.0000E+00  0.0000E+00  0.0000E+00  0.0000E+00
    -10.427  0.0000E+00  0.0000E+00  0.0000E+00  0.0000E+00
    -10.371  0.0000E+00  0.0000E+00  0.0000E+00  0.0000E+00
    -10.316  0.0000E+00  0.0000E+00  0.0000E+00  0.0000E+00
    -10.260  0.0000E+00  0.0000E+00  0.0000E+00  0.0000E+00
    -10.205  0.0000E+00  0.0000E+00  0.0000E+00  0.0000E+00
    -10.149  0.0000E+00  0.0000E+00  0.0000E+00  0.0000E+00
    -10.093  0.0000E+00  0.0000E+00  0.0000E+00  0.0000E+00
    -10.038  0.0000E+00  0.0000E+00  0.0000E+00  0.0000E+00
     -9.982  0.0000E+00  0.0000E+00  0.0000E+00  0.0000E+00
     -9.927  0.0000E+00  0.0000E+00  0.0000E+00  0.0000E+00
     -9.871  0.0000E+00  0.0000E+00  0.0000E+00  0.0000E+00
     -9.816  0.1700E-05  0.5804E-07  0.9450E-07  0.3226E-08
     -9.760  0.3311E+02  0.2537E+02  0.1840E+01  0.1410E+01
     -9.704  0.3885E+02  0.4659E+02  0.4000E+01  0.4000E+01
     -9.649  0.0000E+00  0.0000E+00  0.4000E+01  0.4000E+01
     -9.593  0.0000E+00  0.0000E+00  0.4000E+01  0.4000E+01
     -9.538  0.0000E+00  0.0000E+00  0.4000E+01  0.4000E+01
     -9.482  0.0000E+00  0.0000E+00  0.4000E+01  0.4000E+01
     -9.426  0.0000E+00  0.0000E+00  0.4000E+01  0.4000E+01
     -9.371  0.0000E+00  0.0000E+00  0.4000E+01  0.4000E+01
     -9.315  0.0000E+00  0.0000E+00  0.4000E+01  0.4000E+01
     -9.260  0.0000E+00  0.0000E+00  0.4000E+01  0.4000E+01
     -9.204  0.0000E+00  0.0000E+00  0.4000E+01  0.4000E+01
     -9.148  0.0000E+00  0.0000E+00  0.4000E+01  0.4000E+01
     -9.093  0.0000E+00  0.0000E+00  0.4000E+01  0.4000E+01
     -9.037  0.6867E-01  0.3064E-02  0.4004E+01  0.4000E+01
     -8.982  0.5318E+02  0.4078E+02  0.6960E+01  0.6267E+01
     -8.926  0.1872E+02  0.3118E+02  0.8000E+01  0.8000E+01
     -8.871  0.0000E+00  0.0000E+00  0.8000E+01  0.8000E+01
     -8.815  0.0000E+00  0.0000E+00  0.8000E+01  0.8000E+01
     -8.759  0.4670E-12  0.0000E+00  0.8000E+01  0.8000E+01
     -8.704  0.7533E+01  0.2972E+01  0.8419E+01  0.8165E+01
     -8.648  0.3875E+02  0.3531E+02  0.1057E+02  0.1013E+02
     -8.593  0.7686E+01  0.1569E+02  0.1100E+02  0.1100E+02
     -8.537  0.1798E+02  0.1792E+02  0.1200E+02  0.1200E+02
     -8.481  0.3964E-02  0.6539E-01  0.1200E+02  0.1200E+02
     -8.426  0.0000E+00  0.0000E+00  0.1200E+02  0.1200E+02
     -8.370  0.0000E+00  0.0000E+00  0.1200E+02  0.1200E+02
     -8.315  0.0000E+00  0.0000E+00  0.1200E+02  0.1200E+02
     -8.259  0.1429E-07  0.1365E-10  0.1200E+02  0.1200E+02
     -8.203  0.9066E+01  0.4938E+01  0.1250E+02  0.1227E+02
     -8.148  0.8924E+01  0.1305E+02  0.1300E+02  0.1300E+02
     -8.092  0.5130E-06  0.1227E-09  0.1300E+02  0.1300E+02
     -8.037  0.1575E+02  0.9089E+01  0.1388E+02  0.1351E+02
     -7.981  0.3223E+02  0.3888E+02  0.1567E+02  0.1567E+02
     -7.926  0.1014E+02  0.1538E+01  0.1623E+02  0.1575E+02
     -7.870  0.1985E+02  0.2845E+02  0.1733E+02  0.1733E+02
     -7.814  0.2987E+02  0.2724E+02  0.1899E+02  0.1885E+02
     -7.759  0.1145E+02  0.1113E+02  0.1963E+02  0.1947E+02
     -7.703  0.1549E+01  0.3666E+01  0.1972E+02  0.1967E+02
     -7.648  0.5246E+01  0.5938E+01  0.2001E+02  0.2000E+02
     -7.592  0.1236E+02  0.1200E+02  0.2069E+02  0.2067E+02
     -7.536  0.5500E+01  0.5993E+01  0.2100E+02  0.2100E+02
     -7.481  0.5343E-05  0.1509E-08  0.2100E+02  0.2100E+02
     -7.425  0.2709E+02  0.1611E+02  0.2251E+02  0.2190E+02
     -7.370  0.1922E+02  0.2638E+02  0.2357E+02  0.2336E+02
     -7.314  0.3146E+02  0.3368E+02  0.2532E+02  0.2523E+02
     -7.259  0.3473E+02  0.2891E+02  0.2725E+02  0.2684E+02
     -7.203  0.7421E+01  0.1485E+02  0.2767E+02  0.2767E+02
     -7.147  0.7898E+01  0.5436E+01  0.2811E+02  0.2797E+02
     -7.092  0.1950E+02  0.1979E+02  0.2919E+02  0.2907E+02
     -7.036  0.2998E+02  0.1980E+02  0.3086E+02  0.3017E+02
     -6.981  0.2061E+02  0.3209E+02  0.3200E+02  0.3195E+02
     -6.925  0.2829E+02  0.2495E+02  0.3357E+02  0.3334E+02
     -6.869  0.1227E+02  0.1295E+02  0.3426E+02  0.3406E+02
     -6.814  0.3100E+02  0.3162E+02  0.3598E+02  0.3582E+02
     -6.758  0.2039E+02  0.2113E+02  0.3711E+02  0.3699E+02
     -6.703  0.2117E+02  0.2126E+02  0.3829E+02  0.3817E+02
     -6.647  0.7605E+01  0.6696E+01  0.3871E+02  0.3855E+02
     -6.591  0.3395E+02  0.2832E+02  0.4060E+02  0.4012E+02
     -6.536  0.1296E+02  0.1989E+02  0.4132E+02  0.4123E+02
     -6.480  0.1670E+02  0.1085E+02  0.4225E+02  0.4183E+02
     -6.425  0.2304E+02  0.2689E+02  0.4353E+02  0.4332E+02
     -6.369  0.4105E+02  0.4162E+02  0.4581E+02  0.4564E+02
     -6.314  0.4137E+02  0.3898E+02  0.4811E+02  0.4780E+02
     -6.258  0.2306E+02  0.2548E+02  0.4939E+02  0.4922E+02
     -6.202  0.1250E+02  0.1338E+02  0.5009E+02  0.4996E+02
     -6.147  0.2414E+02  0.2253E+02  0.5143E+02  0.5122E+02
     -6.091  0.2394E+02  0.2256E+02  0.5276E+02  0.5247E+02
     -6.036  0.1437E+02  0.1688E+02  0.5356E+02  0.5341E+02
     -5.980  0.3322E+02  0.3035E+02  0.5540E+02  0.5510E+02
     -5.924  0.3877E+02  0.3826E+02  0.5756E+02  0.5722E+02
     -5.869  0.3655E+02  0.3892E+02  0.5959E+02  0.5939E+02
     -5.813  0.1925E+02  0.2237E+02  0.6066E+02  0.6063E+02
     -5.758  0.3204E+02  0.2903E+02  0.6244E+02  0.6224E+02
     -5.702  0.1529E+02  0.1658E+02  0.6329E+02  0.6317E+02
     -5.647  0.2524E+02  0.2321E+02  0.6470E+02  0.6446E+02
     -5.591  0.4149E+02  0.4296E+02  0.6700E+02  0.6684E+02
     -5.535  0.3098E+02  0.3036E+02  0.6872E+02  0.6853E+02
     -5.480  0.4069E+02  0.3817E+02  0.7099E+02  0.7065E+02
     -5.424  0.4514E+02  0.5025E+02  0.7349E+02  0.7345E+02
     -5.369  0.3428E+02  0.2933E+02  0.7540E+02  0.7508E+02
     -5.313  0.3014E+02  0.3276E+02  0.7708E+02  0.7690E+02
     -5.257  0.3690E+02  0.3717E+02  0.7913E+02  0.7896E+02
     -5.202  0.9594E+01  0.1076E+02  0.7966E+02  0.7956E+02
     -5.146  0.3947E+02  0.3979E+02  0.8185E+02  0.8177E+02
     -5.091  0.3706E+02  0.3158E+02  0.8391E+02  0.8353E+02
     -5.035  0.3357E+02  0.3580E+02  0.8578E+02  0.8552E+02
     -4.979  0.3518E+02  0.3816E+02  0.8774E+02  0.8764E+02
     -4.924  0.1121E+02  0.1159E+02  0.8836E+02  0.8828E+02
     -4.868  0.4453E+02  0.4095E+02  0.9083E+02  0.9056E+02
     -4.813  0.2881E+02  0.2884E+02  0.9244E+02  0.9216E+02
     -4.757  0.2520E+02  0.3003E+02  0.9384E+02  0.9383E+02
     -4.702  0.2573E+02  0.2261E+02  0.9527E+02  0.9509E+02
     -4.646  0.3569E+02  0.3678E+02  0.9725E+02  0.9713E+02
     -4.590  0.3109E+02  0.3194E+02  0.9898E+02  0.9891E+02
     -4.535  0.1575E+02  0.1553E+02  0.9985E+02  0.9977E+02
     -4.479  0.3219E+02  0.3223E+02  0.1016E+03  0.1016E+03
     -4.424  0.2231E+02  0.1603E+02  0.1029E+03  0.1025E+03
     -4.368  0.2005E+02  0.2548E+02  0.1040E+03  0.1039E+03
     -4.312  0.1883E+02  0.1731E+02  0.1050E+03  0.1048E+03
     -4.257  0.3429E+02  0.3210E+02  0.1070E+03  0.1066E+03
     -4.201  0.3024E+02  0.3112E+02  0.1086E+03  0.1083E+03
     -4.146  0.2761E+02  0.3226E+02  0.1102E+03  0.1101E+03
     -4.090  0.2804E+02  0.2210E+02  0.1117E+03  0.1114E+03
     -4.035  0.3117E+02  0.3527E+02  0.1135E+03  0.1133E+03
     -3.979  0.2248E+02  0.2025E+02  0.1147E+03  0.1145E+03
     -3.923  0.2106E+02  0.2471E+02  0.1159E+03  0.1158E+03
     -3.868  0.2862E+02  0.2449E+02  0.1175E+03  0.1172E+03
     -3.812  0.2767E+02  0.2598E+02  0.1190E+03  0.1186E+03
     -3.757  0.1486E+02  0.2155E+02  0.1198E+03  0.1198E+03
     -3.701  0.6285E+01  0.3328E+01  0.1202E+03  0.1200E+03
     -3.645  0.3054E+02  0.3150E+02  0.1219E+03  0.1218E+03
     -3.590  0.2123E+02  0.2002E+02  0.1231E+03  0.1229E+03
     -3.534  0.3546E+02  0.3701E+02  0.1250E+03  0.1249E+03
     -3.479  0.2967E+02  0.2373E+02  0.1267E+03  0.1263E+03
     -3.423  0.2881E+02  0.3347E+02  0.1283E+03  0.1281E+03
     -3.367  0.2763E+02  0.2621E+02  0.1298E+03  0.1296E+03
     -3.312  0.2494E+02  0.2748E+02  0.1312E+03  0.1311E+03
     -3.256  0.2690E+02  0.2305E+02  0.1327E+03  0.1324E+03
     -3.201  0.3522E+02  0.3835E+02  0.1347E+03  0.1345E+03
     -3.145  0.2568E+02  0.2365E+02  0.1361E+03  0.1358E+03
     -3.090  0.1009E+02  0.1249E+02  0.1366E+03  0.1365E+03
     -3.034  0.4203E+02  0.3749E+02  0.1390E+03  0.1386E+03
     -2.978  0.3139E+02  0.3548E+02  0.1407E+03  0.1406E+03
     -2.923  0.3459E+02  0.2804E+02  0.1426E+03  0.1421E+03
     -2.867  0.4707E+02  0.5291E+02  0.1453E+03  0.1451E+03
     -2.812  0.2469E+02  0.2121E+02  0.1466E+03  0.1463E+03
     -2.756  0.2028E+02  0.2450E+02  0.1478E+03  0.1476E+03
     -2.700  0.3041E+02  0.2380E+02  0.1495E+03  0.1489E+03
     -2.645  0.2390E+02  0.3116E+02  0.1508E+03  0.1507E+03
     -2.589  0.2627E+02  0.2376E+02  0.1522E+03  0.1520E+03
     -2.534  0.1967E+02  0.1745E+02  0.1533E+03  0.1530E+03
     -2.478  0.2905E+02  0.3265E+02  0.1550E+03  0.1548E+03
     -2.423  0.2139E+02  0.2049E+02  0.1561E+03  0.1559E+03
     -2.367  0.5070E+02  0.5162E+02  0.1590E+03  0.1588E+03
     -2.311  0.1603E+02  0.1872E+02  0.1599E+03  0.1598E+03
     -2.256  0.3146E+02  0.2757E+02  0.1616E+03  0.1614E+03
     -2.200  0.1939E+02  0.2347E+02  0.1627E+03  0.1627E+03
     -2.145  0.1606E+02  0.1495E+02  0.1636E+03  0.1635E+03
     -2.089  0.2278E+02  0.2402E+02  0.1648E+03  0.1648E+03
     -2.033  0.4082E+02  0.3576E+02  0.1671E+03  0.1668E+03
     -1.978  0.1946E+02  0.2182E+02  0.1682E+03  0.1680E+03
     -1.922  0.3370E+02  0.3351E+02  0.1701E+03  0.1699E+03
     -1.867  0.2538E+02  0.2583E+02  0.1715E+03  0.1713E+03
     -1.811  0.1499E+02  0.1525E+02  0.1723E+03  0.1722E+03
     -1.755  0.3128E+02  0.2575E+02  0.1740E+03  0.1736E+03
     -1.700  0.9240E+01  0.1611E+02  0.1746E+03  0.1745E+03
     -1.644  0.2202E+02  0.1974E+02  0.1758E+03  0.1756E+03
     -1.589  0.2191E+02  0.2458E+02  0.1770E+03  0.1770E+03
     -1.533  0.5527E+01  0.1369E+01  0.1773E+03  0.1770E+03
     -1.478  0.2832E+02  0.2841E+02  0.1789E+03  0.1786E+03
     -1.422  0.2184E+02  0.2342E+02  0.1801E+03  0.1799E+03
     -1.366  0.1656E+02  0.1818E+02  0.1810E+03  0.1809E+03
     -1.311  0.2488E+02  0.2338E+02  0.1824E+03  0.1822E+03
     -1.255  0.2212E+02  0.2212E+02  0.1836E+03  0.1835E+03
     -1.200  0.1866E+02  0.2062E+02  0.1847E+03  0.1846E+03
     -1.144  0.3818E+02  0.3306E+02  0.1868E+03  0.1865E+03
     -1.088  0.2330E+02  0.2454E+02  0.1881E+03  0.1878E+03
     -1.033  0.1570E+02  0.1623E+02  0.1890E+03  0.1887E+03
     -0.977  0.2075E+02  0.2124E+02  0.1901E+03  0.1899E+03
     -0.922  0.1607E+02  0.1978E+02  0.1910E+03  0.1910E+03
     -0.866  0.1590E+02  0.1218E+02  0.1919E+03  0.1917E+03
     -0.811  0.3480E+02  0.3737E+02  0.1938E+03  0.1938E+03
     -0.755  0.1948E+02  0.1722E+02  0.1949E+03  0.1947E+03
     -0.699  0.2446E+02  0.2484E+02  0.1963E+03  0.1961E+03
     -0.644  0.1566E+02  0.1366E+02  0.1971E+03  0.1969E+03
     -0.588  0.2645E+02  0.3058E+02  0.1986E+03  0.1986E+03
     -0.533  0.5975E+01  0.4302E+01  0.1989E+03  0.1988E+03
     -0.477  0.3171E+02  0.3084E+02  0.2007E+03  0.2005E+03
     -0.421  0.3542E+02  0.3728E+02  0.2027E+03  0.2026E+03
     -0.366  0.3529E+02  0.3493E+02  0.2046E+03  0.2045E+03
     -0.310  0.2643E+02  0.2398E+02  0.2061E+03  0.2059E+03
     -0.255  0.5002E+02  0.4731E+02  0.2089E+03  0.2085E+03
     -0.199  0.3548E+02  0.3736E+02  0.2108E+03  0.2106E+03
     -0.143  0.4342E+02  0.4404E+02  0.2133E+03  0.2130E+03
     -0.088  0.4142E+02  0.4313E+02  0.2156E+03  0.2154E+03
     -0.032  0.3186E+02  0.2680E+02  0.2173E+03  0.2169E+03
      0.023  0.4696E+02  0.4894E+02  0.2199E+03  0.2196E+03
      0.079  0.4953E+02  0.4207E+02  0.2227E+03  0.2220E+03
      0.134  0.4693E+02  0.4978E+02  0.2253E+03  0.2247E+03
      0.190  0.3588E+02  0.4415E+02  0.2273E+03  0.2272E+03
      0.246  0.4718E+02  0.4429E+02  0.2299E+03  0.2296E+03
      0.301  0.4333E+02  0.4628E+02  0.2323E+03  0.2322E+03
      0.357  0.5392E+02  0.5215E+02  0.2353E+03  0.2351E+03
      0.412  0.6033E+02  0.5154E+02  0.2387E+03  0.2380E+03
      0.468  0.5014E+02  0.5072E+02  0.2415E+03  0.2408E+03
      0.524  0.5289E+02  0.5536E+02  0.2444E+03  0.2439E+03
      0.579  0.5978E+02  0.6120E+02  0.2477E+03  0.2473E+03
      0.635  0.4169E+02  0.4502E+02  0.2501E+03  0.2498E+03
      0.690  0.5831E+02  0.5564E+02  0.2533E+03  0.2529E+03
      0.746  0.6148E+02  0.5946E+02  0.2567E+03  0.2562E+03
      0.801  0.5555E+02  0.5587E+02  0.2598E+03  0.2593E+03
      0.857  0.6669E+02  0.6581E+02  0.2635E+03  0.2629E+03
      0.913  0.5727E+02  0.5257E+02  0.2667E+03  0.2659E+03
      0.968  0.5544E+02  0.5987E+02  0.2698E+03  0.2692E+03
      1.024  0.6878E+02  0.7216E+02  0.2736E+03  0.2732E+03
      1.079  0.6492E+02  0.6255E+02  0.2772E+03  0.2767E+03
      1.135  0.6082E+02  0.6423E+02  0.2806E+03  0.2802E+03
      1.191  0.5903E+02  0.5905E+02  0.2839E+03  0.2835E+03
      1.246  0.5441E+02  0.5275E+02  0.2869E+03  0.2865E+03
      1.302  0.6156E+02  0.5907E+02  0.2903E+03  0.2897E+03
      1.357  0.6267E+02  0.6266E+02  0.2938E+03  0.2932E+03
      1.413  0.4699E+02  0.4632E+02  0.2964E+03  0.2958E+03
      1.469  0.4445E+02  0.4953E+02  0.2989E+03  0.2986E+03
      1.524  0.6919E+02  0.6960E+02  0.3027E+03  0.3024E+03
      1.580  0.4741E+02  0.5202E+02  0.3054E+03  0.3053E+03
      1.635  0.3959E+02  0.3630E+02  0.3076E+03  0.3073E+03
      1.691  0.6406E+02  0.5559E+02  0.3111E+03  0.3104E+03
      1.746  0.3262E+02  0.4034E+02  0.3129E+03  0.3127E+03
      1.802  0.5758E+02  0.5294E+02  0.3161E+03  0.3156E+03
      1.858  0.6463E+02  0.6642E+02  0.3197E+03  0.3193E+03
      1.913  0.3684E+02  0.3908E+02  0.3218E+03  0.3215E+03
      1.969  0.3791E+02  0.3601E+02  0.3239E+03  0.3235E+03
      2.024  0.4135E+02  0.4325E+02  0.3262E+03  0.3259E+03
      2.080  0.5015E+02  0.4464E+02  0.3290E+03  0.3284E+03
      2.136  0.4389E+02  0.4021E+02  0.3314E+03  0.3306E+03
      2.191  0.5243E+02  0.5874E+02  0.3343E+03  0.3339E+03
      2.247  0.5177E+02  0.5303E+02  0.3372E+03  0.3368E+03
      2.302  0.4259E+02  0.4292E+02  0.3396E+03  0.3392E+03
      2.358  0.5696E+02  0.5454E+02  0.3427E+03  0.3422E+03
      2.413  0.3410E+02  0.3182E+02  0.3446E+03  0.3440E+03
      2.469  0.5623E+02  0.5817E+02  0.3478E+03  0.3472E+03
      2.525  0.3951E+02  0.4461E+02  0.3500E+03  0.3497E+03
      2.580  0.3003E+02  0.3135E+02  0.3516E+03  0.3514E+03
      2.636  0.6481E+02  0.5208E+02  0.3552E+03  0.3543E+03
      2.691  0.4048E+02  0.4689E+02  0.3575E+03  0.3569E+03
      2.747  0.5167E+02  0.4690E+02  0.3603E+03  0.3596E+03
      2.803  0.4220E+02  0.4745E+02  0.3627E+03  0.3622E+03
      2.858  0.4531E+02  0.4163E+02  0.3652E+03  0.3645E+03
      2.914  0.3643E+02  0.3622E+02  0.3672E+03  0.3665E+03
      2.969  0.3403E+02  0.3472E+02  0.3691E+03  0.3685E+03
      3.025  0.3659E+02  0.4495E+02  0.3712E+03  0.3709E+03
      3.081  0.1803E+02  0.1653E+02  0.3722E+03  0.3719E+03
      3.136  0.3817E+02  0.2689E+02  0.3743E+03  0.3734E+03
      3.192  0.5990E+02  0.7000E+02  0.3776E+03  0.3773E+03
      3.247  0.2498E+02  0.2071E+02  0.3790E+03  0.3784E+03
      3.303  0.5189E+02  0.4545E+02  0.3819E+03  0.3809E+03
      3.358  0.4385E+02  0.4057E+02  0.3843E+03  0.3832E+03
      3.414  0.3522E+02  0.3926E+02  0.3863E+03  0.3854E+03
      3.470  0.4347E+02  0.4139E+02  0.3887E+03  0.3877E+03
      3.525  0.4438E+02  0.4833E+02  0.3912E+03  0.3904E+03
      3.581  0.3022E+02  0.3172E+02  0.3928E+03  0.3921E+03
      3.636  0.4371E+02  0.3991E+02  0.3953E+03  0.3943E+03
      3.692  0.3056E+02  0.4219E+02  0.3970E+03  0.3967E+03
      3.748  0.5395E+02  0.4652E+02  0.4000E+03  0.3993E+03
      3.803  0.5419E+02  0.5844E+02  0.4030E+03  0.4025E+03
      3.859  0.3958E+02  0.3506E+02  0.4052E+03  0.4045E+03
      3.914  0.3923E+02  0.4031E+02  0.4074E+03  0.4067E+03
      3.970  0.3877E+02  0.4756E+02  0.4095E+03  0.4094E+03
      4.025  0.3346E+02  0.2219E+02  0.4114E+03  0.4106E+03
      4.081  0.1574E+02  0.2161E+02  0.4123E+03  0.4118E+03
      4.137  0.4162E+02  0.4135E+02  0.4146E+03  0.4141E+03
      4.192  0.3766E+02  0.3642E+02  0.4167E+03  0.4161E+03
      4.248  0.3894E+02  0.3306E+02  0.4188E+03  0.4179E+03
      4.303  0.3192E+02  0.4110E+02  0.4206E+03  0.4202E+03
      4.359  0.5098E+02  0.5351E+02  0.4234E+03  0.4232E+03
      4.415  0.2821E+02  0.2998E+02  0.4250E+03  0.4249E+03
      4.470  0.1917E+02  0.1500E+02  0.4261E+03  0.4257E+03
      4.526  0.3721E+02  0.3280E+02  0.4281E+03  0.4275E+03
      4.581  0.3144E+02  0.4083E+02  0.4299E+03  0.4298E+03
      4.637  0.3065E+02  0.2473E+02  0.4316E+03  0.4312E+03
      4.693  0.4781E+02  0.5054E+02  0.4342E+03  0.4340E+03
      4.748  0.4061E+02  0.4286E+02  0.4365E+03  0.4364E+03
      4.804  0.3329E+02  0.2641E+02  0.4384E+03  0.4378E+03
      4.859  0.5010E+02  0.5048E+02  0.4411E+03  0.4406E+03
      4.915  0.3280E+02  0.3664E+02  0.4430E+03  0.4427E+03
      4.970  0.6085E+02  0.5555E+02  0.4463E+03  0.4458E+03
      5.026  0.2920E+02  0.3458E+02  0.4480E+03  0.4477E+03
      5.082  0.5677E+02  0.5885E+02  0.4511E+03  0.4510E+03
      5.137  0.5123E+02  0.4969E+02  0.4540E+03  0.4537E+03
      5.193  0.3373E+02  0.3476E+02  0.4558E+03  0.4557E+03
      5.248  0.5977E+02  0.5625E+02  0.4592E+03  0.4588E+03
      5.304  0.3939E+02  0.4274E+02  0.4614E+03  0.4612E+03
      5.360  0.4045E+02  0.4286E+02  0.4636E+03  0.4635E+03
      5.415  0.7055E+01  0.8313E+01  0.4640E+03  0.4640E+03
      5.471  0.0000E+00  0.0000E+00  0.4640E+03  0.4640E+03
      5.526  0.0000E+00  0.0000E+00  0.4640E+03  0.4640E+03
      5.582  0.0000E+00  0.0000E+00  0.4640E+03  0.4640E+03
      5.638  0.0000E+00  0.0000E+00  0.4640E+03  0.4640E+03
      5.693  0.0000E+00  0.0000E+00  0.4640E+03  0.4640E+03
      5.749  0.0000E+00  0.0000E+00  0.4640E+03  0.4640E+03
      5.804  0.0000E+00  0.0000E+00  0.4640E+03  0.4640E+03
      5.860  0.0000E+00  0.0000E+00  0.4640E+03  0.4640E+03
      5.915  0.0000E+00  0.0000E+00  0.4640E+03  0.4640E+03
      5.971  0.0000E+00  0.0000E+00  0.4640E+03  0.4640E+03
      6.027  0.0000E+00  0.0000E+00  0.4640E+03  0.4640E+03
      6.082  0.0000E+00  0.0000E+00  0.4640E+03  0.4640E+03
      6.138  0.0000E+00  0.0000E+00  0.4640E+03  0.4640E+03
