 264 264   0   0
  0.2770664E+02  0.1946760E-08  0.1946760E-08  0.1930025E-08  0.5000000E-15
  1.000000000000000E-004
  CAR 
 Si and Ge interface calculation         
      6.66686769     -8.92864419  301      4.05954738      1.00000000
     -8.929  0.0000E+00  0.0000E+00  0.0000E+00  0.0000E+00
     -8.877  0.0000E+00  0.0000E+00  0.0000E+00  0.0000E+00
     -8.825  0.0000E+00  0.0000E+00  0.0000E+00  0.0000E+00
     -8.773  0.0000E+00  0.0000E+00  0.0000E+00  0.0000E+00
     -8.721  0.0000E+00  0.0000E+00  0.0000E+00  0.0000E+00
     -8.669  0.0000E+00  0.0000E+00  0.0000E+00  0.0000E+00
     -8.617  0.0000E+00  0.0000E+00  0.0000E+00  0.0000E+00
     -8.565  0.0000E+00  0.0000E+00  0.0000E+00  0.0000E+00
     -8.513  0.0000E+00  0.0000E+00  0.0000E+00  0.0000E+00
     -8.461  0.0000E+00  0.0000E+00  0.0000E+00  0.0000E+00
     -8.409  0.0000E+00  0.0000E+00  0.0000E+00  0.0000E+00
     -8.357  0.0000E+00  0.0000E+00  0.0000E+00  0.0000E+00
     -8.305  0.0000E+00  0.0000E+00  0.0000E+00  0.0000E+00
     -8.253  0.1363E-04  0.3593E-05  0.7084E-06  0.1868E-06
     -8.201  0.1061E+02  0.1013E+02  0.5518E+00  0.5264E+00
     -8.149  0.2756E+02  0.2782E+02  0.1985E+01  0.1973E+01
     -8.097  0.2966E+00  0.5256E+00  0.2000E+01  0.2000E+01
     -8.045  0.1469E+02  0.1240E+02  0.2764E+01  0.2644E+01
     -7.993  0.1417E+02  0.1646E+02  0.3500E+01  0.3500E+01
     -7.941  0.1868E+02  0.1830E+02  0.4471E+01  0.4451E+01
     -7.889  0.5557E+00  0.9362E+00  0.4500E+01  0.4500E+01
     -7.837  0.3831E+02  0.3817E+02  0.6492E+01  0.6484E+01
     -7.785  0.4576E+01  0.3398E+01  0.6730E+01  0.6661E+01
     -7.733  0.3294E+02  0.3371E+02  0.8442E+01  0.8414E+01
     -7.681  0.1566E+02  0.1455E+02  0.9256E+01  0.9170E+01
     -7.629  0.2252E+02  0.2350E+02  0.1043E+02  0.1039E+02
     -7.577  0.1411E+01  0.2076E+01  0.1050E+02  0.1050E+02
     -7.525  0.4981E+01  0.4119E+01  0.1076E+02  0.1071E+02
     -7.473  0.2008E+02  0.1900E+02  0.1180E+02  0.1170E+02
     -7.421  0.4622E+02  0.4588E+02  0.1421E+02  0.1409E+02
     -7.369  0.2657E+02  0.2842E+02  0.1559E+02  0.1556E+02
     -7.317  0.1439E+02  0.1348E+02  0.1634E+02  0.1627E+02
     -7.265  0.2628E+02  0.2498E+02  0.1770E+02  0.1756E+02
     -7.213  0.3739E+02  0.3925E+02  0.1964E+02  0.1960E+02
     -7.161  0.1628E+02  0.1688E+02  0.2049E+02  0.2048E+02
     -7.109  0.3731E+02  0.3533E+02  0.2243E+02  0.2232E+02
     -7.057  0.4261E+02  0.4318E+02  0.2465E+02  0.2456E+02
     -7.005  0.4955E+02  0.4934E+02  0.2722E+02  0.2713E+02
     -6.953  0.2549E+02  0.2662E+02  0.2855E+02  0.2851E+02
     -6.901  0.4716E+02  0.4780E+02  0.3100E+02  0.3100E+02
     -6.849  0.1996E+02  0.1937E+02  0.3204E+02  0.3200E+02
     -6.797  0.3987E+02  0.3984E+02  0.3411E+02  0.3407E+02
     -6.745  0.5160E+02  0.5016E+02  0.3679E+02  0.3668E+02
     -6.693  0.5136E+02  0.5118E+02  0.3946E+02  0.3934E+02
     -6.641  0.5142E+02  0.5300E+02  0.4213E+02  0.4210E+02
     -6.589  0.4563E+02  0.4428E+02  0.4451E+02  0.4440E+02
     -6.537  0.4210E+02  0.4272E+02  0.4670E+02  0.4662E+02
     -6.485  0.4432E+02  0.4574E+02  0.4900E+02  0.4900E+02
     -6.433  0.2790E+02  0.2703E+02  0.5045E+02  0.5040E+02
     -6.381  0.3984E+02  0.4050E+02  0.5252E+02  0.5251E+02
     -6.329  0.3830E+02  0.3585E+02  0.5451E+02  0.5437E+02
     -6.277  0.5984E+02  0.6158E+02  0.5762E+02  0.5757E+02
     -6.225  0.4820E+02  0.4693E+02  0.6013E+02  0.6001E+02
     -6.173  0.6957E+02  0.6891E+02  0.6374E+02  0.6359E+02
     -6.121  0.5744E+02  0.5845E+02  0.6673E+02  0.6663E+02
     -6.069  0.6888E+02  0.6805E+02  0.7031E+02  0.7017E+02
     -6.017  0.8643E+02  0.8432E+02  0.7480E+02  0.7455E+02
     -5.965  0.7341E+02  0.7588E+02  0.7862E+02  0.7850E+02
     -5.914  0.4311E+02  0.4374E+02  0.8086E+02  0.8077E+02
     -5.862  0.7750E+02  0.7693E+02  0.8489E+02  0.8477E+02
     -5.810  0.6501E+02  0.6600E+02  0.8827E+02  0.8820E+02
     -5.758  0.8621E+02  0.8363E+02  0.9275E+02  0.9255E+02
     -5.706  0.7137E+02  0.7331E+02  0.9646E+02  0.9636E+02
     -5.654  0.8808E+02  0.8573E+02  0.1010E+03  0.1008E+03
     -5.602  0.8978E+02  0.9260E+02  0.1057E+03  0.1056E+03
     -5.550  0.6198E+02  0.6033E+02  0.1089E+03  0.1088E+03
     -5.498  0.6038E+02  0.6100E+02  0.1121E+03  0.1119E+03
     -5.446  0.7612E+02  0.7469E+02  0.1160E+03  0.1158E+03
     -5.394  0.6636E+02  0.6660E+02  0.1195E+03  0.1193E+03
     -5.342  0.8644E+02  0.8715E+02  0.1240E+03  0.1238E+03
     -5.290  0.9230E+02  0.9128E+02  0.1288E+03  0.1286E+03
     -5.238  0.8487E+02  0.8682E+02  0.1332E+03  0.1331E+03
     -5.186  0.5568E+02  0.5349E+02  0.1361E+03  0.1359E+03
     -5.134  0.6705E+02  0.6854E+02  0.1396E+03  0.1394E+03
     -5.082  0.5556E+02  0.5461E+02  0.1424E+03  0.1423E+03
     -5.030  0.7650E+02  0.7650E+02  0.1464E+03  0.1462E+03
     -4.978  0.5058E+02  0.5131E+02  0.1491E+03  0.1489E+03
     -4.926  0.6857E+02  0.6688E+02  0.1526E+03  0.1524E+03
     -4.874  0.9695E+02  0.9631E+02  0.1577E+03  0.1574E+03
     -4.822  0.1096E+03  0.1104E+03  0.1634E+03  0.1631E+03
     -4.770  0.8936E+02  0.8991E+02  0.1680E+03  0.1678E+03
     -4.718  0.8847E+02  0.8709E+02  0.1726E+03  0.1723E+03
     -4.666  0.1012E+03  0.9999E+02  0.1779E+03  0.1775E+03
     -4.614  0.1039E+03  0.1023E+03  0.1833E+03  0.1828E+03
     -4.562  0.1016E+03  0.1053E+03  0.1885E+03  0.1883E+03
     -4.510  0.1026E+03  0.1010E+03  0.1939E+03  0.1936E+03
     -4.458  0.1195E+03  0.1179E+03  0.2001E+03  0.1997E+03
     -4.406  0.9927E+02  0.1034E+03  0.2052E+03  0.2051E+03
     -4.354  0.8597E+02  0.8238E+02  0.2097E+03  0.2094E+03
     -4.302  0.8939E+02  0.9081E+02  0.2144E+03  0.2141E+03
     -4.250  0.6974E+02  0.6988E+02  0.2180E+03  0.2177E+03
     -4.198  0.7634E+02  0.7655E+02  0.2220E+03  0.2217E+03
     -4.146  0.9284E+02  0.9410E+02  0.2268E+03  0.2266E+03
     -4.094  0.5715E+02  0.5640E+02  0.2298E+03  0.2295E+03
     -4.042  0.5755E+02  0.5879E+02  0.2327E+03  0.2326E+03
     -3.990  0.7265E+02  0.7341E+02  0.2365E+03  0.2364E+03
     -3.938  0.7260E+02  0.7156E+02  0.2403E+03  0.2401E+03
     -3.886  0.6269E+02  0.6130E+02  0.2436E+03  0.2433E+03
     -3.834  0.5688E+02  0.5821E+02  0.2465E+03  0.2463E+03
     -3.782  0.7849E+02  0.7896E+02  0.2506E+03  0.2504E+03
     -3.730  0.6127E+02  0.6143E+02  0.2538E+03  0.2536E+03
     -3.678  0.7243E+02  0.7077E+02  0.2575E+03  0.2573E+03
     -3.626  0.6478E+02  0.6581E+02  0.2609E+03  0.2607E+03
     -3.574  0.6106E+02  0.6152E+02  0.2641E+03  0.2639E+03
     -3.522  0.4349E+02  0.4216E+02  0.2663E+03  0.2661E+03
     -3.470  0.8307E+02  0.8320E+02  0.2707E+03  0.2704E+03
     -3.418  0.6747E+02  0.6788E+02  0.2742E+03  0.2740E+03
     -3.366  0.7792E+02  0.7501E+02  0.2782E+03  0.2779E+03
     -3.314  0.7016E+02  0.7079E+02  0.2819E+03  0.2815E+03
     -3.262  0.8373E+02  0.8580E+02  0.2862E+03  0.2860E+03
     -3.210  0.7863E+02  0.7717E+02  0.2903E+03  0.2900E+03
     -3.158  0.8139E+02  0.8084E+02  0.2945E+03  0.2942E+03
     -3.106  0.7842E+02  0.7856E+02  0.2986E+03  0.2983E+03
     -3.054  0.6572E+02  0.6722E+02  0.3020E+03  0.3018E+03
     -3.002  0.7895E+02  0.7833E+02  0.3061E+03  0.3059E+03
     -2.950  0.7199E+02  0.7223E+02  0.3099E+03  0.3096E+03
     -2.898  0.1051E+03  0.1023E+03  0.3153E+03  0.3149E+03
     -2.846  0.9486E+02  0.9684E+02  0.3203E+03  0.3200E+03
     -2.794  0.6136E+02  0.6314E+02  0.3235E+03  0.3233E+03
     -2.742  0.1039E+03  0.1012E+03  0.3289E+03  0.3285E+03
     -2.690  0.1024E+03  0.1035E+03  0.3342E+03  0.3339E+03
     -2.638  0.1036E+03  0.1035E+03  0.3396E+03  0.3393E+03
     -2.586  0.9315E+02  0.9285E+02  0.3444E+03  0.3441E+03
     -2.534  0.1381E+03  0.1370E+03  0.3516E+03  0.3512E+03
     -2.482  0.1081E+03  0.1103E+03  0.3572E+03  0.3570E+03
     -2.431  0.8306E+02  0.8334E+02  0.3615E+03  0.3613E+03
     -2.379  0.9746E+02  0.9511E+02  0.3666E+03  0.3662E+03
     -2.327  0.9018E+02  0.9265E+02  0.3713E+03  0.3710E+03
     -2.275  0.1031E+03  0.1025E+03  0.3766E+03  0.3764E+03
     -2.223  0.7777E+02  0.8042E+02  0.3807E+03  0.3806E+03
     -2.171  0.5888E+02  0.6062E+02  0.3837E+03  0.3837E+03
     -2.119  0.4562E+02  0.4202E+02  0.3861E+03  0.3859E+03
     -2.067  0.5485E+02  0.5503E+02  0.3890E+03  0.3887E+03
     -2.015  0.9294E+02  0.9115E+02  0.3938E+03  0.3935E+03
     -1.963  0.7615E+02  0.7824E+02  0.3978E+03  0.3976E+03
     -1.911  0.1147E+03  0.1139E+03  0.4037E+03  0.4035E+03
     -1.859  0.8292E+02  0.8445E+02  0.4080E+03  0.4079E+03
     -1.807  0.6921E+02  0.6826E+02  0.4116E+03  0.4114E+03
     -1.755  0.9348E+02  0.9083E+02  0.4165E+03  0.4161E+03
     -1.703  0.9757E+02  0.9674E+02  0.4216E+03  0.4212E+03
     -1.651  0.8143E+02  0.8515E+02  0.4258E+03  0.4256E+03
     -1.599  0.8740E+02  0.8655E+02  0.4303E+03  0.4301E+03
     -1.547  0.8324E+02  0.8330E+02  0.4347E+03  0.4344E+03
     -1.495  0.6371E+02  0.6425E+02  0.4380E+03  0.4378E+03
     -1.443  0.6841E+02  0.6993E+02  0.4415E+03  0.4414E+03
     -1.391  0.4345E+02  0.3950E+02  0.4438E+03  0.4434E+03
     -1.339  0.7087E+02  0.7318E+02  0.4475E+03  0.4473E+03
     -1.287  0.5367E+02  0.5349E+02  0.4503E+03  0.4500E+03
     -1.235  0.5218E+02  0.5361E+02  0.4530E+03  0.4528E+03
     -1.183  0.5335E+02  0.5220E+02  0.4558E+03  0.4555E+03
     -1.131  0.4447E+02  0.4451E+02  0.4581E+03  0.4578E+03
     -1.079  0.6341E+02  0.6447E+02  0.4614E+03  0.4612E+03
     -1.027  0.5036E+02  0.5015E+02  0.4640E+03  0.4638E+03
     -0.975  0.4845E+02  0.4833E+02  0.4665E+03  0.4663E+03
     -0.923  0.3644E+02  0.3819E+02  0.4684E+03  0.4683E+03
     -0.871  0.6565E+02  0.6419E+02  0.4718E+03  0.4716E+03
     -0.819  0.6255E+02  0.6033E+02  0.4751E+03  0.4748E+03
     -0.767  0.6620E+02  0.6807E+02  0.4785E+03  0.4783E+03
     -0.715  0.4454E+02  0.4431E+02  0.4808E+03  0.4806E+03
     -0.663  0.7770E+02  0.7732E+02  0.4849E+03  0.4846E+03
     -0.611  0.4135E+02  0.4512E+02  0.4870E+03  0.4870E+03
     -0.559  0.3407E+02  0.3187E+02  0.4888E+03  0.4886E+03
     -0.507  0.1104E+02  0.1262E+02  0.4893E+03  0.4893E+03
     -0.455  0.3619E+02  0.3435E+02  0.4912E+03  0.4911E+03
     -0.403  0.4362E+02  0.4472E+02  0.4935E+03  0.4934E+03
     -0.351  0.4518E+02  0.4423E+02  0.4958E+03  0.4957E+03
     -0.299  0.9217E+02  0.9264E+02  0.5006E+03  0.5005E+03
     -0.247  0.7046E+02  0.6913E+02  0.5043E+03  0.5041E+03
     -0.195  0.7331E+02  0.7369E+02  0.5081E+03  0.5079E+03
     -0.143  0.1076E+03  0.1062E+03  0.5137E+03  0.5135E+03
     -0.091  0.1108E+03  0.1109E+03  0.5195E+03  0.5192E+03
     -0.039  0.1025E+03  0.1005E+03  0.5248E+03  0.5245E+03
      0.013  0.1235E+03  0.1256E+03  0.5312E+03  0.5310E+03
      0.065  0.1501E+03  0.1455E+03  0.5390E+03  0.5386E+03
      0.117  0.1277E+03  0.1317E+03  0.5456E+03  0.5454E+03
      0.169  0.9696E+02  0.9883E+02  0.5507E+03  0.5505E+03
      0.221  0.6681E+02  0.6398E+02  0.5542E+03  0.5539E+03
      0.273  0.1050E+03  0.1063E+03  0.5596E+03  0.5594E+03
      0.325  0.7849E+02  0.7865E+02  0.5637E+03  0.5635E+03
      0.377  0.8957E+02  0.8804E+02  0.5684E+03  0.5680E+03
      0.429  0.1064E+03  0.1075E+03  0.5739E+03  0.5736E+03
      0.481  0.7736E+02  0.7895E+02  0.5779E+03  0.5777E+03
      0.533  0.9613E+02  0.9339E+02  0.5829E+03  0.5826E+03
      0.585  0.1409E+03  0.1381E+03  0.5902E+03  0.5898E+03
      0.637  0.1422E+03  0.1462E+03  0.5976E+03  0.5974E+03
      0.689  0.1304E+03  0.1305E+03  0.6044E+03  0.6042E+03
      0.741  0.1369E+03  0.1369E+03  0.6115E+03  0.6113E+03
      0.793  0.1140E+03  0.1142E+03  0.6174E+03  0.6172E+03
      0.845  0.1152E+03  0.1161E+03  0.6234E+03  0.6233E+03
      0.897  0.9393E+02  0.9361E+02  0.6283E+03  0.6281E+03
      0.949  0.9647E+02  0.9312E+02  0.6333E+03  0.6330E+03
      1.000  0.1122E+03  0.1140E+03  0.6392E+03  0.6389E+03
      1.052  0.1688E+03  0.1663E+03  0.6479E+03  0.6475E+03
      1.104  0.1298E+03  0.1328E+03  0.6547E+03  0.6544E+03
      1.156  0.1540E+03  0.1512E+03  0.6627E+03  0.6623E+03
      1.208  0.1623E+03  0.1613E+03  0.6711E+03  0.6707E+03
      1.260  0.1766E+03  0.1764E+03  0.6803E+03  0.6799E+03
      1.312  0.1752E+03  0.1736E+03  0.6894E+03  0.6889E+03
      1.364  0.1831E+03  0.1852E+03  0.6989E+03  0.6985E+03
      1.416  0.1747E+03  0.1778E+03  0.7080E+03  0.7077E+03
      1.468  0.1400E+03  0.1372E+03  0.7153E+03  0.7149E+03
      1.520  0.1990E+03  0.1932E+03  0.7256E+03  0.7249E+03
      1.572  0.1934E+03  0.1970E+03  0.7357E+03  0.7352E+03
      1.624  0.1963E+03  0.1974E+03  0.7459E+03  0.7454E+03
      1.676  0.1788E+03  0.1782E+03  0.7552E+03  0.7547E+03
      1.728  0.1784E+03  0.1771E+03  0.7645E+03  0.7639E+03
      1.780  0.1844E+03  0.1877E+03  0.7740E+03  0.7737E+03
      1.832  0.1751E+03  0.1719E+03  0.7831E+03  0.7826E+03
      1.884  0.1684E+03  0.1677E+03  0.7919E+03  0.7913E+03
      1.936  0.1851E+03  0.1856E+03  0.8015E+03  0.8010E+03
      1.988  0.1997E+03  0.1987E+03  0.8119E+03  0.8113E+03
      2.040  0.1584E+03  0.1604E+03  0.8201E+03  0.8196E+03
      2.092  0.1816E+03  0.1808E+03  0.8296E+03  0.8290E+03
      2.144  0.1926E+03  0.1926E+03  0.8396E+03  0.8390E+03
      2.196  0.1880E+03  0.1896E+03  0.8494E+03  0.8489E+03
      2.248  0.1558E+03  0.1538E+03  0.8575E+03  0.8569E+03
      2.300  0.1679E+03  0.1674E+03  0.8662E+03  0.8656E+03
      2.352  0.1685E+03  0.1694E+03  0.8750E+03  0.8744E+03
      2.404  0.1952E+03  0.1964E+03  0.8851E+03  0.8846E+03
      2.456  0.1502E+03  0.1494E+03  0.8929E+03  0.8924E+03
      2.508  0.1603E+03  0.1594E+03  0.9012E+03  0.9007E+03
      2.560  0.1674E+03  0.1681E+03  0.9099E+03  0.9094E+03
      2.612  0.1329E+03  0.1317E+03  0.9169E+03  0.9162E+03
      2.664  0.1053E+03  0.1100E+03  0.9223E+03  0.9220E+03
      2.716  0.1482E+03  0.1418E+03  0.9300E+03  0.9293E+03
      2.768  0.1360E+03  0.1415E+03  0.9371E+03  0.9367E+03
      2.820  0.1580E+03  0.1536E+03  0.9453E+03  0.9447E+03
      2.872  0.1397E+03  0.1392E+03  0.9526E+03  0.9519E+03
      2.924  0.1330E+03  0.1361E+03  0.9595E+03  0.9590E+03
      2.976  0.1036E+03  0.1033E+03  0.9649E+03  0.9644E+03
      3.028  0.1414E+03  0.1401E+03  0.9722E+03  0.9716E+03
      3.080  0.1189E+03  0.1227E+03  0.9784E+03  0.9780E+03
      3.132  0.1248E+03  0.1220E+03  0.9849E+03  0.9844E+03
      3.184  0.1024E+03  0.1020E+03  0.9902E+03  0.9897E+03
      3.236  0.1033E+03  0.1037E+03  0.9956E+03  0.9951E+03
      3.288  0.1264E+03  0.1240E+03  0.1002E+04  0.1001E+04
      3.340  0.1113E+03  0.1119E+03  0.1008E+04  0.1007E+04
      3.392  0.6715E+02  0.7271E+02  0.1011E+04  0.1011E+04
      3.444  0.1050E+03  0.1046E+03  0.1017E+04  0.1017E+04
      3.496  0.6379E+02  0.5999E+02  0.1020E+04  0.1020E+04
      3.548  0.9363E+02  0.9373E+02  0.1025E+04  0.1025E+04
      3.600  0.9159E+02  0.9479E+02  0.1030E+04  0.1029E+04
      3.652  0.5934E+02  0.6296E+02  0.1033E+04  0.1033E+04
      3.704  0.3438E+02  0.2782E+02  0.1035E+04  0.1034E+04
      3.756  0.7113E+02  0.7885E+02  0.1038E+04  0.1038E+04
      3.808  0.4631E+02  0.4450E+02  0.1041E+04  0.1041E+04
      3.860  0.4121E+02  0.4143E+02  0.1043E+04  0.1043E+04
      3.912  0.4047E+02  0.3890E+02  0.1045E+04  0.1045E+04
      3.964  0.5471E+02  0.4845E+02  0.1048E+04  0.1047E+04
      4.016  0.7320E+02  0.7398E+02  0.1052E+04  0.1051E+04
      4.068  0.1064E+03  0.9297E+02  0.1057E+04  0.1056E+04
      4.120  0.9291E+02  0.9139E+02  0.1062E+04  0.1061E+04
      4.172  0.1041E+03  0.1095E+03  0.1067E+04  0.1066E+04
      4.224  0.9460E+02  0.9848E+02  0.1072E+04  0.1072E+04
      4.276  0.9087E+02  0.9704E+02  0.1077E+04  0.1077E+04
      4.328  0.9410E+02  0.8058E+02  0.1082E+04  0.1081E+04
      4.380  0.1125E+03  0.1192E+03  0.1088E+04  0.1087E+04
      4.432  0.1217E+03  0.1210E+03  0.1094E+04  0.1093E+04
      4.483  0.1010E+03  0.1031E+03  0.1099E+04  0.1099E+04
      4.535  0.1154E+03  0.1171E+03  0.1105E+04  0.1105E+04
      4.587  0.8896E+02  0.9467E+02  0.1110E+04  0.1110E+04
      4.639  0.1128E+03  0.1097E+03  0.1116E+04  0.1115E+04
      4.691  0.9135E+02  0.9319E+02  0.1121E+04  0.1120E+04
      4.743  0.1239E+03  0.1198E+03  0.1127E+04  0.1126E+04
      4.795  0.1348E+03  0.1300E+03  0.1134E+04  0.1133E+04
      4.847  0.1139E+03  0.1194E+03  0.1140E+04  0.1139E+04
      4.899  0.1235E+03  0.1257E+03  0.1146E+04  0.1146E+04
      4.951  0.1221E+03  0.1203E+03  0.1153E+04  0.1152E+04
      5.003  0.1246E+03  0.1276E+03  0.1159E+04  0.1159E+04
      5.055  0.1119E+03  0.1099E+03  0.1165E+04  0.1164E+04
      5.107  0.1465E+03  0.1474E+03  0.1173E+04  0.1172E+04
      5.159  0.1018E+03  0.9869E+02  0.1178E+04  0.1177E+04
      5.211  0.9897E+02  0.1050E+03  0.1183E+04  0.1183E+04
      5.263  0.1214E+03  0.1179E+03  0.1189E+04  0.1189E+04
      5.315  0.1131E+03  0.1149E+03  0.1195E+04  0.1195E+04
      5.367  0.1248E+03  0.1209E+03  0.1202E+04  0.1201E+04
      5.419  0.1275E+03  0.1255E+03  0.1208E+04  0.1208E+04
      5.471  0.1463E+03  0.1537E+03  0.1216E+04  0.1216E+04
      5.523  0.1476E+03  0.1425E+03  0.1224E+04  0.1223E+04
      5.575  0.1456E+03  0.1439E+03  0.1231E+04  0.1231E+04
      5.627  0.1235E+03  0.1233E+03  0.1238E+04  0.1237E+04
      5.679  0.1156E+03  0.1215E+03  0.1244E+04  0.1243E+04
      5.731  0.1297E+03  0.1312E+03  0.1250E+04  0.1250E+04
      5.783  0.1103E+03  0.1096E+03  0.1256E+04  0.1256E+04
      5.835  0.1377E+03  0.1394E+03  0.1263E+04  0.1263E+04
      5.887  0.1126E+03  0.1147E+03  0.1269E+04  0.1269E+04
      5.939  0.5026E+02  0.4912E+02  0.1272E+04  0.1272E+04
      5.991  0.2963E+01  0.8667E+01  0.1272E+04  0.1272E+04
      6.043  0.0000E+00  0.0000E+00  0.1272E+04  0.1272E+04
      6.095  0.0000E+00  0.0000E+00  0.1272E+04  0.1272E+04
      6.147  0.0000E+00  0.0000E+00  0.1272E+04  0.1272E+04
      6.199  0.0000E+00  0.0000E+00  0.1272E+04  0.1272E+04
      6.251  0.0000E+00  0.0000E+00  0.1272E+04  0.1272E+04
      6.303  0.0000E+00  0.0000E+00  0.1272E+04  0.1272E+04
      6.355  0.0000E+00  0.0000E+00  0.1272E+04  0.1272E+04
      6.407  0.0000E+00  0.0000E+00  0.1272E+04  0.1272E+04
      6.459  0.0000E+00  0.0000E+00  0.1272E+04  0.1272E+04
      6.511  0.0000E+00  0.0000E+00  0.1272E+04  0.1272E+04
      6.563  0.0000E+00  0.0000E+00  0.1272E+04  0.1272E+04
      6.615  0.0000E+00  0.0000E+00  0.1272E+04  0.1272E+04
      6.667  0.0000E+00  0.0000E+00  0.1272E+04  0.1272E+04
