<?xml version="1.0" encoding="ISO-8859-1"?>
<modeling>
 <generator>
  <i name="program" type="string">vasp </i>
  <i name="version" type="string">6.4.3  </i>
  <i name="subversion" type="string">19Mar24 (build Oct 22 2024 11:23:12) complex                          parallel </i>
  <i name="platform" type="string">LinuxIFC </i>
  <i name="date" type="string">2025 06 04 </i>
  <i name="time" type="string">07:12:46 </i>
 </generator>
 <incar>
  <i type="string" name="SYSTEM">Si and Ge interface calculation</i>
  <i type="int" name="ISTART">     0</i>
  <i type="logical" name="ADDGRID"> T  </i>
  <i type="int" name="ISPIN">     2</i>
  <i name="AMIX">      0.60000000</i>
  <i type="int" name="ICHARG">     2</i>
  <i type="int" name="NELM">   100</i>
  <i name="EDIFF">      0.00000010</i>
  <i name="ENCUT">    700.00000000</i>
  <i name="ENAUG">    900.00000000</i>
  <i type="int" name="NBANDS">   231</i>
  <i name="NUPDOWN">      1.00000000</i>
  <i name="NELECT">    384.00000000</i>
  <i type="string" name="LREAL">AUTO</i>
  <i type="int" name="ISMEAR">     0</i>
  <i name="SIGMA">      0.01000000</i>
  <i type="int" name="LMAXMIX">     6</i>
  <i type="logical" name="LWAVE"> F  </i>
  <i type="logical" name="LVTOT"> F  </i>
  <i type="logical" name="LVHAR"> T  </i>
  <i type="logical" name="LASPH"> T  </i>
  <i type="logical" name="LMIXTAU"> T  </i>
 </incar>
 <primitive_cell>
  <structure name="primitive_cell" >
   <crystal>
    <varray name="basis" >
     <v>      12.65122604       0.00000000       0.00000000 </v>
     <v>       2.53024530      12.39562035       0.00000000 </v>
     <v>       0.00000000       0.00000000      13.73516273 </v>
    </varray>
    <i name="volume">   2153.94540375 </i>
    <varray name="rec_basis" >
     <v>       0.07904372      -0.01613473       0.00000000 </v>
     <v>       0.00000000       0.08067366       0.00000000 </v>
     <v>       0.00000000       0.00000000       0.07280584 </v>
    </varray>
   </crystal>
   <varray name="positions" >
    <v>       0.65051347       0.04417777       0.50000006 </v>
    <v>       0.99259037       0.94813251       0.00000002 </v>
    <v>       0.95092356       0.65646577       0.08408309 </v>
    <v>       0.90925682       0.36479890       0.16816616 </v>
    <v>       0.86759007       0.07313222       0.25224918 </v>
    <v>       0.82592332       0.78146553       0.33633217 </v>
    <v>       0.27551365       0.66917771       0.50000006 </v>
    <v>       0.49259037       0.44813251       0.00000003 </v>
    <v>       0.45092362       0.15646577       0.08408309 </v>
    <v>       0.40925688       0.86479896       0.16816616 </v>
    <v>       0.36759013       0.57313228       0.25224918 </v>
    <v>       0.32592338       0.28146553       0.33633223 </v>
    <v>       0.10884666       0.25251091       0.58408308 </v>
    <v>       0.36759040       0.82313263       0.00000001 </v>
    <v>       0.32592362       0.53146583       0.08408309 </v>
    <v>       0.28425688       0.23979901       0.16816619 </v>
    <v>       0.24259017       0.94813240       0.25224918 </v>
    <v>       0.94217998       0.33584419       0.66816616 </v>
    <v>       0.02551353       0.91917777       0.50000006 </v>
    <v>       0.86759049       0.32313258       0.00000001 </v>
    <v>       0.82592368       0.03146578       0.08408309 </v>
    <v>       0.78425688       0.73979890       0.16816616 </v>
    <v>       0.65051347       0.04417777       0.50000006 </v>
    <v>       0.70092338       0.15646553       0.33633217 </v>
    <v>       0.40051341       0.29417765       0.50000006 </v>
    <v>       0.24259035       0.69813263       0.00000000 </v>
    <v>       0.20092359       0.40646580       0.08408308 </v>
    <v>       0.15925685       0.11479896       0.16816616 </v>
    <v>       0.85884678       0.50251091       0.58408308 </v>
    <v>       0.07592334       0.53146553       0.33633217 </v>
    <v>       0.48384672       0.12751102       0.58408308 </v>
    <v>       0.74259043       0.19813251       0.00000002 </v>
    <v>       0.70092362       0.90646571       0.08408309 </v>
    <v>       0.65925688       0.61479890       0.16816616 </v>
    <v>       0.60884666       0.75251091       0.58408308 </v>
    <v>       0.52551347       0.41917768       0.50000006 </v>
    <v>       0.90925658       0.61479878       0.42041531 </v>
    <v>       0.11759036       0.07313251       0.00000002 </v>
    <v>       0.07592360       0.78146577       0.08408309 </v>
    <v>       0.03425685       0.48979896       0.16816616 </v>
    <v>       0.99259007       0.19813222       0.25224918 </v>
    <v>       0.90051347       0.79417765       0.50000006 </v>
    <v>       0.31717992       0.71084422       0.66816616 </v>
    <v>       0.61759049       0.57313258       0.00000001 </v>
    <v>       0.57592362       0.28146583       0.08408308 </v>
    <v>       0.53425694       0.98979902       0.16816619 </v>
    <v>       0.49259019       0.69813228       0.25224924 </v>
    <v>       0.44218004       0.83584428       0.66816616 </v>
    <v>       0.94217962       0.08584392       0.92041534 </v>
    <v>       0.03425656       0.23979878       0.42041528 </v>
    <v>       0.15925664       0.36479878       0.42041531 </v>
    <v>       0.81717992       0.21084416       0.66816616 </v>
    <v>       0.52551317       0.16917741       0.75224924 </v>
    <v>       0.23384643       0.12751067       0.83633232 </v>
    <v>       0.44217968       0.58584392       0.92041534 </v>
    <v>       0.95092338       0.90646553       0.33633223 </v>
    <v>       0.61759025       0.32313234       0.25224918 </v>
    <v>       0.40925661       0.11479884       0.42041531 </v>
    <v>       0.02551317       0.66917741       0.75224924 </v>
    <v>       0.73384643       0.62751067       0.83633232 </v>
    <v>       0.81717974       0.46084398       0.92041534 </v>
    <v>       0.40925661       0.11479884       0.42041531 </v>
    <v>       0.98384678       0.62751091       0.58408308 </v>
    <v>       0.69218004       0.58584422       0.66816616 </v>
    <v>       0.40051341       0.54417747       0.75224924 </v>
    <v>       0.10884666       0.50251073       0.83633232 </v>
    <v>       0.31717968       0.96084392       0.92041528 </v>
    <v>       0.78425658       0.48979867       0.42041528 </v>
    <v>       0.53425670       0.73979867       0.42041531 </v>
    <v>       0.19217992       0.08584416       0.66816616 </v>
    <v>       0.90051329       0.04417753       0.75224924 </v>
    <v>       0.60884649       0.00251067       0.83633232 </v>
    <v>       0.69217968       0.33584389       0.92041534 </v>
    <v>       0.15051353       0.54417765       0.50000006 </v>
    <v>       0.11759009       0.82313240       0.25224915 </v>
    <v>       0.56717998       0.46084416       0.66816616 </v>
    <v>       0.27551329       0.41917741       0.75224918 </v>
    <v>       0.98384649       0.37751067       0.83633226 </v>
    <v>       0.19217968       0.83584404       0.92041534 </v>
    <v>       0.74259013       0.44813234       0.25224918 </v>
    <v>       0.35884666       0.00251102       0.58408308 </v>
    <v>       0.06717992       0.96084416       0.66816616 </v>
    <v>       0.77551323       0.91917753       0.75224924 </v>
    <v>       0.48384643       0.87751079       0.83633232 </v>
    <v>       0.06717968       0.21084392       0.92041534 </v>
    <v>       0.57592344       0.03146547       0.33633217 </v>
    <v>       0.23384666       0.37751091       0.58408308 </v>
    <v>       0.20092338       0.65646565       0.33633223 </v>
    <v>       0.65051317       0.29417741       0.75224918 </v>
    <v>       0.35884643       0.25251067       0.83633232 </v>
    <v>       0.56717974       0.71084404       0.92041534 </v>
    <v>       0.65925658       0.86479867       0.42041528 </v>
    <v>       0.73384672       0.87751091       0.58408308 </v>
    <v>       0.45092344       0.40646553       0.33633226 </v>
    <v>       0.15051317       0.79417753       0.75224924 </v>
    <v>       0.85884649       0.75251079       0.83633232 </v>
   </varray>
  </structure>
  <varray name="primitive_index" >
   <v type="int" >        1 </v>
   <v type="int" >        2 </v>
   <v type="int" >        3 </v>
   <v type="int" >        4 </v>
   <v type="int" >        5 </v>
   <v type="int" >        6 </v>
   <v type="int" >        7 </v>
   <v type="int" >        8 </v>
   <v type="int" >        9 </v>
   <v type="int" >       10 </v>
   <v type="int" >       11 </v>
   <v type="int" >       12 </v>
   <v type="int" >       13 </v>
   <v type="int" >       14 </v>
   <v type="int" >       15 </v>
   <v type="int" >       16 </v>
   <v type="int" >       17 </v>
   <v type="int" >       18 </v>
   <v type="int" >       19 </v>
   <v type="int" >       20 </v>
   <v type="int" >       21 </v>
   <v type="int" >       22 </v>
   <v type="int" >       23 </v>
   <v type="int" >       24 </v>
   <v type="int" >       25 </v>
   <v type="int" >       26 </v>
   <v type="int" >       27 </v>
   <v type="int" >       28 </v>
   <v type="int" >       29 </v>
   <v type="int" >       30 </v>
   <v type="int" >       31 </v>
   <v type="int" >       32 </v>
   <v type="int" >       33 </v>
   <v type="int" >       34 </v>
   <v type="int" >       35 </v>
   <v type="int" >       36 </v>
   <v type="int" >       37 </v>
   <v type="int" >       38 </v>
   <v type="int" >       39 </v>
   <v type="int" >       40 </v>
   <v type="int" >       41 </v>
   <v type="int" >       42 </v>
   <v type="int" >       43 </v>
   <v type="int" >       44 </v>
   <v type="int" >       45 </v>
   <v type="int" >       46 </v>
   <v type="int" >       47 </v>
   <v type="int" >       48 </v>
   <v type="int" >       49 </v>
   <v type="int" >       50 </v>
   <v type="int" >       51 </v>
   <v type="int" >       52 </v>
   <v type="int" >       53 </v>
   <v type="int" >       54 </v>
   <v type="int" >       55 </v>
   <v type="int" >       56 </v>
   <v type="int" >       57 </v>
   <v type="int" >       58 </v>
   <v type="int" >       59 </v>
   <v type="int" >       60 </v>
   <v type="int" >       61 </v>
   <v type="int" >       62 </v>
   <v type="int" >       63 </v>
   <v type="int" >       64 </v>
   <v type="int" >       65 </v>
   <v type="int" >       66 </v>
   <v type="int" >       67 </v>
   <v type="int" >       68 </v>
   <v type="int" >       69 </v>
   <v type="int" >       70 </v>
   <v type="int" >       71 </v>
   <v type="int" >       72 </v>
   <v type="int" >       73 </v>
   <v type="int" >       74 </v>
   <v type="int" >       75 </v>
   <v type="int" >       76 </v>
   <v type="int" >       77 </v>
   <v type="int" >       78 </v>
   <v type="int" >       79 </v>
   <v type="int" >       80 </v>
   <v type="int" >       81 </v>
   <v type="int" >       82 </v>
   <v type="int" >       83 </v>
   <v type="int" >       84 </v>
   <v type="int" >       85 </v>
   <v type="int" >       86 </v>
   <v type="int" >       87 </v>
   <v type="int" >       88 </v>
   <v type="int" >       89 </v>
   <v type="int" >       90 </v>
   <v type="int" >       91 </v>
   <v type="int" >       92 </v>
   <v type="int" >       93 </v>
   <v type="int" >       94 </v>
   <v type="int" >       95 </v>
   <v type="int" >       96 </v>
  </varray>
 </primitive_cell>
 <kpoints>
  <generation param="Gamma">
   <v type="int" name="divisions">       3        3        2 </v>
   <v name="usershift">      0.00000000       0.00000000       0.00000000 </v>
   <v name="genvec1">      0.33333333       0.00000000       0.00000000 </v>
   <v name="genvec2">      0.00000000       0.33333333       0.00000000 </v>
   <v name="genvec3">      0.00000000       0.00000000       0.50000000 </v>
   <v name="shift">      0.00000000       0.00000000       0.00000000 </v>
  </generation>
  <varray name="kpointlist" >
   <v>       0.00000000       0.00000000       0.00000000 </v>
   <v>       0.33333333       0.00000000       0.00000000 </v>
   <v>       0.00000000      -0.33333333       0.00000000 </v>
   <v>       0.33333333       0.33333333       0.00000000 </v>
   <v>      -0.33333333       0.33333333       0.00000000 </v>
   <v>       0.00000000       0.00000000       0.50000000 </v>
   <v>       0.33333333       0.00000000       0.50000000 </v>
   <v>       0.00000000      -0.33333333       0.50000000 </v>
   <v>       0.33333333       0.33333333       0.50000000 </v>
   <v>      -0.33333333       0.33333333       0.50000000 </v>
  </varray>
  <varray name="weights" >
   <v>       0.05555556 </v>
   <v>       0.11111111 </v>
   <v>       0.11111111 </v>
   <v>       0.11111111 </v>
   <v>       0.11111111 </v>
   <v>       0.05555556 </v>
   <v>       0.11111111 </v>
   <v>       0.11111111 </v>
   <v>       0.11111111 </v>
   <v>       0.11111111 </v>
  </varray>
 </kpoints>
 <parameters>
  <separator name="general" >
   <i type="string" name="SYSTEM">Si and Ge interface calculation</i>
   <i type="logical" name="LCOMPAT"> F  </i>
  </separator>
  <separator name="electronic" >
   <i type="string" name="PREC">normal</i>
   <i name="ENMAX">    700.00000000</i>
   <i name="ENAUG">    900.00000000</i>
   <i name="EDIFF">      0.00000010</i>
   <i type="int" name="IALGO">    38</i>
   <i type="int" name="IWAVPR">    10</i>
   <i type="int" name="NBANDS">   232</i>
   <i type="int" name="NBANDSLOW">    -1</i>
   <i type="int" name="NBANDSHIGH">    -1</i>
   <i name="NELECT">    384.00000000</i>
   <i type="int" name="TURBO">     0</i>
   <i type="int" name="IRESTART">     0</i>
   <i type="int" name="NREBOOT">     0</i>
   <i type="int" name="NMIN">     0</i>
   <i name="EREF">      0.00000000</i>
   <separator name="electronic smearing" >
    <i type="int" name="ISMEAR">     0</i>
    <i name="SIGMA">      0.01000000</i>
    <i name="KSPACING">      0.50000000</i>
    <i type="logical" name="KGAMMA"> T  </i>
    <i type="logical" name="KBLOWUP"> T  </i>
   </separator>
   <separator name="electronic projectors" >
    <i type="logical" name="LREAL"> T  </i>
    <v name="ROPT">     -0.00050000</v>
    <i type="int" name="LMAXPAW">  -100</i>
    <i type="int" name="LMAXMIX">     6</i>
    <i type="logical" name="NLSPLINE"> F  </i>
   </separator>
   <separator name="electronic startup" >
    <i type="int" name="ISTART">     0</i>
    <i type="int" name="ICHARG">     2</i>
    <i type="int" name="INIWAV">     1</i>
   </separator>
   <separator name="electronic spin" >
    <i type="int" name="ISPIN">     2</i>
    <i type="logical" name="LNONCOLLINEAR"> F  </i>
    <v name="MAGMOM">      0.01041667      0.01041667      0.01041667      0.01041667      0.01041667      0.01041667      0.01041667      0.01041667      0.01041667      0.01041667      0.01041667      0.01041667      0.01041667      0.01041667      0.01041667      0.01041667      0.01041667      0.01041667      0.01041667      0.01041667
      0.01041667      0.01041667      0.01041667      0.01041667      0.01041667      0.01041667      0.01041667      0.01041667      0.01041667      0.01041667      0.01041667      0.01041667      0.01041667      0.01041667      0.01041667      0.01041667      0.01041667      0.01041667      0.01041667      0.01041667
      0.01041667      0.01041667      0.01041667      0.01041667      0.01041667      0.01041667      0.01041667      0.01041667      0.01041667      0.01041667      0.01041667      0.01041667      0.01041667      0.01041667      0.01041667      0.01041667      0.01041667      0.01041667      0.01041667      0.01041667
      0.01041667      0.01041667      0.01041667      0.01041667      0.01041667      0.01041667      0.01041667      0.01041667      0.01041667      0.01041667      0.01041667      0.01041667      0.01041667      0.01041667      0.01041667      0.01041667      0.01041667      0.01041667      0.01041667      0.01041667
      0.01041667      0.01041667      0.01041667      0.01041667      0.01041667      0.01041667      0.01041667      0.01041667      0.01041667      0.01041667      0.01041667      0.01041667      0.01041667      0.01041667      0.01041667      0.01041667</v>
    <i name="NUPDOWN">      1.00000000</i>
    <i type="logical" name="LSORBIT"> F  </i>
    <v name="SAXIS">      0.00000000      0.00000000      1.00000000</v>
    <i type="logical" name="LSPIRAL"> F  </i>
    <v name="QSPIRAL">      0.00000000      0.00000000      0.00000000</v>
    <i type="logical" name="LZEROZ"> F  </i>
   </separator>
   <separator name="electronic exchange-correlation" >
    <i type="logical" name="LASPH"> T  </i>
   </separator>
   <separator name="electronic convergence" >
    <i type="int" name="NELM">   100</i>
    <i type="int" name="NELMDL">    -5</i>
    <i type="int" name="NELMIN">     2</i>
    <i name="ENINI">    700.00000000</i>
    <separator name="electronic convergence detail" >
     <i type="logical" name="LDIAG"> T  </i>
     <i type="logical" name="LSUBROT"> F  </i>
     <i name="WEIMIN">      0.00000000</i>
     <i name="EBREAK">      0.00000000</i>
     <i name="DEPER">      0.30000000</i>
     <i type="int" name="NRMM">     4</i>
     <i name="TIME">      0.40000000</i>
    </separator>
   </separator>
   <separator name="electronic mixer" >
    <i name="AMIX">      0.60000000</i>
    <i name="BMIX">      1.00000000</i>
    <i name="AMIN">      0.10000000</i>
    <i name="AMIX_MAG">      2.40000000</i>
    <i name="BMIX_MAG">      1.00000000</i>
    <separator name="electronic mixer details" >
     <i type="int" name="IMIX">     4</i>
     <i type="logical" name="MIXFIRST"> F  </i>
     <i type="int" name="MAXMIX">   -45</i>
     <i name="WC">    100.00000000</i>
     <i type="int" name="INIMIX">     1</i>
     <i type="int" name="MIXPRE">     1</i>
     <i type="int" name="MREMOVE">     5</i>
    </separator>
   </separator>
   <separator name="electronic dipolcorrection" >
    <i type="logical" name="LDIPOL"> F  </i>
    <i type="logical" name="LMONO"> F  </i>
    <i type="int" name="IDIPOL">     0</i>
    <i name="EPSILON">      1.00000000</i>
    <v name="DIPOL">   -100.00000000   -100.00000000   -100.00000000</v>
    <i name="EFIELD">      0.00000000</i>
    <i type="logical" name="LVACPOTAV"> F  </i>
   </separator>
  </separator>
  <separator name="grids" >
   <i type="int" name="NGX">    84</i>
   <i type="int" name="NGY">    84</i>
   <i type="int" name="NGZ">    90</i>
   <i type="int" name="NGXF">   168</i>
   <i type="int" name="NGYF">   168</i>
   <i type="int" name="NGZF">   180</i>
   <i type="logical" name="ADDGRID"> T  </i>
  </separator>
  <separator name="ionic" >
   <i type="int" name="NSW">     0</i>
   <i type="int" name="IBRION">    -1</i>
   <i type="int" name="MDALGO">     0</i>
   <i type="int" name="ISIF">     2</i>
   <i name="PSTRESS">      0.00000000</i>
   <i name="EDIFFG">      0.00000100</i>
   <i type="int" name="NFREE">     0</i>
   <i name="POTIM">      0.50000000</i>
   <i name="SMASS">     -3.00000000</i>
   <i name="SCALEE">      1.00000000</i>
  </separator>
  <separator name="ionic md" >
   <i name="TEBEG">      0.00010000</i>
   <i name="TEEND">      0.00010000</i>
   <i type="int" name="NBLOCK">     1</i>
   <i type="int" name="KBLOCK">     1</i>
   <i type="int" name="NPACO">   256</i>
   <i name="APACO">     10.00000000</i>
  </separator>
  <separator name="symmetry" >
   <i type="int" name="ISYM">     2</i>
   <i name="SYMPREC">      0.00001000</i>
  </separator>
  <separator name="dos" >
   <i type="int" name="LORBIT">     0</i>
   <v name="RWIGS">     -1.00000000</v>
   <i type="int" name="NEDOS">   301</i>
   <i name="EMIN">     10.00000000</i>
   <i name="EMAX">    -10.00000000</i>
   <i name="EFERMI">      0.00000000</i>
  </separator>
  <separator name="writing" >
   <i type="int" name="NWRITE">     2</i>
   <i type="logical" name="LWAVE"> F  </i>
   <i type="logical" name="LDOWNSAMPLE"> F  </i>
   <i type="logical" name="LCHARG"> T  </i>
   <i type="logical" name="LPARD"> F  </i>
   <i type="logical" name="LVTOT"> F  </i>
   <i type="logical" name="LVHAR"> T  </i>
   <i type="logical" name="LELF"> F  </i>
   <i type="logical" name="LOPTICS"> F  </i>
   <v name="STM">      0.00000000      0.00000000      0.00000000      0.00000000      0.00000000      0.00000000      0.00000000</v>
  </separator>
  <separator name="performance" >
   <i type="int" name="NPAR">     4</i>
   <i type="int" name="NSIM">     4</i>
   <i type="int" name="NBLK">    -1</i>
   <i type="logical" name="LPLANE"> T  </i>
   <i type="logical" name="LSCALAPACK"> T  </i>
   <i type="logical" name="LSCAAWARE"> F  </i>
   <i type="logical" name="LSCALU"> F  </i>
   <i type="logical" name="LASYNC"> F  </i>
   <i type="logical" name="LORBITALREAL"> F  </i>
  </separator>
  <separator name="miscellaneous" >
   <i type="int" name="IDIOT">     3</i>
   <i type="int" name="PHON_NSTRUCT">    -1</i>
   <i type="logical" name="LMUSIC"> F  </i>
   <v name="POMASS">     72.61000000</v>
   <v name="DARWINR">      0.00000000</v>
   <v name="DARWINV">      1.00000000</v>
   <i type="logical" name="LCORR"> T  </i>
  </separator>
  <i type="logical" name="GGA_COMPAT"> T  </i>
  <i type="logical" name="LBERRY"> F  </i>
  <i type="int" name="ICORELEVEL">     0</i>
  <i type="logical" name="LDAU"> F  </i>
  <i type="int" name="I_CONSTRAINED_M">     0</i>
  <separator name="electronic exchange-correlation" >
   <i type="string" name="GGA    ">PE</i>
   <i type="string" name="XC_C">1</i>
   <i type="int" name="VOSKOWN">     0</i>
   <i type="logical" name="LHFCALC"> F  </i>
   <i type="string" name="PRECFOCK"></i>
   <i type="logical" name="LSYMGRAD"> F  </i>
   <i type="logical" name="LHFONE"> F  </i>
   <i type="logical" name="LRHFCALC"> F  </i>
   <i type="logical" name="LTHOMAS"> F  </i>
   <i type="logical" name="LMODELHF"> F  </i>
   <i type="logical" name="LFOCKACE"> F  </i>
   <i name="ENCUT4O">     -1.00000000</i>
   <i type="int" name="EXXOEP">     0</i>
   <i type="int" name="FOURORBIT">     0</i>
   <i name="AEXX">      0.00000000</i>
   <i name="HFALPHA">      0.00000000</i>
   <i name="MCALPHA">      0.00000000</i>
   <i name="ALDAX">      1.00000000</i>
   <i name="AGGAX">      1.00000000</i>
   <i name="AMGGAX">      1.00000000</i>
   <i name="ALDAC">      1.00000000</i>
   <i name="AGGAC">      1.00000000</i>
   <i name="AMGGAC">      1.00000000</i>
   <i type="int" name="NKREDX">     1</i>
   <i type="int" name="NKREDY">     1</i>
   <i type="int" name="NKREDZ">     1</i>
   <i type="logical" name="SHIFTRED"> F  </i>
   <i type="logical" name="ODDONLY"> F  </i>
   <i type="logical" name="EVENONLY"> F  </i>
   <i type="int" name="LMAXFOCK">     0</i>
   <i type="int" name="NMAXFOCKAE">     0</i>
   <i type="logical" name="LFOCKAEDFT"> F  </i>
   <i name="HFSCREEN">      0.00000000</i>
   <i name="HFSCREENC">      0.00000000</i>
   <i type="int" name="NBANDSGWLOW">     0</i>
  </separator>
  <separator name="vdW DFT" >
   <i type="logical" name="LUSE_VDW"> F  </i>
   <i type="int" name="IVDW_NL">    -1</i>
   <i type="logical" name="LSPIN_VDW"> F  </i>
   <i name="ZAB_VDW">     -0.84910000</i>
   <i name="GAMMA_VDW">      1.39626340</i>
   <i name="ALPHA_VDW">      0.00000000</i>
   <i name="PARAM1">      0.12340000</i>
   <i name="PARAM2">      1.00000000</i>
   <i name="BPARAM">      6.30000000</i>
   <i name="CPARAM">      0.00930000</i>
  </separator>
  <separator name="model GW" >
   <i type="int" name="MODEL_GW">     0</i>
   <i name="MODEL_EPS0">     13.46215877</i>
   <i name="MODEL_ALPHA">      1.00000000</i>
  </separator>
  <separator name="linear response parameters" >
   <i type="logical" name="LEPSILON"> F  </i>
   <i type="logical" name="LRPA"> F  </i>
   <i type="logical" name="LNABLA"> F  </i>
   <i type="logical" name="LVEL"> F  </i>
   <i name="CSHIFT">      0.10000000</i>
   <i name="OMEGAMAX">     -1.00000000</i>
   <i name="DEG_THRESHOLD">      0.00200000</i>
   <i name="RTIME">     -0.10000000</i>
   <i name="WPLASMAI">      0.00000000</i>
   <v name="DFIELD">      0.00000000      0.00000000      0.00000000</v>
   <v name="WPLASMA">      0.00000000      0.00000000      0.00000000      0.00000000      0.00000000      0.00000000      0.00000000      0.00000000      0.00000000</v>
  </separator>
  <separator name="orbital magnetization" >
   <i type="logical" name="NUCIND"> F  </i>
   <v name="MAGPOS">      0.00000000      0.00000000      0.00000000</v>
   <i type="logical" name="LNICSALL"> T  </i>
   <i type="logical" name="ORBITALMAG"> F  </i>
   <i type="logical" name="LMAGBLOCH"> F  </i>
   <i type="logical" name="LCHIMAG"> F  </i>
   <i type="logical" name="LGAUGE"> T  </i>
   <i type="int" name="MAGATOM">     0</i>
   <v name="MAGDIPOL">      0.00000000      0.00000000      0.00000000</v>
   <v name="AVECCONST">      0.00000000      0.00000000      0.00000000</v>
  </separator>
  <separator name="response functions" >
   <i type="logical" name="LALL_IN_ONE"> F  </i>
   <i type="int" name="IALL_IN_ONE">    -1</i>
   <i type="int" name="NBANDS_WAVE">    -1</i>
   <i type="logical" name="LFINITE_TEMPERATURE"> F  </i>
   <i type="logical" name="LADDER"> F  </i>
   <i type="logical" name="LRPAFORCE"> F  </i>
   <i type="logical" name="LFXC"> F  </i>
   <i type="logical" name="LHARTREE"> T  </i>
   <i type="int" name="IBSE">     0</i>
   <v type="int" name="KPOINT">    -1     0     0     0</v>
   <i type="logical" name="LTCTC"> F  </i>
   <i type="logical" name="LTCTE"> F  </i>
   <i type="logical" name="LTETE"> F  </i>
   <i type="logical" name="LTRIPLET"> F  </i>
   <i type="logical" name="LFXCEPS"> F  </i>
   <i type="logical" name="LFXHEG"> F  </i>
   <i type="int" name="NATURALO">     2</i>
   <i type="logical" name="LHOLEGF"> F  </i>
   <i type="logical" name="L2ORDER"> F  </i>
   <i type="logical" name="LDMP1"> F  </i>
   <i type="logical" name="LMP2LT"> F  </i>
   <i type="logical" name="LSMP2LT"> F  </i>
   <i type="logical" name="LGWLF"> F  </i>
   <i name="ENCUTGW">     -1.60000002</i>
   <i name="ENCUTGWSOFT">     -1.60000002</i>
   <i name="ENCUTLF">     -1.00000000</i>
   <i type="logical" name="ESF_SPLINES"> F  </i>
   <i name="ESF_CONV">      0.01000000</i>
   <i type="int" name="ESF_NINTER">    15</i>
   <i type="int" name="LMAXMP2">    -1</i>
   <i name="SCISSOR">      0.00000000</i>
   <i type="int" name="NOMEGA">     0</i>
   <i type="int" name="NOMEGAR">     0</i>
   <i type="int" name="NBANDSGW">    -1</i>
   <i type="int" name="NBANDSO">    -1</i>
   <i type="int" name="NBANDSV">    -1</i>
   <i type="int" name="NELMGW">     1</i>
   <i type="int" name="NELMHF">     1</i>
   <i type="int" name="DIM">     3</i>
   <i type="int" name="IESPILON">     4</i>
   <i type="int" name="ANTIRES">     0</i>
   <i name="OMEGAMAX">    -30.00000000</i>
   <i name="OMEGAMIN">    -30.00000000</i>
   <i name="OMEGATL">   -200.00000000</i>
   <i type="int" name="OMEGAGRID">     0</i>
   <i name="CSHIFT">     -0.10000000</i>
   <i type="logical" name="LSELFENERGY"> F  </i>
   <i type="logical" name="LSPECTRAL"> F  </i>
   <i type="logical" name="LSPECTRALGW"> F  </i>
   <i type="logical" name="LSINGLES"> F  </i>
   <i type="logical" name="LFERMIGW"> F  </i>
   <i type="logical" name="ODDONLYGW"> F  </i>
   <i type="logical" name="EVENONLYGW"> F  </i>
   <i type="int" name="NKREDLFX">     1</i>
   <i type="int" name="NKREDLFY">     1</i>
   <i type="int" name="NKREDLFZ">     1</i>
   <i type="int" name="MAXMEM">  2800</i>
   <i type="int" name="TELESCOPE">     0</i>
   <i type="int" name="NTAUPAR">    -1</i>
   <i type="int" name="NOMEGAPAR">    -1</i>
   <i name="DAMP_NEWTON">      0.80000001</i>
   <i name="LAMBDA">      1.00000000</i>
  </separator>
  <separator name="External order field" >
   <i name="OFIELD_KAPPA">      0.00000000</i>
   <v name="OFIELD_K">      0.00000000      0.00000000      0.00000000</v>
   <i name="OFIELD_Q6_NEAR">      0.00000000</i>
   <i name="OFIELD_Q6_FAR">      0.00000000</i>
   <i name="OFIELD_A">      0.00000000</i>
  </separator>
  <separator name="optional k-points parameters" >
   <i type="int" name="KPOINTS_OPT_MODE">     1</i>
   <i type="logical" name="LKPOINTS_OPT"> F  </i>
  </separator>
 </parameters>
 <atominfo>
  <atoms>      96 </atoms>
  <types>       1 </types>
  <array name="atoms" >
   <dimension dim="1">ion</dimension>
   <field type="string">element</field>
   <field type="int">atomtype</field>
   <set>
    <rc><c>Ge</c><c>   1</c></rc>
    <rc><c>Ge</c><c>   1</c></rc>
    <rc><c>Ge</c><c>   1</c></rc>
    <rc><c>Ge</c><c>   1</c></rc>
    <rc><c>Ge</c><c>   1</c></rc>
    <rc><c>Ge</c><c>   1</c></rc>
    <rc><c>Ge</c><c>   1</c></rc>
    <rc><c>Ge</c><c>   1</c></rc>
    <rc><c>Ge</c><c>   1</c></rc>
    <rc><c>Ge</c><c>   1</c></rc>
    <rc><c>Ge</c><c>   1</c></rc>
    <rc><c>Ge</c><c>   1</c></rc>
    <rc><c>Ge</c><c>   1</c></rc>
    <rc><c>Ge</c><c>   1</c></rc>
    <rc><c>Ge</c><c>   1</c></rc>
    <rc><c>Ge</c><c>   1</c></rc>
    <rc><c>Ge</c><c>   1</c></rc>
    <rc><c>Ge</c><c>   1</c></rc>
    <rc><c>Ge</c><c>   1</c></rc>
    <rc><c>Ge</c><c>   1</c></rc>
    <rc><c>Ge</c><c>   1</c></rc>
    <rc><c>Ge</c><c>   1</c></rc>
    <rc><c>Ge</c><c>   1</c></rc>
    <rc><c>Ge</c><c>   1</c></rc>
    <rc><c>Ge</c><c>   1</c></rc>
    <rc><c>Ge</c><c>   1</c></rc>
    <rc><c>Ge</c><c>   1</c></rc>
    <rc><c>Ge</c><c>   1</c></rc>
    <rc><c>Ge</c><c>   1</c></rc>
    <rc><c>Ge</c><c>   1</c></rc>
    <rc><c>Ge</c><c>   1</c></rc>
    <rc><c>Ge</c><c>   1</c></rc>
    <rc><c>Ge</c><c>   1</c></rc>
    <rc><c>Ge</c><c>   1</c></rc>
    <rc><c>Ge</c><c>   1</c></rc>
    <rc><c>Ge</c><c>   1</c></rc>
    <rc><c>Ge</c><c>   1</c></rc>
    <rc><c>Ge</c><c>   1</c></rc>
    <rc><c>Ge</c><c>   1</c></rc>
    <rc><c>Ge</c><c>   1</c></rc>
    <rc><c>Ge</c><c>   1</c></rc>
    <rc><c>Ge</c><c>   1</c></rc>
    <rc><c>Ge</c><c>   1</c></rc>
    <rc><c>Ge</c><c>   1</c></rc>
    <rc><c>Ge</c><c>   1</c></rc>
    <rc><c>Ge</c><c>   1</c></rc>
    <rc><c>Ge</c><c>   1</c></rc>
    <rc><c>Ge</c><c>   1</c></rc>
    <rc><c>Ge</c><c>   1</c></rc>
    <rc><c>Ge</c><c>   1</c></rc>
    <rc><c>Ge</c><c>   1</c></rc>
    <rc><c>Ge</c><c>   1</c></rc>
    <rc><c>Ge</c><c>   1</c></rc>
    <rc><c>Ge</c><c>   1</c></rc>
    <rc><c>Ge</c><c>   1</c></rc>
    <rc><c>Ge</c><c>   1</c></rc>
    <rc><c>Ge</c><c>   1</c></rc>
    <rc><c>Ge</c><c>   1</c></rc>
    <rc><c>Ge</c><c>   1</c></rc>
    <rc><c>Ge</c><c>   1</c></rc>
    <rc><c>Ge</c><c>   1</c></rc>
    <rc><c>Ge</c><c>   1</c></rc>
    <rc><c>Ge</c><c>   1</c></rc>
    <rc><c>Ge</c><c>   1</c></rc>
    <rc><c>Ge</c><c>   1</c></rc>
    <rc><c>Ge</c><c>   1</c></rc>
    <rc><c>Ge</c><c>   1</c></rc>
    <rc><c>Ge</c><c>   1</c></rc>
    <rc><c>Ge</c><c>   1</c></rc>
    <rc><c>Ge</c><c>   1</c></rc>
    <rc><c>Ge</c><c>   1</c></rc>
    <rc><c>Ge</c><c>   1</c></rc>
    <rc><c>Ge</c><c>   1</c></rc>
    <rc><c>Ge</c><c>   1</c></rc>
    <rc><c>Ge</c><c>   1</c></rc>
    <rc><c>Ge</c><c>   1</c></rc>
    <rc><c>Ge</c><c>   1</c></rc>
    <rc><c>Ge</c><c>   1</c></rc>
    <rc><c>Ge</c><c>   1</c></rc>
    <rc><c>Ge</c><c>   1</c></rc>
    <rc><c>Ge</c><c>   1</c></rc>
    <rc><c>Ge</c><c>   1</c></rc>
    <rc><c>Ge</c><c>   1</c></rc>
    <rc><c>Ge</c><c>   1</c></rc>
    <rc><c>Ge</c><c>   1</c></rc>
    <rc><c>Ge</c><c>   1</c></rc>
    <rc><c>Ge</c><c>   1</c></rc>
    <rc><c>Ge</c><c>   1</c></rc>
    <rc><c>Ge</c><c>   1</c></rc>
    <rc><c>Ge</c><c>   1</c></rc>
    <rc><c>Ge</c><c>   1</c></rc>
    <rc><c>Ge</c><c>   1</c></rc>
    <rc><c>Ge</c><c>   1</c></rc>
    <rc><c>Ge</c><c>   1</c></rc>
    <rc><c>Ge</c><c>   1</c></rc>
    <rc><c>Ge</c><c>   1</c></rc>
   </set>
  </array>
  <array name="atomtypes" >
   <dimension dim="1">type</dimension>
   <field type="int">atomspertype</field>
   <field type="string">element</field>
   <field>mass</field>
   <field>valence</field>
   <field type="string">pseudopotential</field>
   <set>
    <rc><c>  96</c><c>Ge</c><c>     72.61000000</c><c>      4.00000000</c><c>  PAW_PBE Ge 05Jan2001                  </c></rc>
   </set>
  </array>
 </atominfo>
 <structure name="initialpos" >
  <crystal>
   <varray name="basis" >
    <v>      12.65122604       0.00000000       0.00000000 </v>
    <v>       2.53024530      12.39562035       0.00000000 </v>
    <v>       0.00000000       0.00000000      13.73516273 </v>
   </varray>
   <i name="volume">   2153.94540375 </i>
   <varray name="rec_basis" >
    <v>       0.07904372      -0.01613473       0.00000000 </v>
    <v>       0.00000000       0.08067366       0.00000000 </v>
    <v>       0.00000000       0.00000000       0.07280584 </v>
   </varray>
  </crystal>
  <varray name="positions" >
   <v>       0.65051347       0.04417777       0.50000006 </v>
   <v>       0.99259037       0.94813251       0.00000002 </v>
   <v>       0.95092356       0.65646577       0.08408309 </v>
   <v>       0.90925682       0.36479890       0.16816616 </v>
   <v>       0.86759007       0.07313222       0.25224918 </v>
   <v>       0.82592332       0.78146553       0.33633217 </v>
   <v>       0.27551365       0.66917771       0.50000006 </v>
   <v>       0.49259037       0.44813251       0.00000003 </v>
   <v>       0.45092362       0.15646577       0.08408309 </v>
   <v>       0.40925688       0.86479896       0.16816616 </v>
   <v>       0.36759013       0.57313228       0.25224918 </v>
   <v>       0.32592338       0.28146553       0.33633223 </v>
   <v>       0.10884666       0.25251091       0.58408308 </v>
   <v>       0.36759040       0.82313263       0.00000001 </v>
   <v>       0.32592362       0.53146583       0.08408309 </v>
   <v>       0.28425688       0.23979901       0.16816619 </v>
   <v>       0.24259017       0.94813240       0.25224918 </v>
   <v>       0.94217998       0.33584419       0.66816616 </v>
   <v>       0.02551353       0.91917777       0.50000006 </v>
   <v>       0.86759049       0.32313258       0.00000001 </v>
   <v>       0.82592368       0.03146578       0.08408309 </v>
   <v>       0.78425688       0.73979890       0.16816616 </v>
   <v>       0.65051347       0.04417777       0.50000006 </v>
   <v>       0.70092338       0.15646553       0.33633217 </v>
   <v>       0.40051341       0.29417765       0.50000006 </v>
   <v>       0.24259035       0.69813263       0.00000000 </v>
   <v>       0.20092359       0.40646580       0.08408308 </v>
   <v>       0.15925685       0.11479896       0.16816616 </v>
   <v>       0.85884678       0.50251091       0.58408308 </v>
   <v>       0.07592334       0.53146553       0.33633217 </v>
   <v>       0.48384672       0.12751102       0.58408308 </v>
   <v>       0.74259043       0.19813251       0.00000002 </v>
   <v>       0.70092362       0.90646571       0.08408309 </v>
   <v>       0.65925688       0.61479890       0.16816616 </v>
   <v>       0.60884666       0.75251091       0.58408308 </v>
   <v>       0.52551347       0.41917768       0.50000006 </v>
   <v>       0.90925658       0.61479878       0.42041531 </v>
   <v>       0.11759036       0.07313251       0.00000002 </v>
   <v>       0.07592360       0.78146577       0.08408309 </v>
   <v>       0.03425685       0.48979896       0.16816616 </v>
   <v>       0.99259007       0.19813222       0.25224918 </v>
   <v>       0.90051347       0.79417765       0.50000006 </v>
   <v>       0.31717992       0.71084422       0.66816616 </v>
   <v>       0.61759049       0.57313258       0.00000001 </v>
   <v>       0.57592362       0.28146583       0.08408308 </v>
   <v>       0.53425694       0.98979902       0.16816619 </v>
   <v>       0.49259019       0.69813228       0.25224924 </v>
   <v>       0.44218004       0.83584428       0.66816616 </v>
   <v>       0.94217962       0.08584392       0.92041534 </v>
   <v>       0.03425656       0.23979878       0.42041528 </v>
   <v>       0.15925664       0.36479878       0.42041531 </v>
   <v>       0.81717992       0.21084416       0.66816616 </v>
   <v>       0.52551317       0.16917741       0.75224924 </v>
   <v>       0.23384643       0.12751067       0.83633232 </v>
   <v>       0.44217968       0.58584392       0.92041534 </v>
   <v>       0.95092338       0.90646553       0.33633223 </v>
   <v>       0.61759025       0.32313234       0.25224918 </v>
   <v>       0.40925661       0.11479884       0.42041531 </v>
   <v>       0.02551317       0.66917741       0.75224924 </v>
   <v>       0.73384643       0.62751067       0.83633232 </v>
   <v>       0.81717974       0.46084398       0.92041534 </v>
   <v>       0.40925661       0.11479884       0.42041531 </v>
   <v>       0.98384678       0.62751091       0.58408308 </v>
   <v>       0.69218004       0.58584422       0.66816616 </v>
   <v>       0.40051341       0.54417747       0.75224924 </v>
   <v>       0.10884666       0.50251073       0.83633232 </v>
   <v>       0.31717968       0.96084392       0.92041528 </v>
   <v>       0.78425658       0.48979867       0.42041528 </v>
   <v>       0.53425670       0.73979867       0.42041531 </v>
   <v>       0.19217992       0.08584416       0.66816616 </v>
   <v>       0.90051329       0.04417753       0.75224924 </v>
   <v>       0.60884649       0.00251067       0.83633232 </v>
   <v>       0.69217968       0.33584389       0.92041534 </v>
   <v>       0.15051353       0.54417765       0.50000006 </v>
   <v>       0.11759009       0.82313240       0.25224915 </v>
   <v>       0.56717998       0.46084416       0.66816616 </v>
   <v>       0.27551329       0.41917741       0.75224918 </v>
   <v>       0.98384649       0.37751067       0.83633226 </v>
   <v>       0.19217968       0.83584404       0.92041534 </v>
   <v>       0.74259013       0.44813234       0.25224918 </v>
   <v>       0.35884666       0.00251102       0.58408308 </v>
   <v>       0.06717992       0.96084416       0.66816616 </v>
   <v>       0.77551323       0.91917753       0.75224924 </v>
   <v>       0.48384643       0.87751079       0.83633232 </v>
   <v>       0.06717968       0.21084392       0.92041534 </v>
   <v>       0.57592344       0.03146547       0.33633217 </v>
   <v>       0.23384666       0.37751091       0.58408308 </v>
   <v>       0.20092338       0.65646565       0.33633223 </v>
   <v>       0.65051317       0.29417741       0.75224918 </v>
   <v>       0.35884643       0.25251067       0.83633232 </v>
   <v>       0.56717974       0.71084404       0.92041534 </v>
   <v>       0.65925658       0.86479867       0.42041528 </v>
   <v>       0.73384672       0.87751091       0.58408308 </v>
   <v>       0.45092344       0.40646553       0.33633226 </v>
   <v>       0.15051317       0.79417753       0.75224924 </v>
   <v>       0.85884649       0.75251079       0.83633232 </v>
  </varray>
 </structure>
 <calculation>
  <scstep>
   <time name="dav">   19.60   19.78</time>
   <time name="total">   21.22   21.40</time>
   <energy>
    <i name="alphaZ">    817.79019152 </i>
    <i name="ewald"> -10103.91309723 </i>
    <i name="hartreedc">  -1222.97556053 </i>
    <i name="XCdc">   -724.72781582 </i>
    <i name="pawpsdc">   8461.93788731 </i>
    <i name="pawaedc">  -7071.13096423 </i>
    <i name="eentropy">     -0.00155067 </i>
    <i name="bandstr">   1449.23946920 </i>
    <i name="atom">  10079.60734648 </i>
    <i name="e_fr_energy">   1685.82590604 </i>
    <i name="e_wo_entrp">   1685.82745671 </i>
    <i name="e_0_energy">   1685.82668137 </i>
   </energy>
  </scstep>
  <scstep>
   <time name="dav">   22.05   22.25</time>
   <time name="total">   22.05   22.25</time>
   <energy>
    <i name="e_fr_energy">   -436.63943591 </i>
    <i name="e_wo_entrp">   -436.63828023 </i>
    <i name="e_0_energy">   -436.63885807 </i>
   </energy>
  </scstep>
  <scstep>
   <time name="dav">   23.03   23.24</time>
   <time name="total">   23.04   23.24</time>
   <energy>
    <i name="e_fr_energy">   -657.83333447 </i>
    <i name="e_wo_entrp">   -657.83140269 </i>
    <i name="e_0_energy">   -657.83236858 </i>
   </energy>
  </scstep>
  <scstep>
   <time name="dav">   22.43   22.64</time>
   <time name="total">   22.44   22.64</time>
   <energy>
    <i name="e_fr_energy">   -667.60595754 </i>
    <i name="e_wo_entrp">   -667.60394165 </i>
    <i name="e_0_energy">   -667.60494960 </i>
   </energy>
  </scstep>
  <scstep>
   <time name="dav">   23.97   24.19</time>
   <time name="total">   25.11   25.33</time>
   <energy>
    <i name="e_fr_energy">   -668.06354859 </i>
    <i name="e_wo_entrp">   -668.06159329 </i>
    <i name="e_0_energy">   -668.06257094 </i>
   </energy>
  </scstep>
  <scstep>
   <time name="dav">   22.40   22.59</time>
   <time name="total">   25.12   25.32</time>
   <energy>
    <i name="e_fr_energy">   -672.47416442 </i>
    <i name="e_wo_entrp">   -672.47273800 </i>
    <i name="e_0_energy">   -672.47345121 </i>
   </energy>
  </scstep>
  <scstep>
   <time name="dav">   25.47   25.69</time>
   <time name="total">   28.17   28.41</time>
   <energy>
    <i name="e_fr_energy">   -651.78750961 </i>
    <i name="e_wo_entrp">   -651.78581236 </i>
    <i name="e_0_energy">   -651.78666099 </i>
   </energy>
  </scstep>
  <scstep>
   <time name="dav">   21.70   21.89</time>
   <time name="total">   24.40   24.61</time>
   <energy>
    <i name="e_fr_energy">   -650.00020535 </i>
    <i name="e_wo_entrp">   -649.99841676 </i>
    <i name="e_0_energy">   -649.99931106 </i>
   </energy>
  </scstep>
  <scstep>
   <time name="dav">   22.79   22.99</time>
   <time name="total">   25.49   25.71</time>
   <energy>
    <i name="e_fr_energy">   -648.86946138 </i>
    <i name="e_wo_entrp">   -648.86744167 </i>
    <i name="e_0_energy">   -648.86845152 </i>
   </energy>
  </scstep>
  <scstep>
   <time name="dav">   21.62   21.81</time>
   <time name="total">   24.33   24.54</time>
   <energy>
    <i name="e_fr_energy">   -648.88571409 </i>
    <i name="e_wo_entrp">   -648.88353849 </i>
    <i name="e_0_energy">   -648.88462629 </i>
   </energy>
  </scstep>
  <scstep>
   <time name="dav">   21.82   22.02</time>
   <time name="total">   24.53   24.75</time>
   <energy>
    <i name="e_fr_energy">   -648.85435208 </i>
    <i name="e_wo_entrp">   -648.85220394 </i>
    <i name="e_0_energy">   -648.85327801 </i>
   </energy>
  </scstep>
  <scstep>
   <time name="dav">   23.39   23.60</time>
   <time name="total">   26.10   26.32</time>
   <energy>
    <i name="e_fr_energy">   -648.85299012 </i>
    <i name="e_wo_entrp">   -648.85092121 </i>
    <i name="e_0_energy">   -648.85195566 </i>
   </energy>
  </scstep>
  <scstep>
   <time name="dav">   21.75   21.95</time>
   <time name="total">   24.46   24.67</time>
   <energy>
    <i name="e_fr_energy">   -648.85280388 </i>
    <i name="e_wo_entrp">   -648.85070010 </i>
    <i name="e_0_energy">   -648.85175199 </i>
   </energy>
  </scstep>
  <scstep>
   <time name="dav">   22.76   22.97</time>
   <time name="total">   25.47   25.69</time>
   <energy>
    <i name="e_fr_energy">   -648.85278870 </i>
    <i name="e_wo_entrp">   -648.85067496 </i>
    <i name="e_0_energy">   -648.85173183 </i>
   </energy>
  </scstep>
  <scstep>
   <time name="dav">   22.44   22.65</time>
   <time name="total">   25.15   25.37</time>
   <energy>
    <i name="e_fr_energy">   -648.85273820 </i>
    <i name="e_wo_entrp">   -648.85064733 </i>
    <i name="e_0_energy">   -648.85169277 </i>
   </energy>
  </scstep>
  <scstep>
   <time name="dav">   21.74   21.94</time>
   <time name="total">   24.45   24.67</time>
   <energy>
    <i name="e_fr_energy">   -648.85273709 </i>
    <i name="e_wo_entrp">   -648.85064297 </i>
    <i name="e_0_energy">   -648.85169003 </i>
   </energy>
  </scstep>
  <scstep>
   <time name="dav">   22.52   22.73</time>
   <time name="total">   25.24   25.46</time>
   <energy>
    <i name="e_fr_energy">   -648.85273594 </i>
    <i name="e_wo_entrp">   -648.85063867 </i>
    <i name="e_0_energy">   -648.85168730 </i>
   </energy>
  </scstep>
  <scstep>
   <time name="dav">   21.98   22.18</time>
   <time name="total">   24.72   24.94</time>
   <energy>
    <i name="e_fr_energy">   -648.85273889 </i>
    <i name="e_wo_entrp">   -648.85064238 </i>
    <i name="e_0_energy">   -648.85169063 </i>
   </energy>
  </scstep>
  <scstep>
   <time name="dav">   22.76   22.98</time>
   <time name="total">   25.48   25.71</time>
   <energy>
    <i name="e_fr_energy">   -648.85274061 </i>
    <i name="e_wo_entrp">   -648.85064396 </i>
    <i name="e_0_energy">   -648.85169229 </i>
   </energy>
  </scstep>
  <scstep>
   <time name="dav">   19.36   19.89</time>
   <time name="total">   22.07   22.63</time>
   <energy>
    <i name="e_fr_energy">   -648.85274079 </i>
    <i name="e_wo_entrp">   -648.85064362 </i>
    <i name="e_0_energy">   -648.85169220 </i>
   </energy>
  </scstep>
  <scstep>
   <time name="dav">   14.48   14.64</time>
   <time name="total">   17.19   17.37</time>
   <energy>
    <i name="e_fr_energy">   -648.85274094 </i>
    <i name="e_wo_entrp">   -648.85064380 </i>
    <i name="e_0_energy">   -648.85169237 </i>
   </energy>
  </scstep>
  <scstep>
   <time name="dav">   14.19   14.32</time>
   <time name="total">   15.76   15.89</time>
   <energy>
    <i name="alphaZ">    817.79019152 </i>
    <i name="ewald"> -10103.91309723 </i>
    <i name="hartreedc">  -1344.56964586 </i>
    <i name="XCdc">   -698.67567190 </i>
    <i name="pawpsdc">  28134.33077153 </i>
    <i name="pawaedc"> -26774.26738710 </i>
    <i name="eentropy">     -0.00209712 </i>
    <i name="bandstr">   -759.15315133 </i>
    <i name="atom">  10079.60734648 </i>
    <i name="e_fr_energy">   -648.85274101 </i>
    <i name="e_wo_entrp">   -648.85064389 </i>
    <i name="e_0_energy">   -648.85169245 </i>
   </energy>
  </scstep>
  <structure>
   <crystal>
    <varray name="basis" >
     <v>      12.65122604       0.00000000       0.00000000 </v>
     <v>       2.53024530      12.39562035       0.00000000 </v>
     <v>       0.00000000       0.00000000      13.73516273 </v>
    </varray>
    <i name="volume">   2153.94540375 </i>
    <varray name="rec_basis" >
     <v>       0.07904372      -0.01613473       0.00000000 </v>
     <v>       0.00000000       0.08067366       0.00000000 </v>
     <v>       0.00000000       0.00000000       0.07280584 </v>
    </varray>
   </crystal>
   <varray name="positions" >
    <v>       0.65051347       0.04417777       0.50000006 </v>
    <v>       0.99259037       0.94813251       0.00000002 </v>
    <v>       0.95092356       0.65646577       0.08408309 </v>
    <v>       0.90925682       0.36479890       0.16816616 </v>
    <v>       0.86759007       0.07313222       0.25224918 </v>
    <v>       0.82592332       0.78146553       0.33633217 </v>
    <v>       0.27551365       0.66917771       0.50000006 </v>
    <v>       0.49259037       0.44813251       0.00000003 </v>
    <v>       0.45092362       0.15646577       0.08408309 </v>
    <v>       0.40925688       0.86479896       0.16816616 </v>
    <v>       0.36759013       0.57313228       0.25224918 </v>
    <v>       0.32592338       0.28146553       0.33633223 </v>
    <v>       0.10884666       0.25251091       0.58408308 </v>
    <v>       0.36759040       0.82313263       0.00000001 </v>
    <v>       0.32592362       0.53146583       0.08408309 </v>
    <v>       0.28425688       0.23979901       0.16816619 </v>
    <v>       0.24259017       0.94813240       0.25224918 </v>
    <v>       0.94217998       0.33584419       0.66816616 </v>
    <v>       0.02551353       0.91917777       0.50000006 </v>
    <v>       0.86759049       0.32313258       0.00000001 </v>
    <v>       0.82592368       0.03146578       0.08408309 </v>
    <v>       0.78425688       0.73979890       0.16816616 </v>
    <v>       0.65051347       0.04417777       0.50000006 </v>
    <v>       0.70092338       0.15646553       0.33633217 </v>
    <v>       0.40051341       0.29417765       0.50000006 </v>
    <v>       0.24259035       0.69813263       0.00000000 </v>
    <v>       0.20092359       0.40646580       0.08408308 </v>
    <v>       0.15925685       0.11479896       0.16816616 </v>
    <v>       0.85884678       0.50251091       0.58408308 </v>
    <v>       0.07592334       0.53146553       0.33633217 </v>
    <v>       0.48384672       0.12751102       0.58408308 </v>
    <v>       0.74259043       0.19813251       0.00000002 </v>
    <v>       0.70092362       0.90646571       0.08408309 </v>
    <v>       0.65925688       0.61479890       0.16816616 </v>
    <v>       0.60884666       0.75251091       0.58408308 </v>
    <v>       0.52551347       0.41917768       0.50000006 </v>
    <v>       0.90925658       0.61479878       0.42041531 </v>
    <v>       0.11759036       0.07313251       0.00000002 </v>
    <v>       0.07592360       0.78146577       0.08408309 </v>
    <v>       0.03425685       0.48979896       0.16816616 </v>
    <v>       0.99259007       0.19813222       0.25224918 </v>
    <v>       0.90051347       0.79417765       0.50000006 </v>
    <v>       0.31717992       0.71084422       0.66816616 </v>
    <v>       0.61759049       0.57313258       0.00000001 </v>
    <v>       0.57592362       0.28146583       0.08408308 </v>
    <v>       0.53425694       0.98979902       0.16816619 </v>
    <v>       0.49259019       0.69813228       0.25224924 </v>
    <v>       0.44218004       0.83584428       0.66816616 </v>
    <v>       0.94217962       0.08584392       0.92041534 </v>
    <v>       0.03425656       0.23979878       0.42041528 </v>
    <v>       0.15925664       0.36479878       0.42041531 </v>
    <v>       0.81717992       0.21084416       0.66816616 </v>
    <v>       0.52551317       0.16917741       0.75224924 </v>
    <v>       0.23384643       0.12751067       0.83633232 </v>
    <v>       0.44217968       0.58584392       0.92041534 </v>
    <v>       0.95092338       0.90646553       0.33633223 </v>
    <v>       0.61759025       0.32313234       0.25224918 </v>
    <v>       0.40925661       0.11479884       0.42041531 </v>
    <v>       0.02551317       0.66917741       0.75224924 </v>
    <v>       0.73384643       0.62751067       0.83633232 </v>
    <v>       0.81717974       0.46084398       0.92041534 </v>
    <v>       0.40925661       0.11479884       0.42041531 </v>
    <v>       0.98384678       0.62751091       0.58408308 </v>
    <v>       0.69218004       0.58584422       0.66816616 </v>
    <v>       0.40051341       0.54417747       0.75224924 </v>
    <v>       0.10884666       0.50251073       0.83633232 </v>
    <v>       0.31717968       0.96084392       0.92041528 </v>
    <v>       0.78425658       0.48979867       0.42041528 </v>
    <v>       0.53425670       0.73979867       0.42041531 </v>
    <v>       0.19217992       0.08584416       0.66816616 </v>
    <v>       0.90051329       0.04417753       0.75224924 </v>
    <v>       0.60884649       0.00251067       0.83633232 </v>
    <v>       0.69217968       0.33584389       0.92041534 </v>
    <v>       0.15051353       0.54417765       0.50000006 </v>
    <v>       0.11759009       0.82313240       0.25224915 </v>
    <v>       0.56717998       0.46084416       0.66816616 </v>
    <v>       0.27551329       0.41917741       0.75224918 </v>
    <v>       0.98384649       0.37751067       0.83633226 </v>
    <v>       0.19217968       0.83584404       0.92041534 </v>
    <v>       0.74259013       0.44813234       0.25224918 </v>
    <v>       0.35884666       0.00251102       0.58408308 </v>
    <v>       0.06717992       0.96084416       0.66816616 </v>
    <v>       0.77551323       0.91917753       0.75224924 </v>
    <v>       0.48384643       0.87751079       0.83633232 </v>
    <v>       0.06717968       0.21084392       0.92041534 </v>
    <v>       0.57592344       0.03146547       0.33633217 </v>
    <v>       0.23384666       0.37751091       0.58408308 </v>
    <v>       0.20092338       0.65646565       0.33633223 </v>
    <v>       0.65051317       0.29417741       0.75224918 </v>
    <v>       0.35884643       0.25251067       0.83633232 </v>
    <v>       0.56717974       0.71084404       0.92041534 </v>
    <v>       0.65925658       0.86479867       0.42041528 </v>
    <v>       0.73384672       0.87751091       0.58408308 </v>
    <v>       0.45092344       0.40646553       0.33633226 </v>
    <v>       0.15051317       0.79417753       0.75224924 </v>
    <v>       0.85884649       0.75251079       0.83633232 </v>
   </varray>
  </structure>
  <varray name="forces" >
   <v>       1.85130874       1.77624184       1.01933032 </v>
   <v>       0.32306903      -6.26117922       3.23815303 </v>
   <v>      -0.42245974      -0.20727465      -0.81264031 </v>
   <v>       0.19692060       0.01588561       0.46457070 </v>
   <v>       0.09852088       0.16442641       0.08684007 </v>
   <v>      -0.30877206       0.21683798      -1.43294938 </v>
   <v>       0.65275484       0.07330290      -0.28515499 </v>
   <v>       0.29387666      -6.17375121       3.28473452 </v>
   <v>      -0.52160470      -0.22386662      -0.76353150 </v>
   <v>      -0.01052572       0.25306654       0.60172705 </v>
   <v>       0.07952937       0.05771272      -0.01285545 </v>
   <v>      -0.84035960       1.29386746      -2.46078862 </v>
   <v>      -0.21484127      -0.77540578       0.74741885 </v>
   <v>       2.77018353      -5.28184412       4.87072073 </v>
   <v>      -0.61518356      -0.19343263       0.85276831 </v>
   <v>      -0.01956633       0.13980357      -0.66342025 </v>
   <v>       0.39071591       0.18866921       0.48978097 </v>
   <v>      -0.18711898      -0.24031454      -0.02580098 </v>
   <v>       0.73250923      -0.31885491      -0.19342310 </v>
   <v>       2.83455169      -5.32586170       4.92803741 </v>
   <v>      -0.62895717      -0.13304373       0.85986530 </v>
   <v>       0.05266564       0.06697677      -0.48000945 </v>
   <v>       1.85130874       1.77624184       1.01933032 </v>
   <v>       0.59423997       0.32962054       0.47382424 </v>
   <v>       0.91382080       2.26710794       2.75764144 </v>
   <v>       0.29880767      -6.26661226       3.26443629 </v>
   <v>      -0.49279293      -0.27439168      -0.79553246 </v>
   <v>       0.23757647      -0.18605385       0.57362880 </v>
   <v>      -0.25883824      -0.76858373       0.72646378 </v>
   <v>      -0.36860509       0.30096622      -1.45180520 </v>
   <v>       0.20195631       0.41547612       4.23344374 </v>
   <v>       0.29055910      -6.22307353       3.26527730 </v>
   <v>      -0.58326759      -0.21494180      -0.80135312 </v>
   <v>       0.15247814       0.03865909       0.48458219 </v>
   <v>      -0.44147822      -0.86197577       0.79337729 </v>
   <v>       0.63940803       0.34686980      -0.27782229 </v>
   <v>      -0.78265834      -0.81890718      -2.24971503 </v>
   <v>       2.65614040      -5.21156129       4.70538006 </v>
   <v>      -0.72544587      -0.20025323       0.82395991 </v>
   <v>       0.09165447       0.08197344      -0.49730156 </v>
   <v>       0.08395486      -0.12579083      -0.13859256 </v>
   <v>       0.98334106       0.84391344       2.02697912 </v>
   <v>      -0.07911926       0.15630474       0.05028034 </v>
   <v>       2.78357344      -5.32971871       4.95190005 </v>
   <v>      -0.56691312      -0.14864134       0.85274902 </v>
   <v>      -0.06625319      -0.11036528      -0.52274626 </v>
   <v>       0.01107042      -0.06422557      -0.10920640 </v>
   <v>       0.03115659      -0.16860452      -0.04735238 </v>
   <v>      -2.65614040       5.21156129      -4.70538006 </v>
   <v>      -0.73250923       0.31885491       0.19342310 </v>
   <v>      -0.98334106      -0.84391344      -2.02697912 </v>
   <v>      -0.39071591      -0.18866921      -0.48978097 </v>
   <v>       0.06625319       0.11036528       0.52274626 </v>
   <v>       0.62895717       0.13304373      -0.85986530 </v>
   <v>      -2.78357344       5.32971871      -4.95190005 </v>
   <v>       0.21484127       0.77540578      -0.74741885 </v>
   <v>      -0.03115659       0.16860452       0.04735238 </v>
   <v>      -1.85130874      -1.77624184      -1.01933032 </v>
   <v>      -0.09165447      -0.08197344       0.49730156 </v>
   <v>       0.61518356       0.19343263      -0.85276831 </v>
   <v>      -0.29880767       6.26661226      -3.26443629 </v>
   <v>      -1.85130874      -1.77624184      -1.01933032 </v>
   <v>       0.36860509      -0.30096622       1.45180520 </v>
   <v>      -0.07952937      -0.05771272       0.01285545 </v>
   <v>      -0.15247814      -0.03865909      -0.48458219 </v>
   <v>       0.42245974       0.20727465       0.81264031 </v>
   <v>      -0.29055910       6.22307353      -3.26527730 </v>
   <v>      -0.65275484      -0.07330290       0.28515499 </v>
   <v>      -0.63940803      -0.34686980       0.27782229 </v>
   <v>      -0.09852088      -0.16442641      -0.08684007 </v>
   <v>      -0.23757647       0.18605385      -0.57362880 </v>
   <v>       0.52160470       0.22386662       0.76353150 </v>
   <v>      -2.77018353       5.28184412      -4.87072073 </v>
   <v>       0.78265834       0.81890718       2.24971503 </v>
   <v>       0.18711898       0.24031454       0.02580098 </v>
   <v>      -0.01107042       0.06422557       0.10920640 </v>
   <v>      -0.05266564      -0.06697677       0.48000945 </v>
   <v>       0.72544587       0.20025323      -0.82395991 </v>
   <v>      -2.83455169       5.32586170      -4.92803741 </v>
   <v>       0.07911926      -0.15630474      -0.05028034 </v>
   <v>      -0.59423997      -0.32962054      -0.47382424 </v>
   <v>      -0.08395486       0.12579083       0.13859256 </v>
   <v>       0.01956633      -0.13980357       0.66342025 </v>
   <v>       0.56691312       0.14864134      -0.85274902 </v>
   <v>      -0.32306903       6.26117922      -3.23815303 </v>
   <v>      -0.20195631      -0.41547612      -4.23344374 </v>
   <v>       0.30877206      -0.21683798       1.43294938 </v>
   <v>       0.25883824       0.76858373      -0.72646378 </v>
   <v>       0.01052572      -0.25306654      -0.60172705 </v>
   <v>       0.58326759       0.21494180       0.80135312 </v>
   <v>      -0.29387666       6.17375121      -3.28473452 </v>
   <v>      -0.91382080      -2.26710794      -2.75764144 </v>
   <v>       0.84035960      -1.29386746       2.46078862 </v>
   <v>       0.44147822       0.86197577      -0.79337729 </v>
   <v>      -0.19692060      -0.01588561      -0.46457070 </v>
   <v>       0.49279293       0.27439168       0.79553246 </v>
  </varray>
  <varray name="stress" >
   <v>      98.74906976      -6.79056619       9.95275671 </v>
   <v>      -6.79056678     134.63187645     -39.07964057 </v>
   <v>       9.95274607     -39.07960384     133.55851656 </v>
  </varray>
  <energy>
   <i name="e_fr_energy">   -648.85274101 </i>
   <i name="e_wo_entrp">   -648.85064389 </i>
   <i name="e_0_energy">   -648.85169245 </i>
  </energy>
  <time name="totalsc">  557.15  562.51</time>
  <eigenvalues>
   <array>
    <dimension dim="1">band</dimension>
    <dimension dim="2">kpoint</dimension>
    <dimension dim="3">spin</dimension>
    <field>eigene</field>
    <field>occ</field>
    <set>
     <set comment="spin 1">
      <set comment="kpoint 1">
       <r>  -10.6145    1.0000 </r>
       <r>  -10.3606    1.0000 </r>
       <r>   -9.9536    1.0000 </r>
       <r>   -9.9309    1.0000 </r>
       <r>   -9.9166    1.0000 </r>
       <r>   -9.6811    1.0000 </r>
       <r>   -9.2660    1.0000 </r>
       <r>   -8.7712    1.0000 </r>
       <r>   -8.6626    1.0000 </r>
       <r>   -8.5883    1.0000 </r>
       <r>   -8.3083    1.0000 </r>
       <r>   -8.0503    1.0000 </r>
       <r>   -8.0099    1.0000 </r>
       <r>   -7.9950    1.0000 </r>
       <r>   -7.9771    1.0000 </r>
       <r>   -7.9260    1.0000 </r>
       <r>   -7.7889    1.0000 </r>
       <r>   -7.5704    1.0000 </r>
       <r>   -7.5525    1.0000 </r>
       <r>   -7.4823    1.0000 </r>
       <r>   -7.3885    1.0000 </r>
       <r>   -7.2867    1.0000 </r>
       <r>   -7.2243    1.0000 </r>
       <r>   -7.1456    1.0000 </r>
       <r>   -7.0978    1.0000 </r>
       <r>   -6.7724    1.0000 </r>
       <r>   -6.7359    1.0000 </r>
       <r>   -6.7314    1.0000 </r>
       <r>   -6.6576    1.0000 </r>
       <r>   -6.6132    1.0000 </r>
       <r>   -6.5887    1.0000 </r>
       <r>   -6.4446    1.0000 </r>
       <r>   -6.3402    1.0000 </r>
       <r>   -6.3237    1.0000 </r>
       <r>   -6.2502    1.0000 </r>
       <r>   -6.2001    1.0000 </r>
       <r>   -6.0835    1.0000 </r>
       <r>   -6.0501    1.0000 </r>
       <r>   -5.9731    1.0000 </r>
       <r>   -5.9471    1.0000 </r>
       <r>   -5.7052    1.0000 </r>
       <r>   -5.6767    1.0000 </r>
       <r>   -5.6367    1.0000 </r>
       <r>   -5.6116    1.0000 </r>
       <r>   -5.5691    1.0000 </r>
       <r>   -5.5194    1.0000 </r>
       <r>   -5.3888    1.0000 </r>
       <r>   -5.3503    1.0000 </r>
       <r>   -5.2301    1.0000 </r>
       <r>   -5.1475    1.0000 </r>
       <r>   -5.0811    1.0000 </r>
       <r>   -4.9356    1.0000 </r>
       <r>   -4.6735    1.0000 </r>
       <r>   -4.6384    1.0000 </r>
       <r>   -4.6052    1.0000 </r>
       <r>   -4.5803    1.0000 </r>
       <r>   -4.5515    1.0000 </r>
       <r>   -4.4769    1.0000 </r>
       <r>   -4.3619    1.0000 </r>
       <r>   -4.2941    1.0000 </r>
       <r>   -4.2617    1.0000 </r>
       <r>   -4.1012    1.0000 </r>
       <r>   -4.0770    1.0000 </r>
       <r>   -4.0426    1.0000 </r>
       <r>   -3.9988    1.0000 </r>
       <r>   -3.8877    1.0000 </r>
       <r>   -3.7498    1.0000 </r>
       <r>   -3.6843    1.0000 </r>
       <r>   -3.5259    1.0000 </r>
       <r>   -3.5088    1.0000 </r>
       <r>   -3.4009    1.0000 </r>
       <r>   -3.3351    1.0000 </r>
       <r>   -3.1494    1.0000 </r>
       <r>   -3.0739    1.0000 </r>
       <r>   -3.0475    1.0000 </r>
       <r>   -2.8191    1.0000 </r>
       <r>   -2.7116    1.0000 </r>
       <r>   -2.6615    1.0000 </r>
       <r>   -2.6251    1.0000 </r>
       <r>   -2.6234    1.0000 </r>
       <r>   -2.5475    1.0000 </r>
       <r>   -2.4259    1.0000 </r>
       <r>   -2.3078    1.0000 </r>
       <r>   -2.2345    1.0000 </r>
       <r>   -2.0867    1.0000 </r>
       <r>   -1.9639    1.0000 </r>
       <r>   -1.9598    1.0000 </r>
       <r>   -1.8594    1.0000 </r>
       <r>   -1.8282    1.0000 </r>
       <r>   -1.7578    1.0000 </r>
       <r>   -1.6613    1.0000 </r>
       <r>   -1.5591    1.0000 </r>
       <r>   -1.3965    1.0000 </r>
       <r>   -1.3887    1.0000 </r>
       <r>   -1.3339    1.0000 </r>
       <r>   -1.2909    1.0000 </r>
       <r>   -1.2242    1.0000 </r>
       <r>   -1.0859    1.0000 </r>
       <r>   -1.0280    1.0000 </r>
       <r>   -0.8685    1.0000 </r>
       <r>   -0.8360    1.0000 </r>
       <r>   -0.7116    1.0000 </r>
       <r>   -0.6495    1.0000 </r>
       <r>   -0.6322    1.0000 </r>
       <r>   -0.5381    1.0000 </r>
       <r>   -0.5154    1.0000 </r>
       <r>   -0.3791    1.0000 </r>
       <r>   -0.3719    1.0000 </r>
       <r>   -0.2944    1.0000 </r>
       <r>   -0.2706    1.0000 </r>
       <r>   -0.2455    1.0000 </r>
       <r>   -0.1798    1.0000 </r>
       <r>   -0.1078    1.0000 </r>
       <r>   -0.0990    1.0000 </r>
       <r>   -0.0137    1.0000 </r>
       <r>    0.0378    1.0000 </r>
       <r>    0.0509    1.0000 </r>
       <r>    0.0878    1.0000 </r>
       <r>    0.0992    1.0000 </r>
       <r>    0.1369    1.0000 </r>
       <r>    0.1872    1.0000 </r>
       <r>    0.2299    1.0000 </r>
       <r>    0.3064    1.0000 </r>
       <r>    0.3587    1.0000 </r>
       <r>    0.3928    1.0000 </r>
       <r>    0.4944    1.0000 </r>
       <r>    0.5106    1.0000 </r>
       <r>    0.5770    1.0000 </r>
       <r>    0.6137    1.0000 </r>
       <r>    0.6197    1.0000 </r>
       <r>    0.6403    1.0000 </r>
       <r>    0.7040    1.0000 </r>
       <r>    0.7749    1.0000 </r>
       <r>    0.8086    1.0000 </r>
       <r>    0.8160    1.0000 </r>
       <r>    0.8475    1.0000 </r>
       <r>    0.8600    1.0000 </r>
       <r>    0.9072    1.0000 </r>
       <r>    0.9866    1.0000 </r>
       <r>    1.0210    1.0000 </r>
       <r>    1.1194    1.0000 </r>
       <r>    1.2039    1.0000 </r>
       <r>    1.2190    1.0000 </r>
       <r>    1.2433    1.0000 </r>
       <r>    1.3185    1.0000 </r>
       <r>    1.3808    1.0000 </r>
       <r>    1.4102    1.0000 </r>
       <r>    1.4333    1.0000 </r>
       <r>    1.4950    1.0000 </r>
       <r>    1.5109    1.0000 </r>
       <r>    1.5417    1.0000 </r>
       <r>    1.5558    1.0000 </r>
       <r>    1.6510    1.0000 </r>
       <r>    1.6676    1.0000 </r>
       <r>    1.6778    1.0000 </r>
       <r>    1.7393    1.0000 </r>
       <r>    1.8594    1.0000 </r>
       <r>    1.9353    1.0000 </r>
       <r>    2.0254    1.0000 </r>
       <r>    2.0496    1.0000 </r>
       <r>    2.0519    1.0000 </r>
       <r>    2.0975    1.0000 </r>
       <r>    2.1245    1.0000 </r>
       <r>    2.1246    1.0000 </r>
       <r>    2.1992    1.0000 </r>
       <r>    2.2526    1.0000 </r>
       <r>    2.3193    1.0000 </r>
       <r>    2.3335    1.0000 </r>
       <r>    2.3564    1.0000 </r>
       <r>    2.4365    1.0000 </r>
       <r>    2.6123    1.0000 </r>
       <r>    2.6483    1.0000 </r>
       <r>    2.6556    1.0000 </r>
       <r>    2.7768    1.0000 </r>
       <r>    2.8695    1.0000 </r>
       <r>    2.8781    1.0000 </r>
       <r>    2.9532    1.0000 </r>
       <r>    2.9958    1.0000 </r>
       <r>    3.0088    1.0000 </r>
       <r>    3.0187    1.0000 </r>
       <r>    3.0574    1.0000 </r>
       <r>    3.0673    1.0000 </r>
       <r>    3.1103    1.0000 </r>
       <r>    3.1266    1.0000 </r>
       <r>    3.2173    1.0000 </r>
       <r>    3.2752    1.0000 </r>
       <r>    3.3787    1.0000 </r>
       <r>    3.4455    1.0000 </r>
       <r>    3.4689    1.0000 </r>
       <r>    3.5399    1.0000 </r>
       <r>    3.6437    1.0000 </r>
       <r>    3.7068    0.9809 </r>
       <r>    3.7100    0.9485 </r>
       <r>    3.7775    0.0000 </r>
       <r>    3.7942    0.0000 </r>
       <r>    3.8542    0.0000 </r>
       <r>    3.9330    0.0000 </r>
       <r>    4.0158    0.0000 </r>
       <r>    4.0315    0.0000 </r>
       <r>    4.1861    0.0000 </r>
       <r>    4.2564    0.0000 </r>
       <r>    4.2624    0.0000 </r>
       <r>    4.3093    0.0000 </r>
       <r>    4.3850    0.0000 </r>
       <r>    4.4231    0.0000 </r>
       <r>    4.4338    0.0000 </r>
       <r>    4.4864    0.0000 </r>
       <r>    4.5209    0.0000 </r>
       <r>    4.6287    0.0000 </r>
       <r>    4.6395    0.0000 </r>
       <r>    4.6808    0.0000 </r>
       <r>    4.7944    0.0000 </r>
       <r>    4.7992    0.0000 </r>
       <r>    4.8674    0.0000 </r>
       <r>    4.8771    0.0000 </r>
       <r>    4.9279    0.0000 </r>
       <r>    4.9436    0.0000 </r>
       <r>    5.0533    0.0000 </r>
       <r>    5.0674    0.0000 </r>
       <r>    5.1189    0.0000 </r>
       <r>    5.1763    0.0000 </r>
       <r>    5.3487    0.0000 </r>
       <r>    5.3763    0.0000 </r>
       <r>    5.4030    0.0000 </r>
       <r>    5.4046    0.0000 </r>
       <r>    5.4712    0.0000 </r>
       <r>    5.5315    0.0000 </r>
       <r>    5.5477    0.0000 </r>
       <r>    5.5531    0.0000 </r>
       <r>    5.6505    0.0000 </r>
       <r>    5.6918    0.0000 </r>
       <r>    5.7573    0.0000 </r>
      </set>
      <set comment="kpoint 2">
       <r>  -10.6063    1.0000 </r>
       <r>  -10.3099    1.0000 </r>
       <r>  -10.1589    1.0000 </r>
       <r>  -10.0312    1.0000 </r>
       <r>   -9.6447    1.0000 </r>
       <r>   -9.4864    1.0000 </r>
       <r>   -9.3834    1.0000 </r>
       <r>   -9.0799    1.0000 </r>
       <r>   -8.6258    1.0000 </r>
       <r>   -8.4140    1.0000 </r>
       <r>   -8.2765    1.0000 </r>
       <r>   -8.2501    1.0000 </r>
       <r>   -8.0861    1.0000 </r>
       <r>   -7.9995    1.0000 </r>
       <r>   -7.9557    1.0000 </r>
       <r>   -7.7868    1.0000 </r>
       <r>   -7.6690    1.0000 </r>
       <r>   -7.6047    1.0000 </r>
       <r>   -7.5307    1.0000 </r>
       <r>   -7.3787    1.0000 </r>
       <r>   -7.2920    1.0000 </r>
       <r>   -7.2385    1.0000 </r>
       <r>   -7.1319    1.0000 </r>
       <r>   -7.0995    1.0000 </r>
       <r>   -7.0283    1.0000 </r>
       <r>   -6.9471    1.0000 </r>
       <r>   -6.8989    1.0000 </r>
       <r>   -6.8195    1.0000 </r>
       <r>   -6.6834    1.0000 </r>
       <r>   -6.6741    1.0000 </r>
       <r>   -6.5646    1.0000 </r>
       <r>   -6.3919    1.0000 </r>
       <r>   -6.3842    1.0000 </r>
       <r>   -6.3532    1.0000 </r>
       <r>   -6.2647    1.0000 </r>
       <r>   -6.1724    1.0000 </r>
       <r>   -6.1536    1.0000 </r>
       <r>   -6.0649    1.0000 </r>
       <r>   -6.0219    1.0000 </r>
       <r>   -5.9370    1.0000 </r>
       <r>   -5.9261    1.0000 </r>
       <r>   -5.7312    1.0000 </r>
       <r>   -5.6464    1.0000 </r>
       <r>   -5.6050    1.0000 </r>
       <r>   -5.5729    1.0000 </r>
       <r>   -5.4634    1.0000 </r>
       <r>   -5.2982    1.0000 </r>
       <r>   -5.2303    1.0000 </r>
       <r>   -5.2048    1.0000 </r>
       <r>   -5.1402    1.0000 </r>
       <r>   -5.0155    1.0000 </r>
       <r>   -4.8454    1.0000 </r>
       <r>   -4.7056    1.0000 </r>
       <r>   -4.6680    1.0000 </r>
       <r>   -4.5987    1.0000 </r>
       <r>   -4.5907    1.0000 </r>
       <r>   -4.5096    1.0000 </r>
       <r>   -4.4825    1.0000 </r>
       <r>   -4.4118    1.0000 </r>
       <r>   -4.3297    1.0000 </r>
       <r>   -4.2164    1.0000 </r>
       <r>   -4.1480    1.0000 </r>
       <r>   -4.0984    1.0000 </r>
       <r>   -3.9826    1.0000 </r>
       <r>   -3.9528    1.0000 </r>
       <r>   -3.7728    1.0000 </r>
       <r>   -3.6357    1.0000 </r>
       <r>   -3.5449    1.0000 </r>
       <r>   -3.4780    1.0000 </r>
       <r>   -3.4230    1.0000 </r>
       <r>   -3.3864    1.0000 </r>
       <r>   -3.3107    1.0000 </r>
       <r>   -3.2614    1.0000 </r>
       <r>   -3.0825    1.0000 </r>
       <r>   -3.0515    1.0000 </r>
       <r>   -2.9639    1.0000 </r>
       <r>   -2.8664    1.0000 </r>
       <r>   -2.7936    1.0000 </r>
       <r>   -2.7219    1.0000 </r>
       <r>   -2.7068    1.0000 </r>
       <r>   -2.4553    1.0000 </r>
       <r>   -2.3467    1.0000 </r>
       <r>   -2.2865    1.0000 </r>
       <r>   -2.2592    1.0000 </r>
       <r>   -2.1868    1.0000 </r>
       <r>   -2.0685    1.0000 </r>
       <r>   -2.0004    1.0000 </r>
       <r>   -1.9291    1.0000 </r>
       <r>   -1.8139    1.0000 </r>
       <r>   -1.7241    1.0000 </r>
       <r>   -1.7125    1.0000 </r>
       <r>   -1.5867    1.0000 </r>
       <r>   -1.4822    1.0000 </r>
       <r>   -1.3919    1.0000 </r>
       <r>   -1.1973    1.0000 </r>
       <r>   -1.0782    1.0000 </r>
       <r>   -1.0539    1.0000 </r>
       <r>   -0.9971    1.0000 </r>
       <r>   -0.8886    1.0000 </r>
       <r>   -0.8484    1.0000 </r>
       <r>   -0.7860    1.0000 </r>
       <r>   -0.7416    1.0000 </r>
       <r>   -0.6926    1.0000 </r>
       <r>   -0.5908    1.0000 </r>
       <r>   -0.5387    1.0000 </r>
       <r>   -0.5375    1.0000 </r>
       <r>   -0.4381    1.0000 </r>
       <r>   -0.4033    1.0000 </r>
       <r>   -0.3577    1.0000 </r>
       <r>   -0.3142    1.0000 </r>
       <r>   -0.2989    1.0000 </r>
       <r>   -0.2196    1.0000 </r>
       <r>   -0.2022    1.0000 </r>
       <r>   -0.1407    1.0000 </r>
       <r>   -0.0873    1.0000 </r>
       <r>   -0.0007    1.0000 </r>
       <r>    0.0281    1.0000 </r>
       <r>    0.0981    1.0000 </r>
       <r>    0.1852    1.0000 </r>
       <r>    0.2171    1.0000 </r>
       <r>    0.2864    1.0000 </r>
       <r>    0.3207    1.0000 </r>
       <r>    0.3429    1.0000 </r>
       <r>    0.3600    1.0000 </r>
       <r>    0.4199    1.0000 </r>
       <r>    0.4934    1.0000 </r>
       <r>    0.5097    1.0000 </r>
       <r>    0.5396    1.0000 </r>
       <r>    0.5628    1.0000 </r>
       <r>    0.6023    1.0000 </r>
       <r>    0.6948    1.0000 </r>
       <r>    0.7007    1.0000 </r>
       <r>    0.7537    1.0000 </r>
       <r>    0.7956    1.0000 </r>
       <r>    0.8427    1.0000 </r>
       <r>    0.8947    1.0000 </r>
       <r>    0.9252    1.0000 </r>
       <r>    0.9793    1.0000 </r>
       <r>    1.0568    1.0000 </r>
       <r>    1.0960    1.0000 </r>
       <r>    1.1053    1.0000 </r>
       <r>    1.1328    1.0000 </r>
       <r>    1.1693    1.0000 </r>
       <r>    1.1958    1.0000 </r>
       <r>    1.2279    1.0000 </r>
       <r>    1.2327    1.0000 </r>
       <r>    1.2782    1.0000 </r>
       <r>    1.3563    1.0000 </r>
       <r>    1.4368    1.0000 </r>
       <r>    1.5086    1.0000 </r>
       <r>    1.5146    1.0000 </r>
       <r>    1.5661    1.0000 </r>
       <r>    1.6062    1.0000 </r>
       <r>    1.6847    1.0000 </r>
       <r>    1.7038    1.0000 </r>
       <r>    1.7620    1.0000 </r>
       <r>    1.7916    1.0000 </r>
       <r>    1.8160    1.0000 </r>
       <r>    1.8738    1.0000 </r>
       <r>    1.9732    1.0000 </r>
       <r>    2.0397    1.0000 </r>
       <r>    2.0862    1.0000 </r>
       <r>    2.1322    1.0000 </r>
       <r>    2.1602    1.0000 </r>
       <r>    2.1956    1.0000 </r>
       <r>    2.2454    1.0000 </r>
       <r>    2.2763    1.0000 </r>
       <r>    2.3789    1.0000 </r>
       <r>    2.4426    1.0000 </r>
       <r>    2.5080    1.0000 </r>
       <r>    2.6085    1.0000 </r>
       <r>    2.6501    1.0000 </r>
       <r>    2.6932    1.0000 </r>
       <r>    2.7729    1.0000 </r>
       <r>    2.7784    1.0000 </r>
       <r>    2.8437    1.0000 </r>
       <r>    2.9232    1.0000 </r>
       <r>    2.9513    1.0000 </r>
       <r>    3.0423    1.0000 </r>
       <r>    3.0959    1.0000 </r>
       <r>    3.1833    1.0000 </r>
       <r>    3.1950    1.0000 </r>
       <r>    3.2537    1.0000 </r>
       <r>    3.3236    1.0000 </r>
       <r>    3.3503    1.0000 </r>
       <r>    3.3856    1.0000 </r>
       <r>    3.4763    1.0000 </r>
       <r>    3.5079    1.0000 </r>
       <r>    3.5482    1.0000 </r>
       <r>    3.5788    1.0000 </r>
       <r>    3.6433    1.0000 </r>
       <r>    3.6898    1.0000 </r>
       <r>    3.7285    0.1611 </r>
       <r>    3.7563    0.0000 </r>
       <r>    3.8655    0.0000 </r>
       <r>    3.8894    0.0000 </r>
       <r>    3.9033    0.0000 </r>
       <r>    3.9852    0.0000 </r>
       <r>    4.0550    0.0000 </r>
       <r>    4.1336    0.0000 </r>
       <r>    4.1656    0.0000 </r>
       <r>    4.2379    0.0000 </r>
       <r>    4.2765    0.0000 </r>
       <r>    4.3213    0.0000 </r>
       <r>    4.3926    0.0000 </r>
       <r>    4.4068    0.0000 </r>
       <r>    4.4174    0.0000 </r>
       <r>    4.4855    0.0000 </r>
       <r>    4.5291    0.0000 </r>
       <r>    4.5863    0.0000 </r>
       <r>    4.6205    0.0000 </r>
       <r>    4.6519    0.0000 </r>
       <r>    4.7410    0.0000 </r>
       <r>    4.8401    0.0000 </r>
       <r>    4.9132    0.0000 </r>
       <r>    5.0199    0.0000 </r>
       <r>    5.0559    0.0000 </r>
       <r>    5.0933    0.0000 </r>
       <r>    5.1424    0.0000 </r>
       <r>    5.1805    0.0000 </r>
       <r>    5.2373    0.0000 </r>
       <r>    5.2897    0.0000 </r>
       <r>    5.3215    0.0000 </r>
       <r>    5.4256    0.0000 </r>
       <r>    5.4492    0.0000 </r>
       <r>    5.4981    0.0000 </r>
       <r>    5.5076    0.0000 </r>
       <r>    5.5759    0.0000 </r>
       <r>    5.6535    0.0000 </r>
       <r>    5.6797    0.0000 </r>
       <r>    5.7015    0.0000 </r>
       <r>    5.8224    0.0000 </r>
      </set>
      <set comment="kpoint 3">
       <r>  -10.6056    1.0000 </r>
       <r>  -10.3107    1.0000 </r>
       <r>  -10.1602    1.0000 </r>
       <r>  -10.0325    1.0000 </r>
       <r>   -9.6429    1.0000 </r>
       <r>   -9.4842    1.0000 </r>
       <r>   -9.3821    1.0000 </r>
       <r>   -9.0778    1.0000 </r>
       <r>   -8.6220    1.0000 </r>
       <r>   -8.4110    1.0000 </r>
       <r>   -8.2940    1.0000 </r>
       <r>   -8.2479    1.0000 </r>
       <r>   -8.0846    1.0000 </r>
       <r>   -7.9889    1.0000 </r>
       <r>   -7.9607    1.0000 </r>
       <r>   -7.8078    1.0000 </r>
       <r>   -7.6727    1.0000 </r>
       <r>   -7.6111    1.0000 </r>
       <r>   -7.5220    1.0000 </r>
       <r>   -7.3752    1.0000 </r>
       <r>   -7.2759    1.0000 </r>
       <r>   -7.2437    1.0000 </r>
       <r>   -7.1561    1.0000 </r>
       <r>   -7.1048    1.0000 </r>
       <r>   -7.0383    1.0000 </r>
       <r>   -6.9675    1.0000 </r>
       <r>   -6.8524    1.0000 </r>
       <r>   -6.8090    1.0000 </r>
       <r>   -6.7531    1.0000 </r>
       <r>   -6.6654    1.0000 </r>
       <r>   -6.5436    1.0000 </r>
       <r>   -6.3847    1.0000 </r>
       <r>   -6.3433    1.0000 </r>
       <r>   -6.3121    1.0000 </r>
       <r>   -6.2859    1.0000 </r>
       <r>   -6.1705    1.0000 </r>
       <r>   -6.1027    1.0000 </r>
       <r>   -6.0173    1.0000 </r>
       <r>   -5.9613    1.0000 </r>
       <r>   -5.9237    1.0000 </r>
       <r>   -5.8486    1.0000 </r>
       <r>   -5.7761    1.0000 </r>
       <r>   -5.6801    1.0000 </r>
       <r>   -5.6284    1.0000 </r>
       <r>   -5.5689    1.0000 </r>
       <r>   -5.4529    1.0000 </r>
       <r>   -5.3409    1.0000 </r>
       <r>   -5.3128    1.0000 </r>
       <r>   -5.2552    1.0000 </r>
       <r>   -5.2011    1.0000 </r>
       <r>   -5.0639    1.0000 </r>
       <r>   -4.9528    1.0000 </r>
       <r>   -4.8759    1.0000 </r>
       <r>   -4.6814    1.0000 </r>
       <r>   -4.6537    1.0000 </r>
       <r>   -4.5823    1.0000 </r>
       <r>   -4.5371    1.0000 </r>
       <r>   -4.4259    1.0000 </r>
       <r>   -4.3683    1.0000 </r>
       <r>   -4.2038    1.0000 </r>
       <r>   -4.1297    1.0000 </r>
       <r>   -4.0647    1.0000 </r>
       <r>   -4.0159    1.0000 </r>
       <r>   -3.9070    1.0000 </r>
       <r>   -3.8240    1.0000 </r>
       <r>   -3.7919    1.0000 </r>
       <r>   -3.6974    1.0000 </r>
       <r>   -3.6480    1.0000 </r>
       <r>   -3.4874    1.0000 </r>
       <r>   -3.4556    1.0000 </r>
       <r>   -3.3534    1.0000 </r>
       <r>   -3.2476    1.0000 </r>
       <r>   -3.2024    1.0000 </r>
       <r>   -3.1085    1.0000 </r>
       <r>   -3.0069    1.0000 </r>
       <r>   -2.9459    1.0000 </r>
       <r>   -2.8383    1.0000 </r>
       <r>   -2.7812    1.0000 </r>
       <r>   -2.6221    1.0000 </r>
       <r>   -2.5464    1.0000 </r>
       <r>   -2.4767    1.0000 </r>
       <r>   -2.4340    1.0000 </r>
       <r>   -2.3850    1.0000 </r>
       <r>   -2.3416    1.0000 </r>
       <r>   -2.2105    1.0000 </r>
       <r>   -2.1282    1.0000 </r>
       <r>   -2.0898    1.0000 </r>
       <r>   -2.0314    1.0000 </r>
       <r>   -1.9090    1.0000 </r>
       <r>   -1.8126    1.0000 </r>
       <r>   -1.7489    1.0000 </r>
       <r>   -1.5319    1.0000 </r>
       <r>   -1.4151    1.0000 </r>
       <r>   -1.3275    1.0000 </r>
       <r>   -1.1641    1.0000 </r>
       <r>   -1.1425    1.0000 </r>
       <r>   -1.1091    1.0000 </r>
       <r>   -0.9953    1.0000 </r>
       <r>   -0.9352    1.0000 </r>
       <r>   -0.8124    1.0000 </r>
       <r>   -0.7504    1.0000 </r>
       <r>   -0.6757    1.0000 </r>
       <r>   -0.6473    1.0000 </r>
       <r>   -0.6155    1.0000 </r>
       <r>   -0.5808    1.0000 </r>
       <r>   -0.5250    1.0000 </r>
[...]
       <r>    -9.5657     2.1622    10.6667 </r>
       <r>    -9.5053     0.0040    10.6669 </r>
       <r>    -9.4449    22.0699    12.0000 </r>
       <r>    -9.3845     1.0009    12.0605 </r>
       <r>    -9.3241    21.0730    13.3333 </r>
       <r>    -9.2636     1.5072    13.4244 </r>
       <r>    -9.2032     9.5297    14.0000 </r>
       <r>    -9.1428     0.0000    14.0000 </r>
       <r>    -9.0824     1.7278    14.1044 </r>
       <r>    -9.0220    20.3461    15.3333 </r>
       <r>    -8.9616     0.0000    15.3333 </r>
       <r>    -8.9012     0.0000    15.3333 </r>
       <r>    -8.8408     0.0000    15.3333 </r>
       <r>    -8.7804     0.0474    15.3362 </r>
       <r>    -8.7200    10.9893    16.0000 </r>
       <r>    -8.6596     5.3092    16.3207 </r>
       <r>    -8.5992    25.4202    17.8562 </r>
       <r>    -8.5388     8.6729    18.3800 </r>
       <r>    -8.4784     4.5669    18.6559 </r>
       <r>    -8.4180    14.7276    19.5455 </r>
       <r>    -8.3576    13.6844    20.3721 </r>
       <r>    -8.2972     7.4296    20.8208 </r>
       <r>    -8.2368    31.2520    22.7085 </r>
       <r>    -8.1764    14.4735    23.5828 </r>
       <r>    -8.1160    10.5578    24.2205 </r>
       <r>    -8.0556    19.3309    25.3886 </r>
       <r>    -7.9952    20.3438    26.6180 </r>
       <r>    -7.9348    41.0065    29.0954 </r>
       <r>    -7.8744     7.5796    29.5532 </r>
       <r>    -7.8140    14.1480    30.4078 </r>
       <r>    -7.7536    28.2821    32.1161 </r>
       <r>    -7.6932    15.0553    33.0264 </r>
       <r>    -7.6328    15.5818    33.9676 </r>
       <r>    -7.5724    17.8215    35.0441 </r>
       <r>    -7.5120    34.6185    37.1353 </r>
       <r>    -7.4516    22.5605    38.4981 </r>
       <r>    -7.3912     1.0824    38.5636 </r>
       <r>    -7.3307    17.1799    39.6013 </r>
       <r>    -7.2703    37.3221    41.8557 </r>
       <r>    -7.2099    29.3417    43.6285 </r>
       <r>    -7.1495    22.4749    44.9861 </r>
       <r>    -7.0891    27.9630    46.6754 </r>
       <r>    -7.0287    21.3634    47.9658 </r>
       <r>    -6.9683    24.8727    49.4686 </r>
       <r>    -6.9079    27.4778    51.1289 </r>
       <r>    -6.8475    21.1032    52.4040 </r>
       <r>    -6.7871    36.9059    54.6333 </r>
       <r>    -6.7267    28.1413    56.3332 </r>
       <r>    -6.6663    26.2132    57.9166 </r>
       <r>    -6.6059    30.9109    59.7838 </r>
       <r>    -6.5455    22.8376    61.1638 </r>
       <r>    -6.4851    25.0342    62.6760 </r>
       <r>    -6.4247    24.5912    64.1614 </r>
       <r>    -6.3643    35.0692    66.2797 </r>
       <r>    -6.3039    31.5718    68.1868 </r>
       <r>    -6.2435    32.6025    70.1561 </r>
       <r>    -6.1831    22.6191    71.5224 </r>
       <r>    -6.1227    22.7891    72.8990 </r>
       <r>    -6.0623    31.7071    74.8144 </r>
       <r>    -6.0019    40.4027    77.2549 </r>
       <r>    -5.9415    32.3094    79.2067 </r>
       <r>    -5.8811    21.9680    80.5337 </r>
       <r>    -5.8207    18.8355    81.6715 </r>
       <r>    -5.7603    18.8623    82.8111 </r>
       <r>    -5.6999    30.6288    84.6611 </r>
       <r>    -5.6395    30.3321    86.4935 </r>
       <r>    -5.5791    21.6495    87.8012 </r>
       <r>    -5.5187    25.8151    89.3608 </r>
       <r>    -5.4583    22.2353    90.7038 </r>
       <r>    -5.3978    16.0121    91.6716 </r>
       <r>    -5.3374    20.0829    92.8847 </r>
       <r>    -5.2770    29.7513    94.6819 </r>
       <r>    -5.2166    28.1782    96.3843 </r>
       <r>    -5.1562    17.6925    97.4530 </r>
       <r>    -5.0958    32.7269    99.4298 </r>
       <r>    -5.0354    17.1992   100.4687 </r>
       <r>    -4.9750    25.2525   101.9940 </r>
       <r>    -4.9146    17.9834   103.0803 </r>
       <r>    -4.8542    17.1048   104.1135 </r>
       <r>    -4.7938    19.1678   105.2713 </r>
       <r>    -4.7334    19.3255   106.4391 </r>
       <r>    -4.6730    27.9880   108.1298 </r>
       <r>    -4.6126    26.4619   109.7284 </r>
       <r>    -4.5522    36.0519   111.9060 </r>
       <r>    -4.4918    24.5524   113.3895 </r>
       <r>    -4.4314    24.4630   114.8676 </r>
       <r>    -4.3710    17.1300   115.9028 </r>
       <r>    -4.3106    27.3038   117.5520 </r>
       <r>    -4.2502    23.3328   118.9614 </r>
       <r>    -4.1898    18.1792   120.0595 </r>
       <r>    -4.1294    17.4077   121.1116 </r>
       <r>    -4.0690    25.9745   122.6806 </r>
       <r>    -4.0086    31.8234   124.6032 </r>
       <r>    -3.9482    25.7558   126.1591 </r>
       <r>    -3.8878    22.7698   127.5345 </r>
       <r>    -3.8274     6.6441   127.9360 </r>
       <r>    -3.7670    32.1198   129.8762 </r>
       <r>    -3.7066    20.1301   131.0921 </r>
       <r>    -3.6462    24.5972   132.5779 </r>
       <r>    -3.5858    28.7901   134.3169 </r>
       <r>    -3.5254    22.1880   135.6571 </r>
       <r>    -3.4649    24.4248   137.1324 </r>
       <r>    -3.4045    26.9287   138.7592 </r>
       <r>    -3.3441    27.8950   140.4442 </r>
       <r>    -3.2837    21.7273   141.7572 </r>
       <r>    -3.2233    31.7284   143.6742 </r>
       <r>    -3.1629    21.5935   144.9789 </r>
       <r>    -3.1025    25.4631   146.5170 </r>
       <r>    -3.0421    28.8873   148.2619 </r>
       <r>    -2.9817    33.2532   150.2706 </r>
       <r>    -2.9213    33.8146   152.3131 </r>
       <r>    -2.8609    21.6386   153.6201 </r>
       <r>    -2.8005    23.3052   155.0280 </r>
       <r>    -2.7401    25.4327   156.5642 </r>
       <r>    -2.6797    32.1819   158.5081 </r>
       <r>    -2.6193    13.7563   159.3391 </r>
       <r>    -2.5589    25.9606   160.9072 </r>
       <r>    -2.4985    24.5223   162.3885 </r>
       <r>    -2.4381    18.9861   163.5356 </r>
       <r>    -2.3777    39.4797   165.9205 </r>
       <r>    -2.3173    26.9709   167.5502 </r>
       <r>    -2.2569    19.6627   168.7384 </r>
       <r>    -2.1965    21.5026   170.0376 </r>
       <r>    -2.1361    32.9517   172.0280 </r>
       <r>    -2.0757    18.1074   173.1222 </r>
       <r>    -2.0153    16.3093   174.1074 </r>
       <r>    -1.9549    23.3551   175.5182 </r>
       <r>    -1.8945    23.1154   176.9144 </r>
       <r>    -1.8341    20.8163   178.1721 </r>
       <r>    -1.7737    28.8742   179.9162 </r>
       <r>    -1.7133    18.9284   181.0596 </r>
       <r>    -1.6529    20.5795   182.3027 </r>
       <r>    -1.5925     8.7820   182.8332 </r>
       <r>    -1.5320    14.1889   183.6903 </r>
       <r>    -1.4716    17.4272   184.7429 </r>
       <r>    -1.4112    15.3693   185.6713 </r>
       <r>    -1.3508    25.6829   187.2227 </r>
       <r>    -1.2904    16.4025   188.2138 </r>
       <r>    -1.2300     7.6074   188.6733 </r>
       <r>    -1.1696    21.7677   189.9882 </r>
       <r>    -1.1092    17.0991   191.0211 </r>
       <r>    -1.0488    19.5082   192.1996 </r>
       <r>    -0.9884    13.0793   192.9902 </r>
       <r>    -0.9280    31.3151   194.8817 </r>
       <r>    -0.8676    23.8841   196.3245 </r>
       <r>    -0.8072    40.1936   198.7523 </r>
       <r>    -0.7468    36.4070   200.9519 </r>
       <r>    -0.6864    34.9938   203.0657 </r>
       <r>    -0.6260    44.1817   205.7350 </r>
       <r>    -0.5656    37.9272   208.0262 </r>
       <r>    -0.5052    48.5355   210.9584 </r>
       <r>    -0.4448    29.6479   212.7500 </r>
       <r>    -0.3844    34.1547   214.8130 </r>
       <r>    -0.3240    28.2371   216.5186 </r>
       <r>    -0.2636    40.5433   218.9676 </r>
       <r>    -0.2032    47.0285   221.8084 </r>
       <r>    -0.1428    41.2660   224.3011 </r>
       <r>    -0.0824    41.7965   226.8258 </r>
       <r>    -0.0220    38.9731   229.1811 </r>
       <r>     0.0384    43.4634   231.8064 </r>
       <r>     0.0988    51.2006   234.8997 </r>
       <r>     0.1592    41.1424   237.3854 </r>
       <r>     0.2196    33.8817   239.4331 </r>
       <r>     0.2800    45.3609   242.1731 </r>
       <r>     0.3404    41.4769   244.6789 </r>
       <r>     0.4009    49.6680   247.6795 </r>
       <r>     0.4613    54.7071   250.9843 </r>
       <r>     0.5217    34.5466   253.0714 </r>
       <r>     0.5821    41.4324   255.5748 </r>
       <r>     0.6425    58.4615   259.1066 </r>
       <r>     0.7029    43.1049   261.7107 </r>
       <r>     0.7633    50.1885   264.7423 </r>
       <r>     0.8237    45.1567   267.4700 </r>
       <r>     0.8841    54.6262   270.7705 </r>
       <r>     0.9445    46.0033   273.5494 </r>
       <r>     1.0049    59.0086   277.1144 </r>
       <r>     1.0653    36.4738   279.3183 </r>
       <r>     1.1257    48.7095   282.2608 </r>
       <r>     1.1861    45.6044   285.0158 </r>
       <r>     1.2465    58.1275   288.5271 </r>
       <r>     1.3069    54.1789   291.8004 </r>
       <r>     1.3673    33.5596   293.8282 </r>
       <r>     1.4277    36.6431   296.0417 </r>
       <r>     1.4881    42.2610   298.5944 </r>
       <r>     1.5485    46.2843   301.3902 </r>
       <r>     1.6089    41.5163   303.8980 </r>
       <r>     1.6693    38.1929   306.2050 </r>
       <r>     1.7297    47.4968   309.0746 </r>
       <r>     1.7901    35.9015   311.2432 </r>
       <r>     1.8505    41.4146   313.7456 </r>
       <r>     1.9109    36.9465   315.9779 </r>
       <r>     1.9713    28.3690   317.6919 </r>
       <r>     2.0317    40.4439   320.1351 </r>
       <r>     2.0921    46.7205   322.9579 </r>
       <r>     2.1525    50.8569   326.0299 </r>
       <r>     2.2129    36.7667   328.2513 </r>
       <r>     2.2733    38.4861   330.5760 </r>
       <r>     2.3338    38.1411   332.8799 </r>
       <r>     2.3942    37.3217   335.1343 </r>
       <r>     2.4546    32.5164   337.0989 </r>
       <r>     2.5150    39.8984   339.5089 </r>
       <r>     2.5754    33.4432   341.5290 </r>
       <r>     2.6358    37.8789   343.8170 </r>
       <r>     2.6962    32.9874   345.8095 </r>
       <r>     2.7566    43.0653   348.4109 </r>
       <r>     2.8170    35.8684   350.5775 </r>
       <r>     2.8774    31.4589   352.4784 </r>
       <r>     2.9378    44.4713   355.1649 </r>
       <r>     2.9982    39.7337   357.5650 </r>
       <r>     3.0586    34.3673   359.6421 </r>
       <r>     3.1190    37.8003   361.9254 </r>
       <r>     3.1794    35.3049   364.0581 </r>
       <r>     3.2398    40.2746   366.4913 </r>
       <r>     3.3002    36.1426   368.6746 </r>
       <r>     3.3606    41.5372   371.1836 </r>
       <r>     3.4210    46.0430   373.9652 </r>
       <r>     3.4814    31.3645   375.8604 </r>
       <r>     3.5418    40.1950   378.2884 </r>
       <r>     3.6022    30.7095   380.1434 </r>
       <r>     3.6626    32.6863   382.1177 </r>
       <r>     3.7230    39.9834   384.5331 </r>
       <r>     3.7834    31.3298   386.4256 </r>
       <r>     3.8438    28.4896   388.1467 </r>
       <r>     3.9042    46.6217   390.9628 </r>
       <r>     3.9646    35.5857   393.1132 </r>
       <r>     4.0250    24.2215   394.5765 </r>
       <r>     4.0854    33.2696   396.5861 </r>
       <r>     4.1458    35.0924   398.7061 </r>
       <r>     4.2062    40.5862   401.1577 </r>
       <r>     4.2667    46.0811   403.9414 </r>
       <r>     4.3271    36.3469   406.1372 </r>
       <r>     4.3875    35.2903   408.2689 </r>
       <r>     4.4479    43.6955   410.9082 </r>
       <r>     4.5083    42.5402   413.4783 </r>
       <r>     4.5687    40.5578   415.9281 </r>
       <r>     4.6291    24.5718   417.4126 </r>
       <r>     4.6895    32.5482   419.3786 </r>
       <r>     4.7499    33.7840   421.4193 </r>
       <r>     4.8103    31.9262   423.3478 </r>
       <r>     4.8707    35.6337   425.5006 </r>
       <r>     4.9311    41.5838   428.0131 </r>
       <r>     4.9915    23.1696   429.4134 </r>
       <r>     5.0519    32.2729   431.3629 </r>
       <r>     5.1123    44.0077   434.0216 </r>
       <r>     5.1727    34.5662   436.1095 </r>
       <r>     5.2331    44.2230   438.7814 </r>
       <r>     5.2935    39.8893   441.1908 </r>
       <r>     5.3539    36.6301   443.4034 </r>
       <r>     5.4143    41.4945   445.9100 </r>
       <r>     5.4747    50.2639   448.9461 </r>
       <r>     5.5351    60.9807   452.6296 </r>
       <r>     5.5955    39.8325   455.0356 </r>
       <r>     5.6559    35.4921   457.1794 </r>
       <r>     5.7163    64.2247   461.0594 </r>
       <r>     5.7767    23.0475   462.4519 </r>
       <r>     5.8371    16.3847   463.4419 </r>
       <r>     5.8975     9.2399   464.0000 </r>
       <r>     5.9579     0.0000   464.0000 </r>
       <r>     6.0183     0.0000   464.0000 </r>
       <r>     6.0787     0.0000   464.0000 </r>
       <r>     6.1391     0.0000   464.0000 </r>
       <r>     6.1996     0.0000   464.0000 </r>
       <r>     6.2600     0.0000   464.0000 </r>
       <r>     6.3204     0.0000   464.0000 </r>
       <r>     6.3808     0.0000   464.0000 </r>
       <r>     6.4412     0.0000   464.0000 </r>
       <r>     6.5016     0.0000   464.0000 </r>
       <r>     6.5620     0.0000   464.0000 </r>
       <r>     6.6224     0.0000   464.0000 </r>
       <r>     6.6828     0.0000   464.0000 </r>
      </set>
     </set>
    </array>
   </total>
  </dos>
 </calculation>
 <structure name="finalpos" >
  <crystal>
   <varray name="basis" >
    <v>      12.65122604       0.00000000       0.00000000 </v>
    <v>       2.53024530      12.39562035       0.00000000 </v>
    <v>       0.00000000       0.00000000      13.73516273 </v>
   </varray>
   <i name="volume">   2153.94540375 </i>
   <varray name="rec_basis" >
    <v>       0.07904372      -0.01613473       0.00000000 </v>
    <v>       0.00000000       0.08067366       0.00000000 </v>
    <v>       0.00000000       0.00000000       0.07280584 </v>
   </varray>
  </crystal>
  <varray name="positions" >
   <v>       0.65051347       0.04417777       0.50000006 </v>
   <v>       0.99259037       0.94813251       0.00000002 </v>
   <v>       0.95092356       0.65646577       0.08408309 </v>
   <v>       0.90925682       0.36479890       0.16816616 </v>
   <v>       0.86759007       0.07313222       0.25224918 </v>
   <v>       0.82592332       0.78146553       0.33633217 </v>
   <v>       0.27551365       0.66917771       0.50000006 </v>
   <v>       0.49259037       0.44813251       0.00000003 </v>
   <v>       0.45092362       0.15646577       0.08408309 </v>
   <v>       0.40925688       0.86479896       0.16816616 </v>
   <v>       0.36759013       0.57313228       0.25224918 </v>
   <v>       0.32592338       0.28146553       0.33633223 </v>
   <v>       0.10884666       0.25251091       0.58408308 </v>
   <v>       0.36759040       0.82313263       0.00000001 </v>
   <v>       0.32592362       0.53146583       0.08408309 </v>
   <v>       0.28425688       0.23979901       0.16816619 </v>
   <v>       0.24259017       0.94813240       0.25224918 </v>
   <v>       0.94217998       0.33584419       0.66816616 </v>
   <v>       0.02551353       0.91917777       0.50000006 </v>
   <v>       0.86759049       0.32313258       0.00000001 </v>
   <v>       0.82592368       0.03146578       0.08408309 </v>
   <v>       0.78425688       0.73979890       0.16816616 </v>
   <v>       0.65051347       0.04417777       0.50000006 </v>
   <v>       0.70092338       0.15646553       0.33633217 </v>
   <v>       0.40051341       0.29417765       0.50000006 </v>
   <v>       0.24259035       0.69813263       0.00000000 </v>
   <v>       0.20092359       0.40646580       0.08408308 </v>
   <v>       0.15925685       0.11479896       0.16816616 </v>
   <v>       0.85884678       0.50251091       0.58408308 </v>
   <v>       0.07592334       0.53146553       0.33633217 </v>
   <v>       0.48384672       0.12751102       0.58408308 </v>
   <v>       0.74259043       0.19813251       0.00000002 </v>
   <v>       0.70092362       0.90646571       0.08408309 </v>
   <v>       0.65925688       0.61479890       0.16816616 </v>
   <v>       0.60884666       0.75251091       0.58408308 </v>
   <v>       0.52551347       0.41917768       0.50000006 </v>
   <v>       0.90925658       0.61479878       0.42041531 </v>
   <v>       0.11759036       0.07313251       0.00000002 </v>
   <v>       0.07592360       0.78146577       0.08408309 </v>
   <v>       0.03425685       0.48979896       0.16816616 </v>
   <v>       0.99259007       0.19813222       0.25224918 </v>
   <v>       0.90051347       0.79417765       0.50000006 </v>
   <v>       0.31717992       0.71084422       0.66816616 </v>
   <v>       0.61759049       0.57313258       0.00000001 </v>
   <v>       0.57592362       0.28146583       0.08408308 </v>
   <v>       0.53425694       0.98979902       0.16816619 </v>
   <v>       0.49259019       0.69813228       0.25224924 </v>
   <v>       0.44218004       0.83584428       0.66816616 </v>
   <v>       0.94217962       0.08584392       0.92041534 </v>
   <v>       0.03425656       0.23979878       0.42041528 </v>
   <v>       0.15925664       0.36479878       0.42041531 </v>
   <v>       0.81717992       0.21084416       0.66816616 </v>
   <v>       0.52551317       0.16917741       0.75224924 </v>
   <v>       0.23384643       0.12751067       0.83633232 </v>
   <v>       0.44217968       0.58584392       0.92041534 </v>
   <v>       0.95092338       0.90646553       0.33633223 </v>
   <v>       0.61759025       0.32313234       0.25224918 </v>
   <v>       0.40925661       0.11479884       0.42041531 </v>
   <v>       0.02551317       0.66917741       0.75224924 </v>
   <v>       0.73384643       0.62751067       0.83633232 </v>
   <v>       0.81717974       0.46084398       0.92041534 </v>
   <v>       0.40925661       0.11479884       0.42041531 </v>
   <v>       0.98384678       0.62751091       0.58408308 </v>
   <v>       0.69218004       0.58584422       0.66816616 </v>
   <v>       0.40051341       0.54417747       0.75224924 </v>
   <v>       0.10884666       0.50251073       0.83633232 </v>
   <v>       0.31717968       0.96084392       0.92041528 </v>
   <v>       0.78425658       0.48979867       0.42041528 </v>
   <v>       0.53425670       0.73979867       0.42041531 </v>
   <v>       0.19217992       0.08584416       0.66816616 </v>
   <v>       0.90051329       0.04417753       0.75224924 </v>
   <v>       0.60884649       0.00251067       0.83633232 </v>
   <v>       0.69217968       0.33584389       0.92041534 </v>
   <v>       0.15051353       0.54417765       0.50000006 </v>
   <v>       0.11759009       0.82313240       0.25224915 </v>
   <v>       0.56717998       0.46084416       0.66816616 </v>
   <v>       0.27551329       0.41917741       0.75224918 </v>
   <v>       0.98384649       0.37751067       0.83633226 </v>
   <v>       0.19217968       0.83584404       0.92041534 </v>
   <v>       0.74259013       0.44813234       0.25224918 </v>
   <v>       0.35884666       0.00251102       0.58408308 </v>
   <v>       0.06717992       0.96084416       0.66816616 </v>
   <v>       0.77551323       0.91917753       0.75224924 </v>
   <v>       0.48384643       0.87751079       0.83633232 </v>
   <v>       0.06717968       0.21084392       0.92041534 </v>
   <v>       0.57592344       0.03146547       0.33633217 </v>
   <v>       0.23384666       0.37751091       0.58408308 </v>
   <v>       0.20092338       0.65646565       0.33633223 </v>
   <v>       0.65051317       0.29417741       0.75224918 </v>
   <v>       0.35884643       0.25251067       0.83633232 </v>
   <v>       0.56717974       0.71084404       0.92041534 </v>
   <v>       0.65925658       0.86479867       0.42041528 </v>
   <v>       0.73384672       0.87751091       0.58408308 </v>
   <v>       0.45092344       0.40646553       0.33633226 </v>
   <v>       0.15051317       0.79417753       0.75224924 </v>
   <v>       0.85884649       0.75251079       0.83633232 </v>
  </varray>
 </structure>
</modeling>
