       N       E                     dE             d eps       ncg     rms          rms(c)
DAV:   1     0.138858654541E+04    0.13886E+04   -0.16966E+05  9280   0.172E+03
DAV:   2    -0.714508595583E+03   -0.21031E+04   -0.20347E+04 10816   0.214E+02
DAV:   3    -0.940829973068E+03   -0.22632E+03   -0.21707E+03 11648   0.658E+01
DAV:   4    -0.951298466726E+03   -0.10468E+02   -0.10055E+02 11320   0.136E+01
DAV:   5    -0.951787057391E+03   -0.48859E+00   -0.48081E+00 12264   0.257E+00    0.671E+01
DAV:   6    -0.938347239966E+03    0.13440E+02   -0.12427E+02 10472   0.187E+01    0.291E+01
DAV:   7    -0.938400080161E+03   -0.52840E-01   -0.83956E+01 13568   0.213E+01    0.268E+01
DAV:   8    -0.929472950445E+03    0.89271E+01   -0.26782E+02 14816   0.240E+01    0.854E+00
DAV:   9    -0.928708482646E+03    0.76447E+00   -0.38141E+01 11192   0.998E+00    0.767E+00
DAV:  10    -0.928079894770E+03    0.62859E+00   -0.34724E+00 10776   0.295E+00    0.724E+00
DAV:  11    -0.927351946543E+03    0.72795E+00   -0.33785E-01 10944   0.845E-01    0.642E+00
DAV:  12    -0.924606578832E+03    0.27454E+01   -0.63529E+00 10280   0.333E+00    0.292E+00
DAV:  13    -0.924553568306E+03    0.53011E-01   -0.25611E+00 11616   0.227E+00    0.210E+00
DAV:  14    -0.924536490366E+03    0.17078E-01   -0.67582E-02 11296   0.455E-01    0.163E+00
DAV:  15    -0.924516058301E+03    0.20432E-01   -0.26690E-02 11216   0.267E-01    0.100E+00
DAV:  16    -0.924505256606E+03    0.10802E-01   -0.13952E-02 10344   0.202E-01    0.486E-01
DAV:  17    -0.924503065556E+03    0.21911E-02   -0.46179E-03 11248   0.106E-01    0.372E-01
DAV:  18    -0.924502383109E+03    0.68245E-03   -0.22363E-03 11192   0.626E-02    0.309E-01
DAV:  19    -0.924501807427E+03    0.57568E-03   -0.65268E-04 10664   0.382E-02    0.217E-01
DAV:  20    -0.924501397760E+03    0.40967E-03   -0.52005E-04 10552   0.328E-02    0.104E-01
DAV:  21    -0.924501300373E+03    0.97386E-04   -0.21174E-04 11376   0.207E-02    0.436E-02
DAV:  22    -0.924501283624E+03    0.16750E-04   -0.98049E-05 11328   0.138E-02    0.983E-03
DAV:  23    -0.924501285219E+03   -0.15950E-05   -0.14425E-05 10768   0.613E-03    0.717E-03
DAV:  24    -0.924501283597E+03    0.16217E-05   -0.14384E-06 11008   0.208E-03    0.389E-03
DAV:  25    -0.924501281879E+03    0.17176E-05   -0.21496E-06 10728   0.208E-03    0.149E-03
DAV:  26    -0.924501281526E+03    0.35388E-06   -0.68065E-07 11136   0.122E-03    0.766E-04
DAV:  27    -0.924501281546E+03   -0.20269E-07   -0.78953E-08  5760   0.474E-04
   1 F= -.92450128E+03 E0= -.92450022E+03  d E =-.212085E-02  mag=     1.0000
