Si and Ge interface calculation         
           1
    13.303180    0.000000    0.000000
     6.651589   14.873406    0.000000
     0.000000    0.000000    7.994752
   Si   C 
    36    84
Direct configuration=     1
   0.28324950  0.64162475  0.00000005
   0.81658280  0.40829128  0.15190083
   0.34991598  0.17495777  0.30380166
   0.61658275  0.30829138  0.00000006
   0.14991605  0.07495793  0.15190083
   0.68324923  0.84162444  0.30380163
   0.94991612  0.97495806  0.00000004
   0.48324949  0.74162459  0.15190083
   0.01658267  0.50829112  0.30380163
   0.79991627  0.77495801  0.07595029
   0.33324951  0.54162455  0.22785109
   0.86658275  0.30829108  0.37975195
   0.13324969  0.44162476  0.07595030
   0.66658294  0.20829128  0.22785109
   0.19991624  0.97495776  0.37975195
   0.46658289  0.10829154  0.07595030
   0.99991614  0.87495804  0.22785109
   0.53324938  0.64162457  0.37975195
   0.78324956  0.64162475  0.00000000
   0.31658283  0.40829128  0.15190081
   0.84991604  0.17495778  0.30380166
   0.11658280  0.30829140  0.00000006
   0.64991605  0.07495795  0.15190086
   0.18324930  0.84162450  0.30380166
   0.44991612  0.97495806  0.00000006
   0.98324943  0.74162459  0.15190086
   0.51658267  0.50829112  0.30380166
   0.29991618  0.77495813  0.07595030
   0.83324945  0.54162467  0.22785115
   0.36658269  0.30829120  0.37975192
   0.63324940  0.44162473  0.07595032
   0.16658264  0.20829126  0.22785115
   0.69991595  0.97495782  0.37975189
   0.96658272  0.10829155  0.07595030
   0.49991596  0.87495804  0.22785115
   0.03324926  0.64162463  0.37975195
   0.01430893  0.83945715  0.76469648
   0.35716599  0.86802882  0.56517530
   0.68573749  0.85374302  0.66493589
   0.30002311  0.69660008  0.76469648
   0.64288032  0.72517168  0.56517530
   0.97145176  0.71088588  0.66493589
   0.58573741  0.55374295  0.76469648
   0.92859453  0.58231455  0.56517530
   0.25716594  0.56802875  0.66493589
   0.87145179  0.41088578  0.76469648
   0.21430886  0.43945739  0.56517523
   0.54288036  0.42517161  0.66493589
   0.15716603  0.26802865  0.76469648
   0.50002313  0.29660025  0.56517523
   0.82859457  0.28231448  0.66493589
   0.44288030  0.12517154  0.76469648
   0.78573739  0.15374315  0.56517523
   0.11430887  0.13945737  0.66493589
   0.72859472  0.98231441  0.76469654
   0.07145173  0.01088595  0.56517523
   0.40002319  0.99660021  0.66493589
   0.46430877  0.93945718  0.81457668
   0.80716592  0.96802878  0.61505550
   0.13573733  0.95374292  0.71481615
   0.75002307  0.79660004  0.81457668
   0.09288017  0.82517165  0.61505550
   0.42145160  0.81088579  0.71481615
   0.03573728  0.65374291  0.81457681
   0.37859446  0.68231452  0.61505544
   0.70716596  0.66802871  0.71481609
   0.32145169  0.51088584  0.81457668
   0.66430885  0.53945738  0.61505544
   0.99288023  0.52517164  0.71481615
   0.60716611  0.36802873  0.81457681
   0.95002317  0.39660031  0.61505544
   0.27859452  0.38231453  0.71481609
   0.89288026  0.22517154  0.81457681
   0.23573741  0.25374314  0.61505550
   0.56430888  0.23945734  0.71481615
   0.17859462  0.08231440  0.81457668
   0.52145177  0.11088600  0.61505550
   0.85002315  0.09660021  0.71481609
   0.51430887  0.83945721  0.76469648
   0.85716599  0.86802870  0.56517523
   0.18573728  0.85374302  0.66493595
   0.80002332  0.69660008  0.76469654
   0.14288032  0.72517168  0.56517523
   0.47145176  0.71088588  0.66493589
   0.08573762  0.55374295  0.76469654
   0.42859459  0.58231455  0.56517523
   0.75716609  0.56802875  0.66493589
   0.37145177  0.41088584  0.76469654
   0.71430886  0.43945742  0.56517523
   0.04288021  0.42517164  0.66493589
   0.65716595  0.26802877  0.76469654
   0.00002313  0.29660028  0.56517523
   0.32859459  0.28231448  0.66493589
   0.94288039  0.12517156  0.76469654
   0.28573743  0.15374312  0.56517530
   0.61430895  0.13945732  0.66493589
   0.22859457  0.98231447  0.76469654
   0.57145166  0.01088607  0.56517530
   0.90002316  0.99660021  0.66493589
   0.96430886  0.93945730  0.81457668
   0.30716595  0.96802884  0.61505550
   0.63573736  0.95374298  0.71481609
   0.25002316  0.79660010  0.81457668
   0.59288031  0.82517171  0.61505550
   0.92145169  0.81088585  0.71481609
   0.53573746  0.65374291  0.81457668
   0.87859464  0.68231452  0.61505550
   0.20716611  0.66802865  0.71481609
   0.82145160  0.51088584  0.81457663
   0.16430882  0.53945732  0.61505544
   0.49288026  0.52517158  0.71481609
   0.10716609  0.36802867  0.81457668
   0.45002323  0.39660025  0.61505544
   0.77859467  0.38231447  0.71481609
   0.39288011  0.22517151  0.81457668
   0.73573732  0.25374311  0.61505544
   0.06430868  0.23945734  0.71481609
   0.67859453  0.08231448  0.81457668
   0.02145171  0.11088598  0.61505550
   0.35002306  0.09660021  0.71481615
