<?xml version="1.0" encoding="ISO-8859-1"?>
<modeling>
 <generator>
  <i name="program" type="string">vasp </i>
  <i name="version" type="string">6.4.3  </i>
  <i name="subversion" type="string">19Mar24 (build Oct 22 2024 11:23:12) complex                          parallel </i>
  <i name="platform" type="string">LinuxIFC </i>
  <i name="date" type="string">2025 04 30 </i>
  <i name="time" type="string">07:25:05 </i>
 </generator>
 <incar>
  <i type="string" name="SYSTEM">Si011 and Ge011 interface calculation</i>
  <i type="int" name="ISTART">     0</i>
  <i type="logical" name="ADDGRID"> T  </i>
  <i type="int" name="ISPIN">     2</i>
  <i name="AMIX">      0.60000000</i>
  <i type="int" name="ICHARG">     2</i>
  <i type="int" name="NELM">   100</i>
  <i name="EDIFF">      0.00000010</i>
  <i name="ENCUT">    700.00000000</i>
  <i name="ENAUG">    900.00000000</i>
  <i type="int" name="NBANDS">   346</i>
  <i name="NUPDOWN">      1.00000000</i>
  <i name="NELECT">    576.00000000</i>
  <i type="string" name="LREAL">AUTO</i>
  <i type="int" name="ISMEAR">     0</i>
  <i name="SIGMA">      0.01000000</i>
  <i type="int" name="LMAXMIX">     6</i>
  <i type="logical" name="LWAVE"> F  </i>
  <i type="logical" name="LVTOT"> F  </i>
  <i type="logical" name="LVHAR"> T  </i>
  <i type="logical" name="LASPH"> T  </i>
  <i type="logical" name="LMIXTAU"> T  </i>
 </incar>
 <primitive_cell>
  <structure name="primitive_cell" >
   <crystal>
    <varray name="basis" >
     <v>       9.49163842       0.00000000       0.00000000 </v>
     <v>       0.00000000      13.42320379       0.00000000 </v>
     <v>       0.00000000       0.00000000      24.09292386 </v>
    </varray>
    <i name="volume">   3069.63598605 </i>
    <varray name="rec_basis" >
     <v>       0.10535589       0.00000000       0.00000000 </v>
     <v>       0.00000000       0.07449786       0.00000000 </v>
     <v>       0.00000000       0.00000000       0.04150596 </v>
    </varray>
   </crystal>
   <varray name="positions" >
    <v>       0.00000000       0.00000000       0.00000000 </v>
    <v>       0.00000000       0.75000000       0.08041667 </v>
    <v>       0.00000000       0.50000000       0.16083333 </v>
    <v>       0.00000000       0.25000000       0.24124999 </v>
    <v>       0.00000000       0.00000000       0.32166666 </v>
    <v>       0.00000000       0.75000000       0.40208332 </v>
    <v>       0.33333333       0.33333333       0.00000000 </v>
    <v>       0.33333333       0.08333333       0.08041667 </v>
    <v>       0.33333333       0.83333333       0.16083333 </v>
    <v>       0.33333333       0.58333333       0.24124999 </v>
    <v>       0.33333333       0.33333333       0.32166666 </v>
    <v>       0.33333333       0.08333333       0.40208332 </v>
    <v>       0.11524823       0.07456140       0.90868688 </v>
    <v>       0.66666667       0.41666667       0.08041667 </v>
    <v>       0.66666667       0.16666667       0.16083333 </v>
    <v>       0.66666667       0.91666667       0.24124999 </v>
    <v>       0.66666667       0.66666667       0.32166666 </v>
    <v>       0.11524823       0.82456140       0.49339644 </v>
    <v>       0.36524823       0.07456140       0.90868688 </v>
    <v>       0.00000000       0.25000000       0.08041667 </v>
    <v>       0.00000000       0.00000000       0.16083333 </v>
    <v>       0.00000000       0.75000000       0.24124999 </v>
    <v>       0.00000000       0.50000000       0.32166666 </v>
    <v>       0.36524823       0.82456140       0.49339644 </v>
    <v>       0.78191489       0.15789474       0.82562879 </v>
    <v>       0.33333333       0.58333333       0.08041667 </v>
    <v>       0.33333333       0.33333333       0.16083333 </v>
    <v>       0.33333333       0.08333333       0.24124999 </v>
    <v>       0.33333333       0.83333333       0.32166666 </v>
    <v>       0.78191489       0.90789474       0.57645453 </v>
    <v>       0.78191489       0.40789474       0.90868688 </v>
    <v>       0.66666667       0.91666667       0.08041667 </v>
    <v>       0.66666667       0.66666667       0.16083333 </v>
    <v>       0.66666667       0.41666667       0.24124999 </v>
    <v>       0.66666667       0.16666667       0.32166666 </v>
    <v>       0.78191489       0.15789474       0.49339644 </v>
    <v>       0.08333333       0.33333333       0.00000000 </v>
    <v>       0.08333333       0.08333333       0.08041667 </v>
    <v>       0.08333333       0.83333333       0.16083333 </v>
    <v>       0.08333333       0.58333333       0.24124999 </v>
    <v>       0.08333333       0.33333333       0.32166666 </v>
    <v>       0.08333333       0.08333333       0.40208332 </v>
    <v>       0.41666667       0.66666667       0.00000000 </v>
    <v>       0.41666667       0.41666667       0.08041667 </v>
    <v>       0.41666667       0.16666667       0.16083333 </v>
    <v>       0.41666667       0.91666667       0.24124999 </v>
    <v>       0.03191489       0.15789474       0.49339644 </v>
    <v>       0.41666667       0.41666667       0.40208332 </v>
    <v>       0.75000000       0.00000000       0.00000000 </v>
    <v>       0.75000000       0.75000000       0.08041667 </v>
    <v>       0.75000000       0.50000000       0.16083333 </v>
    <v>       0.75000000       0.25000000       0.24124999 </v>
    <v>       0.75000000       0.00000000       0.32166666 </v>
    <v>       0.75000000       0.75000000       0.40208332 </v>
    <v>       0.08333333       0.83333333       0.00000000 </v>
    <v>       0.08333333       0.58333333       0.08041667 </v>
    <v>       0.11524823       0.57456140       0.90868688 </v>
    <v>       0.11524823       0.32456140       0.49339644 </v>
    <v>       0.08333333       0.83333333       0.32166666 </v>
    <v>       0.08333333       0.58333333       0.40208332 </v>
    <v>       0.41666667       0.16666667       0.00000000 </v>
    <v>       0.03191489       0.40789474       0.90868688 </v>
    <v>       0.41666667       0.66666667       0.16083333 </v>
    <v>       0.41666667       0.41666667       0.24124999 </v>
    <v>       0.41666667       0.16666667       0.32166666 </v>
    <v>       0.41666667       0.91666667       0.40208332 </v>
    <v>       0.75000000       0.50000000       0.00000000 </v>
    <v>       0.75000000       0.25000000       0.08041667 </v>
    <v>       0.75000000       0.00000000       0.16083333 </v>
    <v>       0.75000000       0.75000000       0.24124999 </v>
    <v>       0.75000000       0.50000000       0.32166666 </v>
    <v>       0.75000000       0.25000000       0.40208332 </v>
    <v>       0.41666667       0.66666667       0.32166666 </v>
    <v>       0.03191489       0.40789474       0.57645453 </v>
    <v>       0.03191489       0.65789474       0.65951262 </v>
    <v>       0.03191489       0.90789474       0.74257071 </v>
    <v>       0.03191489       0.15789474       0.82562879 </v>
    <v>       0.41666667       0.91666667       0.08041667 </v>
    <v>       0.00000000       0.25000000       0.40208332 </v>
    <v>       0.36524823       0.07456140       0.57645453 </v>
    <v>       0.36524823       0.32456140       0.65951262 </v>
    <v>       0.36524823       0.57456140       0.74257071 </v>
    <v>       0.36524823       0.82456140       0.82562879 </v>
    <v>       0.00000000       0.50000000       0.00000000 </v>
    <v>       0.69858156       0.49122807       0.49339644 </v>
    <v>       0.69858156       0.74122807       0.57645453 </v>
    <v>       0.69858156       0.99122807       0.65951262 </v>
    <v>       0.69858156       0.24122807       0.74257071 </v>
    <v>       0.69858156       0.49122807       0.82562879 </v>
    <v>       0.69858156       0.74122807       0.90868688 </v>
    <v>       0.03191489       0.65789474       0.49339644 </v>
    <v>       0.03191489       0.90789474       0.57645453 </v>
    <v>       0.03191489       0.15789474       0.65951262 </v>
    <v>       0.03191489       0.40789474       0.74257071 </v>
    <v>       0.03191489       0.65789474       0.82562879 </v>
    <v>       0.03191489       0.90789474       0.90868688 </v>
    <v>       0.36524823       0.32456140       0.49339644 </v>
    <v>       0.36524823       0.57456140       0.57645453 </v>
    <v>       0.36524823       0.82456140       0.65951262 </v>
    <v>       0.36524823       0.07456140       0.74257071 </v>
    <v>       0.36524823       0.32456140       0.82562879 </v>
    <v>       0.36524823       0.57456140       0.90868688 </v>
    <v>       0.69858156       0.99122807       0.49339644 </v>
    <v>       0.69858156       0.24122807       0.57645453 </v>
    <v>       0.69858156       0.49122807       0.65951262 </v>
    <v>       0.69858156       0.74122807       0.74257071 </v>
    <v>       0.69858156       0.99122807       0.82562879 </v>
    <v>       0.69858156       0.24122807       0.90868688 </v>
    <v>       0.66666667       0.41666667       0.40208332 </v>
    <v>       0.11524823       0.07456140       0.57645453 </v>
    <v>       0.11524823       0.32456140       0.65951262 </v>
    <v>       0.11524823       0.57456140       0.74257071 </v>
    <v>       0.11524823       0.82456140       0.82562879 </v>
    <v>       0.66666667       0.66666667       0.00000000 </v>
    <v>       0.44858156       0.49122807       0.49339644 </v>
    <v>       0.44858156       0.74122807       0.57645453 </v>
    <v>       0.44858156       0.99122807       0.65951262 </v>
    <v>       0.44858156       0.24122807       0.74257071 </v>
    <v>       0.44858156       0.49122807       0.82562879 </v>
    <v>       0.44858156       0.74122807       0.90868688 </v>
    <v>       0.66666667       0.91666667       0.40208332 </v>
    <v>       0.78191489       0.40789474       0.57645453 </v>
    <v>       0.78191489       0.65789474       0.65951262 </v>
    <v>       0.78191489       0.90789474       0.74257071 </v>
    <v>       0.33333333       0.83333333       0.00000000 </v>
    <v>       0.66666667       0.16666667       0.00000000 </v>
    <v>       0.08333333       0.08333333       0.24124999 </v>
    <v>       0.11524823       0.57456140       0.57645453 </v>
    <v>       0.11524823       0.82456140       0.65951262 </v>
    <v>       0.11524823       0.07456140       0.74257071 </v>
    <v>       0.11524823       0.32456140       0.82562879 </v>
    <v>       0.08333333       0.33333333       0.16083333 </v>
    <v>       0.44858156       0.99122807       0.49339644 </v>
    <v>       0.44858156       0.24122807       0.57645453 </v>
    <v>       0.44858156       0.49122807       0.65951262 </v>
    <v>       0.44858156       0.74122807       0.74257071 </v>
    <v>       0.44858156       0.99122807       0.82562879 </v>
    <v>       0.44858156       0.24122807       0.90868688 </v>
    <v>       0.78191489       0.65789474       0.49339644 </v>
    <v>       0.33333333       0.58333333       0.40208332 </v>
    <v>       0.78191489       0.15789474       0.65951262 </v>
    <v>       0.78191489       0.40789474       0.74257071 </v>
    <v>       0.78191489       0.65789474       0.82562879 </v>
    <v>       0.78191489       0.90789474       0.90868688 </v>
   </varray>
  </structure>
  <varray name="primitive_index" >
   <v type="int" >        1 </v>
   <v type="int" >        2 </v>
   <v type="int" >        3 </v>
   <v type="int" >        4 </v>
   <v type="int" >        5 </v>
   <v type="int" >        6 </v>
   <v type="int" >        7 </v>
   <v type="int" >        8 </v>
   <v type="int" >        9 </v>
   <v type="int" >       10 </v>
   <v type="int" >       11 </v>
   <v type="int" >       12 </v>
   <v type="int" >       13 </v>
   <v type="int" >       14 </v>
   <v type="int" >       15 </v>
   <v type="int" >       16 </v>
   <v type="int" >       17 </v>
   <v type="int" >       18 </v>
   <v type="int" >       19 </v>
   <v type="int" >       20 </v>
   <v type="int" >       21 </v>
   <v type="int" >       22 </v>
   <v type="int" >       23 </v>
   <v type="int" >       24 </v>
   <v type="int" >       25 </v>
   <v type="int" >       26 </v>
   <v type="int" >       27 </v>
   <v type="int" >       28 </v>
   <v type="int" >       29 </v>
   <v type="int" >       30 </v>
   <v type="int" >       31 </v>
   <v type="int" >       32 </v>
   <v type="int" >       33 </v>
   <v type="int" >       34 </v>
   <v type="int" >       35 </v>
   <v type="int" >       36 </v>
   <v type="int" >       37 </v>
   <v type="int" >       38 </v>
   <v type="int" >       39 </v>
   <v type="int" >       40 </v>
   <v type="int" >       41 </v>
   <v type="int" >       42 </v>
   <v type="int" >       43 </v>
   <v type="int" >       44 </v>
   <v type="int" >       45 </v>
   <v type="int" >       46 </v>
   <v type="int" >       47 </v>
   <v type="int" >       48 </v>
   <v type="int" >       49 </v>
   <v type="int" >       50 </v>
   <v type="int" >       51 </v>
   <v type="int" >       52 </v>
   <v type="int" >       53 </v>
   <v type="int" >       54 </v>
   <v type="int" >       55 </v>
   <v type="int" >       56 </v>
   <v type="int" >       57 </v>
   <v type="int" >       58 </v>
   <v type="int" >       59 </v>
   <v type="int" >       60 </v>
   <v type="int" >       61 </v>
   <v type="int" >       62 </v>
   <v type="int" >       63 </v>
   <v type="int" >       64 </v>
   <v type="int" >       65 </v>
   <v type="int" >       66 </v>
   <v type="int" >       67 </v>
   <v type="int" >       68 </v>
   <v type="int" >       69 </v>
   <v type="int" >       70 </v>
   <v type="int" >       71 </v>
   <v type="int" >       72 </v>
   <v type="int" >       73 </v>
   <v type="int" >       74 </v>
   <v type="int" >       75 </v>
   <v type="int" >       76 </v>
   <v type="int" >       77 </v>
   <v type="int" >       78 </v>
   <v type="int" >       79 </v>
   <v type="int" >       80 </v>
   <v type="int" >       81 </v>
   <v type="int" >       82 </v>
   <v type="int" >       83 </v>
   <v type="int" >       84 </v>
   <v type="int" >       85 </v>
   <v type="int" >       86 </v>
   <v type="int" >       87 </v>
   <v type="int" >       88 </v>
   <v type="int" >       89 </v>
   <v type="int" >       90 </v>
   <v type="int" >       91 </v>
   <v type="int" >       92 </v>
   <v type="int" >       93 </v>
   <v type="int" >       94 </v>
   <v type="int" >       95 </v>
   <v type="int" >       96 </v>
   <v type="int" >       97 </v>
   <v type="int" >       98 </v>
   <v type="int" >       99 </v>
   <v type="int" >      100 </v>
   <v type="int" >      101 </v>
   <v type="int" >      102 </v>
   <v type="int" >      103 </v>
   <v type="int" >      104 </v>
   <v type="int" >      105 </v>
   <v type="int" >      106 </v>
   <v type="int" >      107 </v>
   <v type="int" >      108 </v>
   <v type="int" >      109 </v>
   <v type="int" >      110 </v>
   <v type="int" >      111 </v>
   <v type="int" >      112 </v>
   <v type="int" >      113 </v>
   <v type="int" >      114 </v>
   <v type="int" >      115 </v>
   <v type="int" >      116 </v>
   <v type="int" >      117 </v>
   <v type="int" >      118 </v>
   <v type="int" >      119 </v>
   <v type="int" >      120 </v>
   <v type="int" >      121 </v>
   <v type="int" >      122 </v>
   <v type="int" >      123 </v>
   <v type="int" >      124 </v>
   <v type="int" >      125 </v>
   <v type="int" >      126 </v>
   <v type="int" >      127 </v>
   <v type="int" >      128 </v>
   <v type="int" >      129 </v>
   <v type="int" >      130 </v>
   <v type="int" >      131 </v>
   <v type="int" >      132 </v>
   <v type="int" >      133 </v>
   <v type="int" >      134 </v>
   <v type="int" >      135 </v>
   <v type="int" >      136 </v>
   <v type="int" >      137 </v>
   <v type="int" >      138 </v>
   <v type="int" >      139 </v>
   <v type="int" >      140 </v>
   <v type="int" >      141 </v>
   <v type="int" >      142 </v>
   <v type="int" >      143 </v>
   <v type="int" >      144 </v>
  </varray>
 </primitive_cell>
 <kpoints>
  <generation param="Gamma">
   <v type="int" name="divisions">       3        2        1 </v>
   <v name="usershift">      0.00000000       0.00000000       0.00000000 </v>
   <v name="genvec1">      0.33333333       0.00000000       0.00000000 </v>
   <v name="genvec2">      0.00000000       0.50000000       0.00000000 </v>
   <v name="genvec3">      0.00000000       0.00000000       1.00000000 </v>
   <v name="shift">      0.00000000       0.00000000       0.00000000 </v>
  </generation>
  <varray name="kpointlist" >
   <v>       0.00000000       0.00000000       0.00000000 </v>
   <v>       0.33333333       0.00000000       0.00000000 </v>
   <v>       0.00000000       0.50000000       0.00000000 </v>
   <v>       0.33333333       0.50000000       0.00000000 </v>
  </varray>
  <varray name="weights" >
   <v>       0.16666667 </v>
   <v>       0.33333333 </v>
   <v>       0.16666667 </v>
   <v>       0.33333333 </v>
  </varray>
 </kpoints>
 <parameters>
  <separator name="general" >
   <i type="string" name="SYSTEM">Si011 and Ge011 interface calculation</i>
   <i type="logical" name="LCOMPAT"> F  </i>
  </separator>
  <separator name="electronic" >
   <i type="string" name="PREC">normal</i>
   <i name="ENMAX">    700.00000000</i>
   <i name="ENAUG">    900.00000000</i>
   <i name="EDIFF">      0.00000010</i>
   <i type="int" name="IALGO">    38</i>
   <i type="int" name="IWAVPR">    10</i>
   <i type="int" name="NBANDS">   346</i>
   <i type="int" name="NBANDSLOW">    -1</i>
   <i type="int" name="NBANDSHIGH">    -1</i>
   <i name="NELECT">    576.00000000</i>
   <i type="int" name="TURBO">     0</i>
   <i type="int" name="IRESTART">     0</i>
   <i type="int" name="NREBOOT">     0</i>
   <i type="int" name="NMIN">     0</i>
   <i name="EREF">      0.00000000</i>
   <separator name="electronic smearing" >
    <i type="int" name="ISMEAR">     0</i>
    <i name="SIGMA">      0.01000000</i>
    <i name="KSPACING">      0.50000000</i>
    <i type="logical" name="KGAMMA"> T  </i>
    <i type="logical" name="KBLOWUP"> T  </i>
   </separator>
   <separator name="electronic projectors" >
    <i type="logical" name="LREAL"> T  </i>
    <v name="ROPT">     -0.00050000     -0.00050000</v>
    <i type="int" name="LMAXPAW">  -100</i>
    <i type="int" name="LMAXMIX">     6</i>
    <i type="logical" name="NLSPLINE"> F  </i>
   </separator>
   <separator name="electronic startup" >
    <i type="int" name="ISTART">     0</i>
    <i type="int" name="ICHARG">     2</i>
    <i type="int" name="INIWAV">     1</i>
   </separator>
   <separator name="electronic spin" >
    <i type="int" name="ISPIN">     2</i>
    <i type="logical" name="LNONCOLLINEAR"> F  </i>
    <v name="MAGMOM">      0.00694444      0.00694444      0.00694444      0.00694444      0.00694444      0.00694444      0.00694444      0.00694444      0.00694444      0.00694444      0.00694444      0.00694444      0.00694444      0.00694444      0.00694444      0.00694444      0.00694444      0.00694444      0.00694444      0.00694444
      0.00694444      0.00694444      0.00694444      0.00694444      0.00694444      0.00694444      0.00694444      0.00694444      0.00694444      0.00694444      0.00694444      0.00694444      0.00694444      0.00694444      0.00694444      0.00694444      0.00694444      0.00694444      0.00694444      0.00694444
      0.00694444      0.00694444      0.00694444      0.00694444      0.00694444      0.00694444      0.00694444      0.00694444      0.00694444      0.00694444      0.00694444      0.00694444      0.00694444      0.00694444      0.00694444      0.00694444      0.00694444      0.00694444      0.00694444      0.00694444
      0.00694444      0.00694444      0.00694444      0.00694444      0.00694444      0.00694444      0.00694444      0.00694444      0.00694444      0.00694444      0.00694444      0.00694444      0.00694444      0.00694444      0.00694444      0.00694444      0.00694444      0.00694444      0.00694444      0.00694444
      0.00694444      0.00694444      0.00694444      0.00694444      0.00694444      0.00694444      0.00694444      0.00694444      0.00694444      0.00694444      0.00694444      0.00694444      0.00694444      0.00694444      0.00694444      0.00694444      0.00694444      0.00694444      0.00694444      0.00694444
      0.00694444      0.00694444      0.00694444      0.00694444      0.00694444      0.00694444      0.00694444      0.00694444      0.00694444      0.00694444      0.00694444      0.00694444      0.00694444      0.00694444      0.00694444      0.00694444      0.00694444      0.00694444      0.00694444      0.00694444
      0.00694444      0.00694444      0.00694444      0.00694444      0.00694444      0.00694444      0.00694444      0.00694444      0.00694444      0.00694444      0.00694444      0.00694444      0.00694444      0.00694444      0.00694444      0.00694444      0.00694444      0.00694444      0.00694444      0.00694444
      0.00694444      0.00694444      0.00694444      0.00694444</v>
    <i name="NUPDOWN">      1.00000000</i>
    <i type="logical" name="LSORBIT"> F  </i>
    <v name="SAXIS">      0.00000000      0.00000000      1.00000000</v>
    <i type="logical" name="LSPIRAL"> F  </i>
    <v name="QSPIRAL">      0.00000000      0.00000000      0.00000000</v>
    <i type="logical" name="LZEROZ"> F  </i>
   </separator>
   <separator name="electronic exchange-correlation" >
    <i type="logical" name="LASPH"> T  </i>
   </separator>
   <separator name="electronic convergence" >
    <i type="int" name="NELM">   100</i>
    <i type="int" name="NELMDL">    -5</i>
    <i type="int" name="NELMIN">     2</i>
    <i name="ENINI">    700.00000000</i>
    <separator name="electronic convergence detail" >
     <i type="logical" name="LDIAG"> T  </i>
     <i type="logical" name="LSUBROT"> F  </i>
     <i name="WEIMIN">      0.00000000</i>
     <i name="EBREAK">      0.00000000</i>
     <i name="DEPER">      0.30000000</i>
     <i type="int" name="NRMM">     4</i>
     <i name="TIME">      0.40000000</i>
    </separator>
   </separator>
   <separator name="electronic mixer" >
    <i name="AMIX">      0.60000000</i>
    <i name="BMIX">      1.00000000</i>
    <i name="AMIN">      0.10000000</i>
    <i name="AMIX_MAG">      2.40000000</i>
    <i name="BMIX_MAG">      1.00000000</i>
    <separator name="electronic mixer details" >
     <i type="int" name="IMIX">     4</i>
     <i type="logical" name="MIXFIRST"> F  </i>
     <i type="int" name="MAXMIX">   -45</i>
     <i name="WC">    100.00000000</i>
     <i type="int" name="INIMIX">     1</i>
     <i type="int" name="MIXPRE">     1</i>
     <i type="int" name="MREMOVE">     5</i>
    </separator>
   </separator>
   <separator name="electronic dipolcorrection" >
    <i type="logical" name="LDIPOL"> F  </i>
    <i type="logical" name="LMONO"> F  </i>
    <i type="int" name="IDIPOL">     0</i>
    <i name="EPSILON">      1.00000000</i>
    <v name="DIPOL">   -100.00000000   -100.00000000   -100.00000000</v>
    <i name="EFIELD">      0.00000000</i>
    <i type="logical" name="LVACPOTAV"> F  </i>
   </separator>
  </separator>
  <separator name="grids" >
   <i type="int" name="NGX">    64</i>
   <i type="int" name="NGY">    90</i>
   <i type="int" name="NGZ">   160</i>
   <i type="int" name="NGXF">   128</i>
   <i type="int" name="NGYF">   180</i>
   <i type="int" name="NGZF">   320</i>
   <i type="logical" name="ADDGRID"> T  </i>
  </separator>
  <separator name="ionic" >
   <i type="int" name="NSW">     0</i>
   <i type="int" name="IBRION">    -1</i>
   <i type="int" name="MDALGO">     0</i>
   <i type="int" name="ISIF">     2</i>
   <i name="PSTRESS">      0.00000000</i>
   <i name="EDIFFG">      0.00000100</i>
   <i type="int" name="NFREE">     0</i>
   <i name="POTIM">      0.50000000</i>
   <i name="SMASS">     -3.00000000</i>
   <i name="SCALEE">      1.00000000</i>
  </separator>
  <separator name="ionic md" >
   <i name="TEBEG">      0.00010000</i>
   <i name="TEEND">      0.00010000</i>
   <i type="int" name="NBLOCK">     1</i>
   <i type="int" name="KBLOCK">     1</i>
   <i type="int" name="NPACO">   256</i>
   <i name="APACO">     10.00000000</i>
  </separator>
  <separator name="symmetry" >
   <i type="int" name="ISYM">     2</i>
   <i name="SYMPREC">      0.00001000</i>
  </separator>
  <separator name="dos" >
   <i type="int" name="LORBIT">     0</i>
   <v name="RWIGS">     -1.00000000     -1.00000000</v>
   <i type="int" name="NEDOS">   301</i>
   <i name="EMIN">     10.00000000</i>
   <i name="EMAX">    -10.00000000</i>
   <i name="EFERMI">      0.00000000</i>
  </separator>
  <separator name="writing" >
   <i type="int" name="NWRITE">     2</i>
   <i type="logical" name="LWAVE"> F  </i>
   <i type="logical" name="LDOWNSAMPLE"> F  </i>
   <i type="logical" name="LCHARG"> T  </i>
   <i type="logical" name="LPARD"> F  </i>
   <i type="logical" name="LVTOT"> F  </i>
   <i type="logical" name="LVHAR"> T  </i>
   <i type="logical" name="LELF"> F  </i>
   <i type="logical" name="LOPTICS"> F  </i>
   <v name="STM">      0.00000000      0.00000000      0.00000000      0.00000000      0.00000000      0.00000000      0.00000000</v>
  </separator>
  <separator name="performance" >
   <i type="int" name="NPAR">     1</i>
   <i type="int" name="NSIM">     4</i>
   <i type="int" name="NBLK">    -1</i>
   <i type="logical" name="LPLANE"> T  </i>
   <i type="logical" name="LSCALAPACK"> T  </i>
   <i type="logical" name="LSCAAWARE"> F  </i>
   <i type="logical" name="LSCALU"> F  </i>
   <i type="logical" name="LASYNC"> F  </i>
   <i type="logical" name="LORBITALREAL"> F  </i>
  </separator>
  <separator name="miscellaneous" >
   <i type="int" name="IDIOT">     3</i>
   <i type="int" name="PHON_NSTRUCT">    -1</i>
   <i type="logical" name="LMUSIC"> F  </i>
   <v name="POMASS">     28.08500000     72.61000000</v>
   <v name="DARWINR">      0.00000000      0.00000000</v>
   <v name="DARWINV">      1.00000000      1.00000000</v>
   <i type="logical" name="LCORR"> T  </i>
  </separator>
  <i type="logical" name="GGA_COMPAT"> T  </i>
  <i type="logical" name="LBERRY"> F  </i>
  <i type="int" name="ICORELEVEL">     0</i>
  <i type="logical" name="LDAU"> F  </i>
  <i type="int" name="I_CONSTRAINED_M">     0</i>
  <separator name="electronic exchange-correlation" >
   <i type="string" name="GGA    ">PE</i>
   <i type="string" name="XC_C">1</i>
   <i type="int" name="VOSKOWN">     0</i>
   <i type="logical" name="LHFCALC"> F  </i>
   <i type="string" name="PRECFOCK"></i>
   <i type="logical" name="LSYMGRAD"> F  </i>
   <i type="logical" name="LHFONE"> F  </i>
   <i type="logical" name="LRHFCALC"> F  </i>
   <i type="logical" name="LTHOMAS"> F  </i>
   <i type="logical" name="LMODELHF"> F  </i>
   <i type="logical" name="LFOCKACE"> F  </i>
   <i name="ENCUT4O">     -1.00000000</i>
   <i type="int" name="EXXOEP">     0</i>
   <i type="int" name="FOURORBIT">     0</i>
   <i name="AEXX">      0.00000000</i>
   <i name="HFALPHA">      0.00000000</i>
   <i name="MCALPHA">      0.00000000</i>
   <i name="ALDAX">      1.00000000</i>
   <i name="AGGAX">      1.00000000</i>
   <i name="AMGGAX">      1.00000000</i>
   <i name="ALDAC">      1.00000000</i>
   <i name="AGGAC">      1.00000000</i>
   <i name="AMGGAC">      1.00000000</i>
   <i type="int" name="NKREDX">     1</i>
   <i type="int" name="NKREDY">     1</i>
   <i type="int" name="NKREDZ">     1</i>
   <i type="logical" name="SHIFTRED"> F  </i>
   <i type="logical" name="ODDONLY"> F  </i>
   <i type="logical" name="EVENONLY"> F  </i>
   <i type="int" name="LMAXFOCK">     0</i>
   <i type="int" name="NMAXFOCKAE">     0</i>
   <i type="logical" name="LFOCKAEDFT"> F  </i>
   <i name="HFSCREEN">      0.00000000</i>
   <i name="HFSCREENC">      0.00000000</i>
   <i type="int" name="NBANDSGWLOW">     0</i>
  </separator>
  <separator name="vdW DFT" >
   <i type="logical" name="LUSE_VDW"> F  </i>
   <i type="int" name="IVDW_NL">    -1</i>
   <i type="logical" name="LSPIN_VDW"> F  </i>
   <i name="ZAB_VDW">     -0.84910000</i>
   <i name="GAMMA_VDW">      1.39626340</i>
   <i name="ALPHA_VDW">      0.00000000</i>
   <i name="PARAM1">      0.12340000</i>
   <i name="PARAM2">      1.00000000</i>
   <i name="BPARAM">      6.30000000</i>
   <i name="CPARAM">      0.00930000</i>
  </separator>
  <separator name="model GW" >
   <i type="int" name="MODEL_GW">     0</i>
   <i name="MODEL_EPS0">     12.79014994</i>
   <i name="MODEL_ALPHA">      1.00000000</i>
  </separator>
  <separator name="linear response parameters" >
   <i type="logical" name="LEPSILON"> F  </i>
   <i type="logical" name="LRPA"> F  </i>
   <i type="logical" name="LNABLA"> F  </i>
   <i type="logical" name="LVEL"> F  </i>
   <i name="CSHIFT">      0.10000000</i>
   <i name="OMEGAMAX">     -1.00000000</i>
   <i name="DEG_THRESHOLD">      0.00200000</i>
   <i name="RTIME">     -0.10000000</i>
   <i name="WPLASMAI">      0.00000000</i>
   <v name="DFIELD">      0.00000000      0.00000000      0.00000000</v>
   <v name="WPLASMA">      0.00000000      0.00000000      0.00000000      0.00000000      0.00000000      0.00000000      0.00000000      0.00000000      0.00000000</v>
  </separator>
  <separator name="orbital magnetization" >
   <i type="logical" name="NUCIND"> F  </i>
   <v name="MAGPOS">      0.00000000      0.00000000      0.00000000</v>
   <i type="logical" name="LNICSALL"> T  </i>
   <i type="logical" name="ORBITALMAG"> F  </i>
   <i type="logical" name="LMAGBLOCH"> F  </i>
   <i type="logical" name="LCHIMAG"> F  </i>
   <i type="logical" name="LGAUGE"> T  </i>
   <i type="int" name="MAGATOM">     0</i>
   <v name="MAGDIPOL">      0.00000000      0.00000000      0.00000000</v>
   <v name="AVECCONST">      0.00000000      0.00000000      0.00000000</v>
  </separator>
  <separator name="response functions" >
   <i type="logical" name="LALL_IN_ONE"> F  </i>
   <i type="int" name="IALL_IN_ONE">    -1</i>
   <i type="int" name="NBANDS_WAVE">    -1</i>
   <i type="logical" name="LFINITE_TEMPERATURE"> F  </i>
   <i type="logical" name="LADDER"> F  </i>
   <i type="logical" name="LRPAFORCE"> F  </i>
   <i type="logical" name="LFXC"> F  </i>
   <i type="logical" name="LHARTREE"> T  </i>
   <i type="int" name="IBSE">     0</i>
   <v type="int" name="KPOINT">    -1     0     0     0</v>
   <i type="logical" name="LTCTC"> F  </i>
   <i type="logical" name="LTCTE"> F  </i>
   <i type="logical" name="LTETE"> F  </i>
   <i type="logical" name="LTRIPLET"> F  </i>
   <i type="logical" name="LFXCEPS"> F  </i>
   <i type="logical" name="LFXHEG"> F  </i>
   <i type="int" name="NATURALO">     2</i>
   <i type="logical" name="LHOLEGF"> F  </i>
   <i type="logical" name="L2ORDER"> F  </i>
   <i type="logical" name="LDMP1"> F  </i>
   <i type="logical" name="LMP2LT"> F  </i>
   <i type="logical" name="LSMP2LT"> F  </i>
   <i type="logical" name="LGWLF"> F  </i>
   <i name="ENCUTGW">     -1.60000002</i>
   <i name="ENCUTGWSOFT">     -1.60000002</i>
   <i name="ENCUTLF">     -1.00000000</i>
   <i type="logical" name="ESF_SPLINES"> F  </i>
   <i name="ESF_CONV">      0.01000000</i>
   <i type="int" name="ESF_NINTER">    15</i>
   <i type="int" name="LMAXMP2">    -1</i>
   <i name="SCISSOR">      0.00000000</i>
   <i type="int" name="NOMEGA">     0</i>
   <i type="int" name="NOMEGAR">     0</i>
   <i type="int" name="NBANDSGW">    -1</i>
   <i type="int" name="NBANDSO">    -1</i>
   <i type="int" name="NBANDSV">    -1</i>
   <i type="int" name="NELMGW">     1</i>
   <i type="int" name="NELMHF">     1</i>
   <i type="int" name="DIM">     3</i>
   <i type="int" name="IESPILON">     4</i>
   <i type="int" name="ANTIRES">     0</i>
   <i name="OMEGAMAX">    -30.00000000</i>
   <i name="OMEGAMIN">    -30.00000000</i>
   <i name="OMEGATL">   -200.00000000</i>
   <i type="int" name="OMEGAGRID">     0</i>
   <i name="CSHIFT">     -0.10000000</i>
   <i type="logical" name="LSELFENERGY"> F  </i>
   <i type="logical" name="LSPECTRAL"> F  </i>
   <i type="logical" name="LSPECTRALGW"> F  </i>
   <i type="logical" name="LSINGLES"> F  </i>
   <i type="logical" name="LFERMIGW"> F  </i>
   <i type="logical" name="ODDONLYGW"> F  </i>
   <i type="logical" name="EVENONLYGW"> F  </i>
   <i type="int" name="NKREDLFX">     1</i>
   <i type="int" name="NKREDLFY">     1</i>
   <i type="int" name="NKREDLFZ">     1</i>
   <i type="int" name="MAXMEM">  2800</i>
   <i type="int" name="TELESCOPE">     0</i>
   <i type="int" name="NTAUPAR">    -1</i>
   <i type="int" name="NOMEGAPAR">    -1</i>
   <i name="DAMP_NEWTON">      0.80000001</i>
   <i name="LAMBDA">      1.00000000</i>
  </separator>
  <separator name="External order field" >
   <i name="OFIELD_KAPPA">      0.00000000</i>
   <v name="OFIELD_K">      0.00000000      0.00000000      0.00000000</v>
   <i name="OFIELD_Q6_NEAR">      0.00000000</i>
   <i name="OFIELD_Q6_FAR">      0.00000000</i>
   <i name="OFIELD_A">      0.00000000</i>
  </separator>
  <separator name="optional k-points parameters" >
   <i type="int" name="KPOINTS_OPT_MODE">     1</i>
   <i type="logical" name="LKPOINTS_OPT"> F  </i>
  </separator>
 </parameters>
 <atominfo>
  <atoms>     144 </atoms>
  <types>       2 </types>
  <array name="atoms" >
   <dimension dim="1">ion</dimension>
   <field type="string">element</field>
   <field type="int">atomtype</field>
   <set>
    <rc><c>Si</c><c>   1</c></rc>
    <rc><c>Si</c><c>   1</c></rc>
    <rc><c>Si</c><c>   1</c></rc>
    <rc><c>Si</c><c>   1</c></rc>
    <rc><c>Si</c><c>   1</c></rc>
    <rc><c>Si</c><c>   1</c></rc>
    <rc><c>Si</c><c>   1</c></rc>
    <rc><c>Si</c><c>   1</c></rc>
    <rc><c>Si</c><c>   1</c></rc>
    <rc><c>Si</c><c>   1</c></rc>
    <rc><c>Si</c><c>   1</c></rc>
    <rc><c>Si</c><c>   1</c></rc>
    <rc><c>Si</c><c>   1</c></rc>
    <rc><c>Si</c><c>   1</c></rc>
    <rc><c>Si</c><c>   1</c></rc>
    <rc><c>Si</c><c>   1</c></rc>
    <rc><c>Si</c><c>   1</c></rc>
    <rc><c>Si</c><c>   1</c></rc>
    <rc><c>Si</c><c>   1</c></rc>
    <rc><c>Si</c><c>   1</c></rc>
    <rc><c>Si</c><c>   1</c></rc>
    <rc><c>Si</c><c>   1</c></rc>
    <rc><c>Si</c><c>   1</c></rc>
    <rc><c>Si</c><c>   1</c></rc>
    <rc><c>Si</c><c>   1</c></rc>
    <rc><c>Si</c><c>   1</c></rc>
    <rc><c>Si</c><c>   1</c></rc>
    <rc><c>Si</c><c>   1</c></rc>
    <rc><c>Si</c><c>   1</c></rc>
    <rc><c>Si</c><c>   1</c></rc>
    <rc><c>Si</c><c>   1</c></rc>
    <rc><c>Si</c><c>   1</c></rc>
    <rc><c>Si</c><c>   1</c></rc>
    <rc><c>Si</c><c>   1</c></rc>
    <rc><c>Si</c><c>   1</c></rc>
    <rc><c>Si</c><c>   1</c></rc>
    <rc><c>Si</c><c>   1</c></rc>
    <rc><c>Si</c><c>   1</c></rc>
    <rc><c>Si</c><c>   1</c></rc>
    <rc><c>Si</c><c>   1</c></rc>
    <rc><c>Si</c><c>   1</c></rc>
    <rc><c>Si</c><c>   1</c></rc>
    <rc><c>Si</c><c>   1</c></rc>
    <rc><c>Si</c><c>   1</c></rc>
    <rc><c>Si</c><c>   1</c></rc>
    <rc><c>Si</c><c>   1</c></rc>
    <rc><c>Si</c><c>   1</c></rc>
    <rc><c>Si</c><c>   1</c></rc>
    <rc><c>Si</c><c>   1</c></rc>
    <rc><c>Si</c><c>   1</c></rc>
    <rc><c>Si</c><c>   1</c></rc>
    <rc><c>Si</c><c>   1</c></rc>
    <rc><c>Si</c><c>   1</c></rc>
    <rc><c>Si</c><c>   1</c></rc>
    <rc><c>Si</c><c>   1</c></rc>
    <rc><c>Si</c><c>   1</c></rc>
    <rc><c>Si</c><c>   1</c></rc>
    <rc><c>Si</c><c>   1</c></rc>
    <rc><c>Si</c><c>   1</c></rc>
    <rc><c>Si</c><c>   1</c></rc>
    <rc><c>Si</c><c>   1</c></rc>
    <rc><c>Si</c><c>   1</c></rc>
    <rc><c>Si</c><c>   1</c></rc>
    <rc><c>Si</c><c>   1</c></rc>
    <rc><c>Si</c><c>   1</c></rc>
    <rc><c>Si</c><c>   1</c></rc>
    <rc><c>Si</c><c>   1</c></rc>
    <rc><c>Si</c><c>   1</c></rc>
    <rc><c>Si</c><c>   1</c></rc>
    <rc><c>Si</c><c>   1</c></rc>
    <rc><c>Si</c><c>   1</c></rc>
    <rc><c>Si</c><c>   1</c></rc>
    <rc><c>Ge</c><c>   2</c></rc>
    <rc><c>Ge</c><c>   2</c></rc>
    <rc><c>Ge</c><c>   2</c></rc>
    <rc><c>Ge</c><c>   2</c></rc>
    <rc><c>Ge</c><c>   2</c></rc>
    <rc><c>Ge</c><c>   2</c></rc>
    <rc><c>Ge</c><c>   2</c></rc>
    <rc><c>Ge</c><c>   2</c></rc>
    <rc><c>Ge</c><c>   2</c></rc>
    <rc><c>Ge</c><c>   2</c></rc>
    <rc><c>Ge</c><c>   2</c></rc>
    <rc><c>Ge</c><c>   2</c></rc>
    <rc><c>Ge</c><c>   2</c></rc>
    <rc><c>Ge</c><c>   2</c></rc>
    <rc><c>Ge</c><c>   2</c></rc>
    <rc><c>Ge</c><c>   2</c></rc>
    <rc><c>Ge</c><c>   2</c></rc>
    <rc><c>Ge</c><c>   2</c></rc>
    <rc><c>Ge</c><c>   2</c></rc>
    <rc><c>Ge</c><c>   2</c></rc>
    <rc><c>Ge</c><c>   2</c></rc>
    <rc><c>Ge</c><c>   2</c></rc>
    <rc><c>Ge</c><c>   2</c></rc>
    <rc><c>Ge</c><c>   2</c></rc>
    <rc><c>Ge</c><c>   2</c></rc>
    <rc><c>Ge</c><c>   2</c></rc>
    <rc><c>Ge</c><c>   2</c></rc>
    <rc><c>Ge</c><c>   2</c></rc>
    <rc><c>Ge</c><c>   2</c></rc>
    <rc><c>Ge</c><c>   2</c></rc>
    <rc><c>Ge</c><c>   2</c></rc>
    <rc><c>Ge</c><c>   2</c></rc>
    <rc><c>Ge</c><c>   2</c></rc>
    <rc><c>Ge</c><c>   2</c></rc>
    <rc><c>Ge</c><c>   2</c></rc>
    <rc><c>Ge</c><c>   2</c></rc>
    <rc><c>Ge</c><c>   2</c></rc>
    <rc><c>Ge</c><c>   2</c></rc>
    <rc><c>Ge</c><c>   2</c></rc>
    <rc><c>Ge</c><c>   2</c></rc>
    <rc><c>Ge</c><c>   2</c></rc>
    <rc><c>Ge</c><c>   2</c></rc>
    <rc><c>Ge</c><c>   2</c></rc>
    <rc><c>Ge</c><c>   2</c></rc>
    <rc><c>Ge</c><c>   2</c></rc>
    <rc><c>Ge</c><c>   2</c></rc>
    <rc><c>Ge</c><c>   2</c></rc>
    <rc><c>Ge</c><c>   2</c></rc>
    <rc><c>Ge</c><c>   2</c></rc>
    <rc><c>Ge</c><c>   2</c></rc>
    <rc><c>Ge</c><c>   2</c></rc>
    <rc><c>Ge</c><c>   2</c></rc>
    <rc><c>Ge</c><c>   2</c></rc>
    <rc><c>Ge</c><c>   2</c></rc>
    <rc><c>Ge</c><c>   2</c></rc>
    <rc><c>Ge</c><c>   2</c></rc>
    <rc><c>Ge</c><c>   2</c></rc>
    <rc><c>Ge</c><c>   2</c></rc>
    <rc><c>Ge</c><c>   2</c></rc>
    <rc><c>Ge</c><c>   2</c></rc>
    <rc><c>Ge</c><c>   2</c></rc>
    <rc><c>Ge</c><c>   2</c></rc>
    <rc><c>Ge</c><c>   2</c></rc>
    <rc><c>Ge</c><c>   2</c></rc>
    <rc><c>Ge</c><c>   2</c></rc>
    <rc><c>Ge</c><c>   2</c></rc>
    <rc><c>Ge</c><c>   2</c></rc>
    <rc><c>Ge</c><c>   2</c></rc>
    <rc><c>Ge</c><c>   2</c></rc>
    <rc><c>Ge</c><c>   2</c></rc>
    <rc><c>Ge</c><c>   2</c></rc>
    <rc><c>Ge</c><c>   2</c></rc>
   </set>
  </array>
  <array name="atomtypes" >
   <dimension dim="1">type</dimension>
   <field type="int">atomspertype</field>
   <field type="string">element</field>
   <field>mass</field>
   <field>valence</field>
   <field type="string">pseudopotential</field>
   <set>
    <rc><c>  72</c><c>Si</c><c>     28.08500000</c><c>      4.00000000</c><c>  PAW_PBE Si 05Jan2001                  </c></rc>
    <rc><c>  72</c><c>Ge</c><c>     72.61000000</c><c>      4.00000000</c><c>  PAW_PBE Ge 05Jan2001                  </c></rc>
   </set>
  </array>
 </atominfo>
 <structure name="initialpos" >
  <crystal>
   <varray name="basis" >
    <v>       9.49163842       0.00000000       0.00000000 </v>
    <v>       0.00000000      13.42320379       0.00000000 </v>
    <v>       0.00000000       0.00000000      24.09292386 </v>
   </varray>
   <i name="volume">   3069.63598605 </i>
   <varray name="rec_basis" >
    <v>       0.10535589       0.00000000       0.00000000 </v>
    <v>       0.00000000       0.07449786       0.00000000 </v>
    <v>       0.00000000       0.00000000       0.04150596 </v>
   </varray>
  </crystal>
  <varray name="positions" >
   <v>       0.00000000       0.00000000       0.00000000 </v>
   <v>       0.00000000       0.75000000       0.08041667 </v>
   <v>       0.00000000       0.50000000       0.16083333 </v>
   <v>       0.00000000       0.25000000       0.24124999 </v>
   <v>       0.00000000       0.00000000       0.32166666 </v>
   <v>       0.00000000       0.75000000       0.40208332 </v>
   <v>       0.33333333       0.33333333       0.00000000 </v>
   <v>       0.33333333       0.08333333       0.08041667 </v>
   <v>       0.33333333       0.83333333       0.16083333 </v>
   <v>       0.33333333       0.58333333       0.24124999 </v>
   <v>       0.33333333       0.33333333       0.32166666 </v>
   <v>       0.33333333       0.08333333       0.40208332 </v>
   <v>       0.11524823       0.07456140       0.90868688 </v>
   <v>       0.66666667       0.41666667       0.08041667 </v>
   <v>       0.66666667       0.16666667       0.16083333 </v>
   <v>       0.66666667       0.91666667       0.24124999 </v>
   <v>       0.66666667       0.66666667       0.32166666 </v>
   <v>       0.11524823       0.82456140       0.49339644 </v>
   <v>       0.36524823       0.07456140       0.90868688 </v>
   <v>       0.00000000       0.25000000       0.08041667 </v>
   <v>       0.00000000       0.00000000       0.16083333 </v>
   <v>       0.00000000       0.75000000       0.24124999 </v>
   <v>       0.00000000       0.50000000       0.32166666 </v>
   <v>       0.36524823       0.82456140       0.49339644 </v>
   <v>       0.78191489       0.15789474       0.82562879 </v>
   <v>       0.33333333       0.58333333       0.08041667 </v>
   <v>       0.33333333       0.33333333       0.16083333 </v>
   <v>       0.33333333       0.08333333       0.24124999 </v>
   <v>       0.33333333       0.83333333       0.32166666 </v>
   <v>       0.78191489       0.90789474       0.57645453 </v>
   <v>       0.78191489       0.40789474       0.90868688 </v>
   <v>       0.66666667       0.91666667       0.08041667 </v>
   <v>       0.66666667       0.66666667       0.16083333 </v>
   <v>       0.66666667       0.41666667       0.24124999 </v>
   <v>       0.66666667       0.16666667       0.32166666 </v>
   <v>       0.78191489       0.15789474       0.49339644 </v>
   <v>       0.08333333       0.33333333       0.00000000 </v>
   <v>       0.08333333       0.08333333       0.08041667 </v>
   <v>       0.08333333       0.83333333       0.16083333 </v>
   <v>       0.08333333       0.58333333       0.24124999 </v>
   <v>       0.08333333       0.33333333       0.32166666 </v>
   <v>       0.08333333       0.08333333       0.40208332 </v>
   <v>       0.41666667       0.66666667       0.00000000 </v>
   <v>       0.41666667       0.41666667       0.08041667 </v>
   <v>       0.41666667       0.16666667       0.16083333 </v>
   <v>       0.41666667       0.91666667       0.24124999 </v>
   <v>       0.03191489       0.15789474       0.49339644 </v>
   <v>       0.41666667       0.41666667       0.40208332 </v>
   <v>       0.75000000       0.00000000       0.00000000 </v>
   <v>       0.75000000       0.75000000       0.08041667 </v>
   <v>       0.75000000       0.50000000       0.16083333 </v>
   <v>       0.75000000       0.25000000       0.24124999 </v>
   <v>       0.75000000       0.00000000       0.32166666 </v>
   <v>       0.75000000       0.75000000       0.40208332 </v>
   <v>       0.08333333       0.83333333       0.00000000 </v>
   <v>       0.08333333       0.58333333       0.08041667 </v>
   <v>       0.11524823       0.57456140       0.90868688 </v>
   <v>       0.11524823       0.32456140       0.49339644 </v>
   <v>       0.08333333       0.83333333       0.32166666 </v>
   <v>       0.08333333       0.58333333       0.40208332 </v>
   <v>       0.41666667       0.16666667       0.00000000 </v>
   <v>       0.03191489       0.40789474       0.90868688 </v>
   <v>       0.41666667       0.66666667       0.16083333 </v>
   <v>       0.41666667       0.41666667       0.24124999 </v>
   <v>       0.41666667       0.16666667       0.32166666 </v>
   <v>       0.41666667       0.91666667       0.40208332 </v>
   <v>       0.75000000       0.50000000       0.00000000 </v>
   <v>       0.75000000       0.25000000       0.08041667 </v>
   <v>       0.75000000       0.00000000       0.16083333 </v>
   <v>       0.75000000       0.75000000       0.24124999 </v>
   <v>       0.75000000       0.50000000       0.32166666 </v>
   <v>       0.75000000       0.25000000       0.40208332 </v>
   <v>       0.41666667       0.66666667       0.32166666 </v>
   <v>       0.03191489       0.40789474       0.57645453 </v>
   <v>       0.03191489       0.65789474       0.65951262 </v>
   <v>       0.03191489       0.90789474       0.74257071 </v>
   <v>       0.03191489       0.15789474       0.82562879 </v>
   <v>       0.41666667       0.91666667       0.08041667 </v>
   <v>       0.00000000       0.25000000       0.40208332 </v>
   <v>       0.36524823       0.07456140       0.57645453 </v>
   <v>       0.36524823       0.32456140       0.65951262 </v>
   <v>       0.36524823       0.57456140       0.74257071 </v>
   <v>       0.36524823       0.82456140       0.82562879 </v>
   <v>       0.00000000       0.50000000       0.00000000 </v>
   <v>       0.69858156       0.49122807       0.49339644 </v>
   <v>       0.69858156       0.74122807       0.57645453 </v>
   <v>       0.69858156       0.99122807       0.65951262 </v>
   <v>       0.69858156       0.24122807       0.74257071 </v>
   <v>       0.69858156       0.49122807       0.82562879 </v>
   <v>       0.69858156       0.74122807       0.90868688 </v>
   <v>       0.03191489       0.65789474       0.49339644 </v>
   <v>       0.03191489       0.90789474       0.57645453 </v>
   <v>       0.03191489       0.15789474       0.65951262 </v>
   <v>       0.03191489       0.40789474       0.74257071 </v>
   <v>       0.03191489       0.65789474       0.82562879 </v>
   <v>       0.03191489       0.90789474       0.90868688 </v>
   <v>       0.36524823       0.32456140       0.49339644 </v>
   <v>       0.36524823       0.57456140       0.57645453 </v>
   <v>       0.36524823       0.82456140       0.65951262 </v>
   <v>       0.36524823       0.07456140       0.74257071 </v>
   <v>       0.36524823       0.32456140       0.82562879 </v>
   <v>       0.36524823       0.57456140       0.90868688 </v>
   <v>       0.69858156       0.99122807       0.49339644 </v>
   <v>       0.69858156       0.24122807       0.57645453 </v>
   <v>       0.69858156       0.49122807       0.65951262 </v>
   <v>       0.69858156       0.74122807       0.74257071 </v>
   <v>       0.69858156       0.99122807       0.82562879 </v>
   <v>       0.69858156       0.24122807       0.90868688 </v>
   <v>       0.66666667       0.41666667       0.40208332 </v>
   <v>       0.11524823       0.07456140       0.57645453 </v>
   <v>       0.11524823       0.32456140       0.65951262 </v>
   <v>       0.11524823       0.57456140       0.74257071 </v>
   <v>       0.11524823       0.82456140       0.82562879 </v>
   <v>       0.66666667       0.66666667       0.00000000 </v>
   <v>       0.44858156       0.49122807       0.49339644 </v>
   <v>       0.44858156       0.74122807       0.57645453 </v>
   <v>       0.44858156       0.99122807       0.65951262 </v>
   <v>       0.44858156       0.24122807       0.74257071 </v>
   <v>       0.44858156       0.49122807       0.82562879 </v>
   <v>       0.44858156       0.74122807       0.90868688 </v>
   <v>       0.66666667       0.91666667       0.40208332 </v>
   <v>       0.78191489       0.40789474       0.57645453 </v>
   <v>       0.78191489       0.65789474       0.65951262 </v>
   <v>       0.78191489       0.90789474       0.74257071 </v>
   <v>       0.33333333       0.83333333       0.00000000 </v>
   <v>       0.66666667       0.16666667       0.00000000 </v>
   <v>       0.08333333       0.08333333       0.24124999 </v>
   <v>       0.11524823       0.57456140       0.57645453 </v>
   <v>       0.11524823       0.82456140       0.65951262 </v>
   <v>       0.11524823       0.07456140       0.74257071 </v>
   <v>       0.11524823       0.32456140       0.82562879 </v>
   <v>       0.08333333       0.33333333       0.16083333 </v>
   <v>       0.44858156       0.99122807       0.49339644 </v>
   <v>       0.44858156       0.24122807       0.57645453 </v>
   <v>       0.44858156       0.49122807       0.65951262 </v>
   <v>       0.44858156       0.74122807       0.74257071 </v>
   <v>       0.44858156       0.99122807       0.82562879 </v>
   <v>       0.44858156       0.24122807       0.90868688 </v>
   <v>       0.78191489       0.65789474       0.49339644 </v>
   <v>       0.33333333       0.58333333       0.40208332 </v>
   <v>       0.78191489       0.15789474       0.65951262 </v>
   <v>       0.78191489       0.40789474       0.74257071 </v>
   <v>       0.78191489       0.65789474       0.82562879 </v>
   <v>       0.78191489       0.90789474       0.90868688 </v>
  </varray>
 </structure>
 <calculation>
  <scstep>
   <time name="dav">   57.62   58.13</time>
   <time name="total">   63.05   63.58</time>
   <energy>
    <i name="alphaZ">    759.26891756 </i>
    <i name="ewald"> -15878.24102947 </i>
    <i name="hartreedc">  -1043.12300051 </i>
    <i name="XCdc">  -1208.91415746 </i>
    <i name="pawpsdc">  12691.36703575 </i>
    <i name="pawaedc"> -10381.54560829 </i>
    <i name="eentropy">     -0.00218637 </i>
    <i name="bandstr">   2536.29497066 </i>
    <i name="atom">  14980.50241411 </i>
    <i name="e_fr_energy">   2455.60735597 </i>
    <i name="e_wo_entrp">   2455.60954234 </i>
    <i name="e_0_energy">   2455.60844916 </i>
   </energy>
  </scstep>
  <scstep>
   <time name="dav">   64.96   65.53</time>
   <time name="total">   64.96   65.53</time>
   <energy>
    <i name="e_fr_energy">   -415.60876747 </i>
    <i name="e_wo_entrp">   -415.60686313 </i>
    <i name="e_0_energy">   -415.60781530 </i>
   </energy>
  </scstep>
  <scstep>
   <time name="dav">   67.41   68.00</time>
   <time name="total">   67.42   68.02</time>
   <energy>
    <i name="e_fr_energy">   -688.84075516 </i>
    <i name="e_wo_entrp">   -688.83927595 </i>
    <i name="e_0_energy">   -688.84001556 </i>
   </energy>
  </scstep>
  <scstep>
   <time name="dav">   64.80   65.36</time>
   <time name="total">   64.80   65.37</time>
   <energy>
    <i name="e_fr_energy">   -698.07426681 </i>
    <i name="e_wo_entrp">   -698.07395419 </i>
    <i name="e_0_energy">   -698.07411050 </i>
   </energy>
  </scstep>
  <scstep>
   <time name="dav">   71.85   72.48</time>
   <time name="total">   75.01   75.68</time>
   <energy>
    <i name="e_fr_energy">   -698.42904106 </i>
    <i name="e_wo_entrp">   -698.42883175 </i>
    <i name="e_0_energy">   -698.42893640 </i>
   </energy>
  </scstep>
  <scstep>
   <time name="dav">   65.32   65.90</time>
   <time name="total">   73.93   74.57</time>
   <energy>
    <i name="e_fr_energy">   -688.79262579 </i>
    <i name="e_wo_entrp">   -688.79129201 </i>
    <i name="e_0_energy">   -688.79195890 </i>
   </energy>
  </scstep>
  <scstep>
   <time name="dav">   64.96   65.53</time>
   <time name="total">   73.55   74.17</time>
   <energy>
    <i name="e_fr_energy">   -688.10115020 </i>
    <i name="e_wo_entrp">   -688.09900624 </i>
    <i name="e_0_energy">   -688.10007822 </i>
   </energy>
  </scstep>
  <scstep>
   <time name="dav">   65.59   66.17</time>
   <time name="total">   74.19   74.82</time>
   <energy>
    <i name="e_fr_energy">   -688.08527686 </i>
    <i name="e_wo_entrp">   -688.08316786 </i>
    <i name="e_0_energy">   -688.08422236 </i>
   </energy>
  </scstep>
  <scstep>
   <time name="dav">   63.59   64.15</time>
   <time name="total">   72.17   72.79</time>
   <energy>
    <i name="e_fr_energy">   -688.07336407 </i>
    <i name="e_wo_entrp">   -688.07152526 </i>
    <i name="e_0_energy">   -688.07244466 </i>
   </energy>
  </scstep>
  <scstep>
   <time name="dav">   63.34   63.91</time>
   <time name="total">   71.92   72.55</time>
   <energy>
    <i name="e_fr_energy">   -688.07734475 </i>
    <i name="e_wo_entrp">   -688.07538241 </i>
    <i name="e_0_energy">   -688.07636358 </i>
   </energy>
  </scstep>
  <scstep>
   <time name="dav">   63.37   63.93</time>
   <time name="total">   72.01   72.62</time>
   <energy>
    <i name="e_fr_energy">   -688.07945498 </i>
    <i name="e_wo_entrp">   -688.07743032 </i>
    <i name="e_0_energy">   -688.07844265 </i>
   </energy>
  </scstep>
  <scstep>
   <time name="dav">   68.16   68.77</time>
   <time name="total">   76.78   77.44</time>
   <energy>
    <i name="e_fr_energy">   -688.07964171 </i>
    <i name="e_wo_entrp">   -688.07764485 </i>
    <i name="e_0_energy">   -688.07864328 </i>
   </energy>
  </scstep>
  <scstep>
   <time name="dav">   64.78   65.36</time>
   <time name="total">   73.37   74.01</time>
   <energy>
    <i name="e_fr_energy">   -688.07975717 </i>
    <i name="e_wo_entrp">   -688.07778356 </i>
    <i name="e_0_energy">   -688.07877037 </i>
   </energy>
  </scstep>
  <scstep>
   <time name="dav">   66.83   67.42</time>
   <time name="total">   75.48   76.12</time>
   <energy>
    <i name="e_fr_energy">   -688.07986056 </i>
    <i name="e_wo_entrp">   -688.07786372 </i>
    <i name="e_0_energy">   -688.07886214 </i>
   </energy>
  </scstep>
  <scstep>
   <time name="dav">   67.05   67.64</time>
   <time name="total">   75.66   76.31</time>
   <energy>
    <i name="e_fr_energy">   -688.07985284 </i>
    <i name="e_wo_entrp">   -688.07785568 </i>
    <i name="e_0_energy">   -688.07885426 </i>
   </energy>
  </scstep>
  <scstep>
   <time name="dav">   66.01   66.59</time>
   <time name="total">   74.61   75.25</time>
   <energy>
    <i name="e_fr_energy">   -688.07985671 </i>
    <i name="e_wo_entrp">   -688.07786531 </i>
    <i name="e_0_energy">   -688.07886101 </i>
   </energy>
  </scstep>
  <scstep>
   <time name="dav">   66.93   67.52</time>
   <time name="total">   75.51   76.15</time>
   <energy>
    <i name="e_fr_energy">   -688.07985683 </i>
    <i name="e_wo_entrp">   -688.07786101 </i>
    <i name="e_0_energy">   -688.07885892 </i>
   </energy>
  </scstep>
  <scstep>
   <time name="dav">   67.89   68.49</time>
   <time name="total">   76.49   77.15</time>
   <energy>
    <i name="e_fr_energy">   -688.07985592 </i>
    <i name="e_wo_entrp">   -688.07786020 </i>
    <i name="e_0_energy">   -688.07885806 </i>
   </energy>
  </scstep>
  <scstep>
   <time name="dav">   66.19   66.77</time>
   <time name="total">   74.80   75.43</time>
   <energy>
    <i name="e_fr_energy">   -688.07985546 </i>
    <i name="e_wo_entrp">   -688.07785909 </i>
    <i name="e_0_energy">   -688.07885728 </i>
   </energy>
  </scstep>
  <scstep>
   <time name="dav">   40.63   40.99</time>
   <time name="total">   49.20   49.62</time>
   <energy>
    <i name="e_fr_energy">   -688.07985522 </i>
    <i name="e_wo_entrp">   -688.07785875 </i>
    <i name="e_0_energy">   -688.07885698 </i>
   </energy>
  </scstep>
  <scstep>
   <time name="dav">   40.36   40.72</time>
   <time name="total">   45.78   46.18</time>
   <energy>
    <i name="alphaZ">    759.26891756 </i>
    <i name="ewald"> -15878.24102947 </i>
    <i name="hartreedc">  -1285.13403082 </i>
    <i name="XCdc">  -1166.81164731 </i>
    <i name="pawpsdc">  45982.28149119 </i>
    <i name="pawaedc"> -43693.09185775 </i>
    <i name="eentropy">     -0.00199594 </i>
    <i name="bandstr">   -386.85211684 </i>
    <i name="atom">  14980.50241411 </i>
    <i name="e_fr_energy">   -688.07985528 </i>
    <i name="e_wo_entrp">   -688.07785934 </i>
    <i name="e_0_energy">   -688.07885731 </i>
   </energy>
  </scstep>
  <structure>
   <crystal>
    <varray name="basis" >
     <v>       9.49163842       0.00000000       0.00000000 </v>
     <v>       0.00000000      13.42320379       0.00000000 </v>
     <v>       0.00000000       0.00000000      24.09292386 </v>
    </varray>
    <i name="volume">   3069.63598605 </i>
    <varray name="rec_basis" >
     <v>       0.10535589       0.00000000       0.00000000 </v>
     <v>       0.00000000       0.07449786       0.00000000 </v>
     <v>       0.00000000       0.00000000       0.04150596 </v>
    </varray>
   </crystal>
   <varray name="positions" >
    <v>       0.00000000       0.00000000       0.00000000 </v>
    <v>       0.00000000       0.75000000       0.08041667 </v>
    <v>       0.00000000       0.50000000       0.16083333 </v>
    <v>       0.00000000       0.25000000       0.24124999 </v>
    <v>       0.00000000       0.00000000       0.32166666 </v>
    <v>       0.00000000       0.75000000       0.40208332 </v>
    <v>       0.33333333       0.33333333       0.00000000 </v>
    <v>       0.33333333       0.08333333       0.08041667 </v>
    <v>       0.33333333       0.83333333       0.16083333 </v>
    <v>       0.33333333       0.58333333       0.24124999 </v>
    <v>       0.33333333       0.33333333       0.32166666 </v>
    <v>       0.33333333       0.08333333       0.40208332 </v>
    <v>       0.11524823       0.07456140       0.90868688 </v>
    <v>       0.66666667       0.41666667       0.08041667 </v>
    <v>       0.66666667       0.16666667       0.16083333 </v>
    <v>       0.66666667       0.91666667       0.24124999 </v>
    <v>       0.66666667       0.66666667       0.32166666 </v>
    <v>       0.11524823       0.82456140       0.49339644 </v>
    <v>       0.36524823       0.07456140       0.90868688 </v>
    <v>       0.00000000       0.25000000       0.08041667 </v>
    <v>       0.00000000       0.00000000       0.16083333 </v>
    <v>       0.00000000       0.75000000       0.24124999 </v>
    <v>       0.00000000       0.50000000       0.32166666 </v>
    <v>       0.36524823       0.82456140       0.49339644 </v>
    <v>       0.78191489       0.15789474       0.82562879 </v>
    <v>       0.33333333       0.58333333       0.08041667 </v>
    <v>       0.33333333       0.33333333       0.16083333 </v>
    <v>       0.33333333       0.08333333       0.24124999 </v>
    <v>       0.33333333       0.83333333       0.32166666 </v>
    <v>       0.78191489       0.90789474       0.57645453 </v>
    <v>       0.78191489       0.40789474       0.90868688 </v>
    <v>       0.66666667       0.91666667       0.08041667 </v>
    <v>       0.66666667       0.66666667       0.16083333 </v>
    <v>       0.66666667       0.41666667       0.24124999 </v>
    <v>       0.66666667       0.16666667       0.32166666 </v>
    <v>       0.78191489       0.15789474       0.49339644 </v>
    <v>       0.08333333       0.33333333       0.00000000 </v>
    <v>       0.08333333       0.08333333       0.08041667 </v>
    <v>       0.08333333       0.83333333       0.16083333 </v>
    <v>       0.08333333       0.58333333       0.24124999 </v>
    <v>       0.08333333       0.33333333       0.32166666 </v>
    <v>       0.08333333       0.08333333       0.40208332 </v>
    <v>       0.41666667       0.66666667       0.00000000 </v>
    <v>       0.41666667       0.41666667       0.08041667 </v>
    <v>       0.41666667       0.16666667       0.16083333 </v>
    <v>       0.41666667       0.91666667       0.24124999 </v>
    <v>       0.03191489       0.15789474       0.49339644 </v>
    <v>       0.41666667       0.41666667       0.40208332 </v>
    <v>       0.75000000       0.00000000       0.00000000 </v>
    <v>       0.75000000       0.75000000       0.08041667 </v>
    <v>       0.75000000       0.50000000       0.16083333 </v>
    <v>       0.75000000       0.25000000       0.24124999 </v>
    <v>       0.75000000       0.00000000       0.32166666 </v>
    <v>       0.75000000       0.75000000       0.40208332 </v>
    <v>       0.08333333       0.83333333       0.00000000 </v>
    <v>       0.08333333       0.58333333       0.08041667 </v>
    <v>       0.11524823       0.57456140       0.90868688 </v>
    <v>       0.11524823       0.32456140       0.49339644 </v>
    <v>       0.08333333       0.83333333       0.32166666 </v>
    <v>       0.08333333       0.58333333       0.40208332 </v>
    <v>       0.41666667       0.16666667       0.00000000 </v>
    <v>       0.03191489       0.40789474       0.90868688 </v>
    <v>       0.41666667       0.66666667       0.16083333 </v>
    <v>       0.41666667       0.41666667       0.24124999 </v>
    <v>       0.41666667       0.16666667       0.32166666 </v>
    <v>       0.41666667       0.91666667       0.40208332 </v>
    <v>       0.75000000       0.50000000       0.00000000 </v>
    <v>       0.75000000       0.25000000       0.08041667 </v>
    <v>       0.75000000       0.00000000       0.16083333 </v>
    <v>       0.75000000       0.75000000       0.24124999 </v>
    <v>       0.75000000       0.50000000       0.32166666 </v>
    <v>       0.75000000       0.25000000       0.40208332 </v>
    <v>       0.41666667       0.66666667       0.32166666 </v>
    <v>       0.03191489       0.40789474       0.57645453 </v>
    <v>       0.03191489       0.65789474       0.65951262 </v>
    <v>       0.03191489       0.90789474       0.74257071 </v>
    <v>       0.03191489       0.15789474       0.82562879 </v>
    <v>       0.41666667       0.91666667       0.08041667 </v>
    <v>       0.00000000       0.25000000       0.40208332 </v>
    <v>       0.36524823       0.07456140       0.57645453 </v>
    <v>       0.36524823       0.32456140       0.65951262 </v>
    <v>       0.36524823       0.57456140       0.74257071 </v>
    <v>       0.36524823       0.82456140       0.82562879 </v>
    <v>       0.00000000       0.50000000       0.00000000 </v>
    <v>       0.69858156       0.49122807       0.49339644 </v>
    <v>       0.69858156       0.74122807       0.57645453 </v>
    <v>       0.69858156       0.99122807       0.65951262 </v>
    <v>       0.69858156       0.24122807       0.74257071 </v>
    <v>       0.69858156       0.49122807       0.82562879 </v>
    <v>       0.69858156       0.74122807       0.90868688 </v>
    <v>       0.03191489       0.65789474       0.49339644 </v>
    <v>       0.03191489       0.90789474       0.57645453 </v>
    <v>       0.03191489       0.15789474       0.65951262 </v>
    <v>       0.03191489       0.40789474       0.74257071 </v>
    <v>       0.03191489       0.65789474       0.82562879 </v>
    <v>       0.03191489       0.90789474       0.90868688 </v>
    <v>       0.36524823       0.32456140       0.49339644 </v>
    <v>       0.36524823       0.57456140       0.57645453 </v>
    <v>       0.36524823       0.82456140       0.65951262 </v>
    <v>       0.36524823       0.07456140       0.74257071 </v>
    <v>       0.36524823       0.32456140       0.82562879 </v>
    <v>       0.36524823       0.57456140       0.90868688 </v>
    <v>       0.69858156       0.99122807       0.49339644 </v>
    <v>       0.69858156       0.24122807       0.57645453 </v>
    <v>       0.69858156       0.49122807       0.65951262 </v>
    <v>       0.69858156       0.74122807       0.74257071 </v>
    <v>       0.69858156       0.99122807       0.82562879 </v>
    <v>       0.69858156       0.24122807       0.90868688 </v>
    <v>       0.66666667       0.41666667       0.40208332 </v>
    <v>       0.11524823       0.07456140       0.57645453 </v>
    <v>       0.11524823       0.32456140       0.65951262 </v>
    <v>       0.11524823       0.57456140       0.74257071 </v>
    <v>       0.11524823       0.82456140       0.82562879 </v>
    <v>       0.66666667       0.66666667       0.00000000 </v>
    <v>       0.44858156       0.49122807       0.49339644 </v>
    <v>       0.44858156       0.74122807       0.57645453 </v>
    <v>       0.44858156       0.99122807       0.65951262 </v>
    <v>       0.44858156       0.24122807       0.74257071 </v>
    <v>       0.44858156       0.49122807       0.82562879 </v>
    <v>       0.44858156       0.74122807       0.90868688 </v>
    <v>       0.66666667       0.91666667       0.40208332 </v>
    <v>       0.78191489       0.40789474       0.57645453 </v>
    <v>       0.78191489       0.65789474       0.65951262 </v>
    <v>       0.78191489       0.90789474       0.74257071 </v>
    <v>       0.33333333       0.83333333       0.00000000 </v>
    <v>       0.66666667       0.16666667       0.00000000 </v>
    <v>       0.08333333       0.08333333       0.24124999 </v>
    <v>       0.11524823       0.57456140       0.57645453 </v>
    <v>       0.11524823       0.82456140       0.65951262 </v>
    <v>       0.11524823       0.07456140       0.74257071 </v>
    <v>       0.11524823       0.32456140       0.82562879 </v>
    <v>       0.08333333       0.33333333       0.16083333 </v>
    <v>       0.44858156       0.99122807       0.49339644 </v>
    <v>       0.44858156       0.24122807       0.57645453 </v>
    <v>       0.44858156       0.49122807       0.65951262 </v>
    <v>       0.44858156       0.74122807       0.74257071 </v>
    <v>       0.44858156       0.99122807       0.82562879 </v>
    <v>       0.44858156       0.24122807       0.90868688 </v>
    <v>       0.78191489       0.65789474       0.49339644 </v>
    <v>       0.33333333       0.58333333       0.40208332 </v>
    <v>       0.78191489       0.15789474       0.65951262 </v>
    <v>       0.78191489       0.40789474       0.74257071 </v>
    <v>       0.78191489       0.65789474       0.82562879 </v>
    <v>       0.78191489       0.90789474       0.90868688 </v>
   </varray>
  </structure>
  <varray name="forces" >
   <v>       0.44885106       1.58827616       1.27401960 </v>
   <v>      -0.23790242      -0.16412166      -0.01919273 </v>
   <v>      -0.20959947       0.53519660       0.00259771 </v>
   <v>      -0.39147298       0.27476578       0.44193527 </v>
   <v>      -0.42007382      -0.39476882       0.45127590 </v>
   <v>       0.44639408       1.58692466      -1.27082109 </v>
   <v>      -0.02455589      -0.46222826      -0.62247632 </v>
   <v>      -0.15875426       0.32451794       0.00049636 </v>
   <v>      -0.19762401      -0.37618694       0.37409327 </v>
   <v>      -0.18892573      -0.38695355      -0.37697119 </v>
   <v>       0.01574843      -0.22325015       0.00036298 </v>
   <v>      -0.03007286      -0.45983952       0.63069728 </v>
   <v>       0.15608791      -0.00149303       1.12257604 </v>
   <v>      -0.02090070      -0.13283746      -0.06849894 </v>
   <v>      -0.05211143      -0.05086760       0.00101356 </v>
   <v>      -0.05497328      -0.05140108      -0.01308467 </v>
   <v>       0.52783705      -0.12472084       0.07413931 </v>
   <v>       0.16028345       0.00297314      -1.12192790 </v>
   <v>      -0.76640878      -0.01885850       1.35652897 </v>
   <v>      -0.41990880      -0.39703962      -0.45036052 </v>
   <v>      -0.21254231      -0.24471280      -0.43747510 </v>
   <v>      -0.03095732       0.01207855      -0.01951697 </v>
   <v>      -0.24018632      -0.16298360       0.01978706 </v>
   <v>      -0.76569379      -0.01331072      -1.35457941 </v>
   <v>      -0.16156238       0.12583913       0.04917168 </v>
   <v>       0.01666378      -0.21794058      -0.00143121 </v>
   <v>       0.53707619      -0.11393464      -0.08989282 </v>
   <v>       0.54016953      -0.11348529       0.07554609 </v>
   <v>      -0.15543370       0.31476499       0.02248881 </v>
   <v>      -0.15963936       0.13362409      -0.04327061 </v>
   <v>      -0.07169094       0.72002007       0.60428210 </v>
   <v>       0.52811882      -0.12614779      -0.06690167 </v>
   <v>      -0.05332475      -0.04503081       0.00527141 </v>
   <v>      -0.05965642      -0.04337400      -0.01143735 </v>
   <v>      -0.01904612      -0.13371832       0.07563088 </v>
   <v>      -0.06890783       0.72189515      -0.59813223 </v>
   <v>       0.78290845      -0.13272994      -0.94416044 </v>
   <v>       0.06753340       0.11961760      -0.10549318 </v>
   <v>       0.07143044       0.13798207      -0.13708433 </v>
   <v>       0.07592091       0.13848612       0.11712791 </v>
   <v>       0.28709771       0.39852422      -0.41252934 </v>
   <v>       0.78146293      -0.13083881       0.94797428 </v>
   <v>      -0.58009142      -1.73743750       1.76011309 </v>
   <v>       0.23864727       0.01866020      -0.02463325 </v>
   <v>       0.03273965       0.00724501      -0.00814940 </v>
   <v>       0.02914639       0.00664689      -0.01267668 </v>
   <v>       0.09027544      -1.19644829       1.08355137 </v>
   <v>      -0.55350166      -1.73812510      -1.74212536 </v>
   <v>       0.43803961      -0.62618656      -0.43833912 </v>
   <v>       0.29291092       0.31553426       0.39592703 </v>
   <v>       0.06921419       0.06244496      -0.02536706 </v>
   <v>       0.07537669       0.06374832       0.02337158 </v>
   <v>       0.28930797       0.31450553      -0.38025062 </v>
   <v>       0.43779262      -0.62534254       0.44031122 </v>
   <v>       0.09192701       0.34932719      -0.39844990 </v>
   <v>       0.29706869       0.40883600       0.41560855 </v>
   <v>      -0.51783207      -0.57216216       0.74096550 </v>
   <v>      -0.51388203      -0.57087581      -0.74399017 </v>
   <v>       0.07449114       0.12469172       0.11393247 </v>
   <v>       0.09252019       0.34421756       0.40057208 </v>
   <v>      -0.84577521      -1.44498234       1.53324661 </v>
   <v>       0.08341001      -1.20136340      -1.07759922 </v>
   <v>       0.02813956      -0.00637522      -0.00727258 </v>
   <v>       0.03027936       0.00978332      -0.01410958 </v>
   <v>       0.23537640       0.01173509       0.03141691 </v>
   <v>      -0.84747081      -1.44348640      -1.52991305 </v>
   <v>      -0.13174671      -0.81992425      -0.79866530 </v>
   <v>       0.29302282       0.31563981       0.38327441 </v>
   <v>       0.07259088       0.04482385      -0.03527394 </v>
   <v>       0.06972610       0.04837137       0.02237553 </v>
   <v>       0.29074934       0.31090289      -0.40039596 </v>
   <v>      -0.12820615      -0.81877449       0.79989009 </v>
   <v>       0.42388161       0.33018782      -0.45908178 </v>
   <v>       0.17864727      -0.57775215      -0.41051680 </v>
   <v>       0.23415101      -0.37308651      -0.00528352 </v>
   <v>       0.23783828      -0.38297868       0.00569447 </v>
   <v>      -0.39491219      -0.60681837       0.39699031 </v>
   <v>       0.45831937       0.33648828       0.49865972 </v>
   <v>       0.42169056       1.83551659      -1.11095222 </v>
   <v>       0.09542097      -0.27287445      -0.04224852 </v>
   <v>       0.18703268      -0.24124244      -0.10443924 </v>
   <v>       0.18593213      -0.22427902       0.12724228 </v>
   <v>       0.13328368      -0.27849599       0.05130725 </v>
   <v>       0.43081301       1.82854489       1.12243466 </v>
   <v>       0.41966627      -0.15319968      -0.13029184 </v>
   <v>       0.39421885       0.24513024      -0.07310049 </v>
   <v>       0.35552096      -0.55844812      -0.45059598 </v>
   <v>       0.32816709      -0.51993254       0.44171011 </v>
   <v>       0.35679966      -0.55552287       0.49329444 </v>
   <v>       0.41862993      -0.13083656       0.12640993 </v>
   <v>       0.73489292      -1.43356052       1.22857418 </v>
   <v>      -0.40571320      -0.60331675      -0.40257008 </v>
   <v>       0.23632955      -0.38365117      -0.01304201 </v>
   <v>       0.23902351      -0.38487527       0.01440307 </v>
   <v>       0.18837610      -0.57741223       0.41470017 </v>
   <v>       0.73201178      -1.43191309      -1.22452405 </v>
   <v>      -0.56229852      -0.63583888      -1.44700998 </v>
   <v>       0.11547507      -0.27674601      -0.05974391 </v>
   <v>       0.17960088      -0.23440541      -0.10721122 </v>
   <v>       0.17535253      -0.21676665       0.10894418 </v>
   <v>       0.12403216      -0.26131325       0.04991885 </v>
   <v>      -0.56432169      -0.63356246       1.44960806 </v>
   <v>       0.81334769       0.14621566       0.28851591 </v>
   <v>       0.36705443      -0.56052943      -0.50542409 </v>
   <v>       0.17972788      -0.31443540      -0.02162248 </v>
   <v>       0.15366301      -0.27347322       0.02720457 </v>
   <v>       0.38982625       0.24789357       0.05714537 </v>
   <v>       0.81282616       0.16745466      -0.29965869 </v>
   <v>       0.40306624      -0.30329824      -0.24554337 </v>
   <v>      -0.48917576       0.47061598      -0.42460999 </v>
   <v>      -0.24802941       0.21105097      -0.07903405 </v>
   <v>      -0.25128429       0.22767148       0.09392861 </v>
   <v>      -0.26901733       0.19626948      -0.04994112 </v>
   <v>       0.42763872      -0.30194296       0.23993365 </v>
   <v>      -0.68012968       2.34158011       1.70698769 </v>
   <v>      -0.17912643       0.51501526      -0.29733612 </v>
   <v>      -0.19034348       0.36158476       0.00518261 </v>
   <v>      -0.21469614       0.40164198      -0.01139808 </v>
   <v>      -0.05602705       0.24534973      -0.15838177 </v>
   <v>      -0.67972650       2.36351627      -1.71055933 </v>
   <v>       0.41068805      -0.29317233      -0.25373111 </v>
   <v>      -0.20133980       0.20556983      -0.02613035 </v>
   <v>      -0.21568173       0.30962745       0.04131375 </v>
   <v>      -0.21404230       0.28908514      -0.04145880 </v>
   <v>      -0.11718530      -0.30846927      -1.32883991 </v>
   <v>       0.43426218      -0.29354977       0.24599672 </v>
   <v>       0.05652443       0.13525017       0.14399911 </v>
   <v>      -0.29584261       0.19577324       0.05231681 </v>
   <v>      -0.25612413       0.21342835      -0.07353410 </v>
   <v>      -0.26306363       0.23277451       0.09701300 </v>
   <v>      -0.46287090       0.47158275       0.42660017 </v>
   <v>       0.06608008       0.13297735      -0.13290757 </v>
   <v>      -0.97980902       1.89023937       1.61267939 </v>
   <v>      -0.04095554       0.23549739       0.14252548 </v>
   <v>      -0.19173920       0.38126803       0.00918205 </v>
   <v>      -0.21569136       0.40416774      -0.01488471 </v>
   <v>      -0.18639388       0.52311000       0.28801063 </v>
   <v>      -0.98871683       1.91275201      -1.62699059 </v>
   <v>      -0.88267979       0.85483516      -0.68470965 </v>
   <v>      -0.10656462      -0.28449520       1.32872140 </v>
   <v>      -0.20849170       0.30580350       0.04333366 </v>
   <v>      -0.21446843       0.28418773      -0.04170551 </v>
   <v>      -0.19918327       0.21229312       0.01398073 </v>
   <v>      -0.88007195       0.85190247       0.68542634 </v>
  </varray>
  <varray name="stress" >
   <v>      57.96642885       6.12127702       0.04950079 </v>
   <v>       6.12127781      56.16885786      -0.02361405 </v>
   <v>       0.04950059      -0.02361401      29.97530925 </v>
  </varray>
  <energy>
   <i name="e_fr_energy">   -688.07985528 </i>
   <i name="e_wo_entrp">   -688.07785934 </i>
   <i name="e_0_energy">   -688.07885731 </i>
  </energy>
  <time name="totalsc"> 1565.40 1579.69</time>
  <eigenvalues>
   <array>
    <dimension dim="1">band</dimension>
    <dimension dim="2">kpoint</dimension>
    <dimension dim="3">spin</dimension>
    <field>eigene</field>
    <field>occ</field>
    <set>
     <set comment="spin 1">
      <set comment="kpoint 1">
       <r>   -8.1637    1.0000 </r>
       <r>   -7.8363    1.0000 </r>
       <r>   -7.5915    1.0000 </r>
       <r>   -7.4789    1.0000 </r>
       <r>   -7.4765    1.0000 </r>
       <r>   -7.2756    1.0000 </r>
       <r>   -7.2739    1.0000 </r>
       <r>   -7.0711    1.0000 </r>
       <r>   -7.0284    1.0000 </r>
       <r>   -6.9891    1.0000 </r>
       <r>   -6.9625    1.0000 </r>
       <r>   -6.8481    1.0000 </r>
       <r>   -6.7887    1.0000 </r>
       <r>   -6.7280    1.0000 </r>
       <r>   -6.5578    1.0000 </r>
       <r>   -6.5016    1.0000 </r>
       <r>   -6.4671    1.0000 </r>
       <r>   -6.4358    1.0000 </r>
       <r>   -6.4100    1.0000 </r>
       <r>   -6.2687    1.0000 </r>
       <r>   -6.1525    1.0000 </r>
       <r>   -6.0868    1.0000 </r>
       <r>   -6.0626    1.0000 </r>
       <r>   -6.0546    1.0000 </r>
       <r>   -6.0137    1.0000 </r>
       <r>   -6.0038    1.0000 </r>
       <r>   -5.9843    1.0000 </r>
       <r>   -5.9156    1.0000 </r>
       <r>   -5.8923    1.0000 </r>
       <r>   -5.8432    1.0000 </r>
       <r>   -5.8317    1.0000 </r>
       <r>   -5.7834    1.0000 </r>
       <r>   -5.7163    1.0000 </r>
       <r>   -5.6476    1.0000 </r>
       <r>   -5.6209    1.0000 </r>
       <r>   -5.6071    1.0000 </r>
       <r>   -5.5525    1.0000 </r>
       <r>   -5.5191    1.0000 </r>
       <r>   -5.4611    1.0000 </r>
       <r>   -5.3552    1.0000 </r>
       <r>   -5.3264    1.0000 </r>
       <r>   -5.3059    1.0000 </r>
       <r>   -5.2528    1.0000 </r>
       <r>   -5.2350    1.0000 </r>
       <r>   -5.1784    1.0000 </r>
       <r>   -5.1011    1.0000 </r>
       <r>   -5.0774    1.0000 </r>
       <r>   -5.0229    1.0000 </r>
       <r>   -4.9765    1.0000 </r>
       <r>   -4.9459    1.0000 </r>
       <r>   -4.9235    1.0000 </r>
       <r>   -4.9099    1.0000 </r>
       <r>   -4.8930    1.0000 </r>
       <r>   -4.8434    1.0000 </r>
       <r>   -4.8219    1.0000 </r>
       <r>   -4.7335    1.0000 </r>
       <r>   -4.6958    1.0000 </r>
       <r>   -4.6653    1.0000 </r>
       <r>   -4.5606    1.0000 </r>
       <r>   -4.5333    1.0000 </r>
       <r>   -4.4603    1.0000 </r>
       <r>   -4.3228    1.0000 </r>
       <r>   -4.2884    1.0000 </r>
       <r>   -4.2180    1.0000 </r>
       <r>   -4.2008    1.0000 </r>
       <r>   -4.1237    1.0000 </r>
       <r>   -4.1013    1.0000 </r>
       <r>   -3.8518    1.0000 </r>
       <r>   -3.8392    1.0000 </r>
       <r>   -3.7756    1.0000 </r>
       <r>   -3.7053    1.0000 </r>
       <r>   -3.6803    1.0000 </r>
       <r>   -3.5194    1.0000 </r>
       <r>   -3.4699    1.0000 </r>
       <r>   -3.4366    1.0000 </r>
       <r>   -3.4129    1.0000 </r>
       <r>   -3.3867    1.0000 </r>
       <r>   -3.1469    1.0000 </r>
       <r>   -3.1289    1.0000 </r>
       <r>   -3.0409    1.0000 </r>
       <r>   -2.9567    1.0000 </r>
       <r>   -2.9489    1.0000 </r>
       <r>   -2.9094    1.0000 </r>
       <r>   -2.8420    1.0000 </r>
       <r>   -2.8095    1.0000 </r>
       <r>   -2.7664    1.0000 </r>
       <r>   -2.6779    1.0000 </r>
       <r>   -2.6508    1.0000 </r>
       <r>   -2.5557    1.0000 </r>
       <r>   -2.5165    1.0000 </r>
       <r>   -2.4876    1.0000 </r>
       <r>   -2.4490    1.0000 </r>
       <r>   -2.4048    1.0000 </r>
       <r>   -2.3728    1.0000 </r>
       <r>   -2.3071    1.0000 </r>
       <r>   -2.1927    1.0000 </r>
       <r>   -2.1811    1.0000 </r>
       <r>   -2.1470    1.0000 </r>
       <r>   -2.1159    1.0000 </r>
       <r>   -2.0957    1.0000 </r>
       <r>   -2.0715    1.0000 </r>
       <r>   -2.0625    1.0000 </r>
       <r>   -2.0370    1.0000 </r>
       <r>   -1.9340    1.0000 </r>
       <r>   -1.9178    1.0000 </r>
       <r>   -1.8814    1.0000 </r>
       <r>   -1.8650    1.0000 </r>
       <r>   -1.8287    1.0000 </r>
       <r>   -1.7498    1.0000 </r>
       <r>   -1.6894    1.0000 </r>
       <r>   -1.6596    1.0000 </r>
       <r>   -1.6427    1.0000 </r>
       <r>   -1.5953    1.0000 </r>
       <r>   -1.5842    1.0000 </r>
       <r>   -1.5211    1.0000 </r>
       <r>   -1.3483    1.0000 </r>
       <r>   -1.3258    1.0000 </r>
       <r>   -1.3129    1.0000 </r>
       <r>   -1.2718    1.0000 </r>
       <r>   -1.1842    1.0000 </r>
       <r>   -1.1477    1.0000 </r>
       <r>   -1.1367    1.0000 </r>
       <r>   -1.0965    1.0000 </r>
       <r>   -1.0056    1.0000 </r>
       <r>   -0.9945    1.0000 </r>
       <r>   -0.8846    1.0000 </r>
       <r>   -0.8682    1.0000 </r>
       <r>   -0.8338    1.0000 </r>
       <r>   -0.7783    1.0000 </r>
       <r>   -0.7392    1.0000 </r>
       <r>   -0.2242    1.0000 </r>
       <r>   -0.1783    1.0000 </r>
       <r>   -0.1343    1.0000 </r>
       <r>   -0.0130    1.0000 </r>
       <r>    0.0265    1.0000 </r>
       <r>    0.0406    1.0000 </r>
       <r>    0.0762    1.0000 </r>
       <r>    0.1434    1.0000 </r>
       <r>    0.2000    1.0000 </r>
       <r>    0.2238    1.0000 </r>
       <r>    0.2285    1.0000 </r>
[...]
       <r>    -3.7125    26.8306   140.8689 </r>
       <r>    -3.6564    33.2060   142.7313 </r>
       <r>    -3.6003    36.9693   144.8048 </r>
       <r>    -3.5442    29.2557   146.4457 </r>
       <r>    -3.4881    14.0201   147.2320 </r>
       <r>    -3.4320    42.7362   149.6290 </r>
       <r>    -3.3759    39.0569   151.8196 </r>
       <r>    -3.3199    30.6030   153.5360 </r>
       <r>    -3.2638     8.2981   154.0015 </r>
       <r>    -3.2077    31.4959   155.7680 </r>
       <r>    -3.1516    22.3246   157.0201 </r>
       <r>    -3.0955    23.4327   158.3343 </r>
       <r>    -3.0394    45.0098   160.8589 </r>
       <r>    -2.9833    20.3654   162.0011 </r>
       <r>    -2.9272    61.0961   165.4278 </r>
       <r>    -2.8712    39.8595   167.6635 </r>
       <r>    -2.8151    60.3899   171.0506 </r>
       <r>    -2.7590    58.2363   174.3169 </r>
       <r>    -2.7029    41.9454   176.6695 </r>
       <r>    -2.6468    31.9900   178.4637 </r>
       <r>    -2.5907    39.0037   180.6513 </r>
       <r>    -2.5346    36.0319   182.6723 </r>
       <r>    -2.4785    47.5167   185.3373 </r>
       <r>    -2.4225    44.9311   187.8574 </r>
       <r>    -2.3664    35.8635   189.8690 </r>
       <r>    -2.3103    63.1015   193.4082 </r>
       <r>    -2.2542    59.2436   196.7310 </r>
       <r>    -2.1981    32.8692   198.5745 </r>
       <r>    -2.1420    45.9645   201.1525 </r>
       <r>    -2.0859    74.0500   205.3058 </r>
       <r>    -2.0299    39.1931   207.5041 </r>
       <r>    -1.9738    50.9948   210.3643 </r>
       <r>    -1.9177    52.1272   213.2880 </r>
       <r>    -1.8616    52.9605   216.2584 </r>
       <r>    -1.8055    42.8488   218.6616 </r>
       <r>    -1.7494    19.6339   219.7628 </r>
       <r>    -1.6933    51.8562   222.6713 </r>
       <r>    -1.6372    44.2679   225.1541 </r>
       <r>    -1.5812    22.6279   226.4233 </r>
       <r>    -1.5251    36.1671   228.4518 </r>
       <r>    -1.4690    45.4190   230.9992 </r>
       <r>    -1.4129    18.0999   232.0146 </r>
       <r>    -1.3568    14.5645   232.8314 </r>
       <r>    -1.3007    53.7600   235.8467 </r>
       <r>    -1.2446    49.9764   238.6498 </r>
       <r>    -1.1885    18.2408   239.6728 </r>
       <r>    -1.1325    49.3727   242.4420 </r>
       <r>    -1.0764    34.1376   244.3567 </r>
       <r>    -1.0203    10.8968   244.9679 </r>
       <r>    -0.9642    24.8321   246.3607 </r>
       <r>    -0.9081    12.4044   247.0565 </r>
       <r>    -0.8520    45.9335   249.6328 </r>
       <r>    -0.7959    14.3943   250.4401 </r>
       <r>    -0.7399    33.2026   252.3024 </r>
       <r>    -0.6838    32.5878   254.1301 </r>
       <r>    -0.6277     9.5662   254.6667 </r>
       <r>    -0.5716    12.3799   255.3610 </r>
       <r>    -0.5155    24.0176   256.7083 </r>
       <r>    -0.4594    33.2892   258.5754 </r>
       <r>    -0.4033     7.4507   258.9934 </r>
       <r>    -0.3472    55.1667   262.0876 </r>
       <r>    -0.2912    32.5082   263.9109 </r>
       <r>    -0.2351     1.6144   264.0014 </r>
       <r>    -0.1790     6.5845   264.3707 </r>
       <r>    -0.1229    17.7989   265.3690 </r>
       <r>    -0.0668    31.4883   267.1351 </r>
       <r>    -0.0107    21.9844   268.3682 </r>
       <r>     0.0454    12.8402   269.0884 </r>
       <r>     0.1015    22.1827   270.3325 </r>
       <r>     0.1575    22.1707   271.5760 </r>
       <r>     0.2136    45.5782   274.1324 </r>
       <r>     0.2697    36.5839   276.1843 </r>
       <r>     0.3258    44.2592   278.6667 </r>
       <r>     0.3819    26.9374   280.1775 </r>
       <r>     0.4380    71.8767   284.2089 </r>
       <r>     0.4941    42.2191   286.5768 </r>
       <r>     0.5501    68.3015   290.4077 </r>
       <r>     0.6062    81.5050   294.9791 </r>
       <r>     0.6623    84.8690   299.7391 </r>
       <r>     0.7184    89.1304   304.7382 </r>
       <r>     0.7745    92.6912   309.9370 </r>
       <r>     0.8306    86.4913   314.7881 </r>
       <r>     0.8867    64.4436   318.4026 </r>
       <r>     0.9428    65.4109   322.0713 </r>
       <r>     0.9988    59.9891   325.4359 </r>
       <r>     1.0549   104.7644   331.3118 </r>
       <r>     1.1110    97.8670   336.8010 </r>
       <r>     1.1671   104.4712   342.6605 </r>
       <r>     1.2232    75.9201   346.9187 </r>
       <r>     1.2793   105.2175   352.8200 </r>
       <r>     1.3354    87.7292   357.7405 </r>
       <r>     1.3915    45.0203   360.2656 </r>
       <r>     1.4475    49.8947   363.0641 </r>
       <r>     1.5036    60.5068   366.4577 </r>
       <r>     1.5597    64.4219   370.0710 </r>
       <r>     1.6158   113.6741   376.4466 </r>
       <r>     1.6719    74.5778   380.6295 </r>
       <r>     1.7280    51.6940   383.5288 </r>
       <r>     1.7841   108.6566   389.6231 </r>
       <r>     1.8401   109.2231   395.7492 </r>
       <r>     1.8962   114.0335   402.1450 </r>
       <r>     1.9523    79.7520   406.6181 </r>
       <r>     2.0084    89.7598   411.6525 </r>
       <r>     2.0645   105.4810   417.5686 </r>
       <r>     2.1206   120.9628   424.3531 </r>
       <r>     2.1767    97.6132   429.8280 </r>
       <r>     2.2328    83.0234   434.4845 </r>
       <r>     2.2888   115.7194   440.9750 </r>
       <r>     2.3449    60.3764   444.3616 </r>
       <r>     2.4010    76.7070   448.6639 </r>
       <r>     2.4571    75.5348   452.9004 </r>
       <r>     2.5132    97.1322   458.3483 </r>
       <r>     2.5693    92.9984   463.5643 </r>
       <r>     2.6254    63.1140   467.1042 </r>
       <r>     2.6815    76.6066   471.4008 </r>
       <r>     2.7375   124.4900   478.3832 </r>
       <r>     2.7936    59.5812   481.7249 </r>
       <r>     2.8497    75.4537   485.9571 </r>
       <r>     2.9058    64.2387   489.5601 </r>
       <r>     2.9619   114.6930   495.9928 </r>
       <r>     3.0180    48.6429   498.7213 </r>
       <r>     3.0741    95.0849   504.0544 </r>
       <r>     3.1301    67.8628   507.8607 </r>
       <r>     3.1862    45.9389   510.4373 </r>
       <r>     3.2423    77.1473   514.7644 </r>
       <r>     3.2984    56.8370   517.9522 </r>
       <r>     3.3545    77.5850   522.3037 </r>
       <r>     3.4106    28.4298   523.8983 </r>
       <r>     3.4667    74.4180   528.0721 </r>
       <r>     3.5228    84.1409   532.7913 </r>
       <r>     3.5788    65.0606   536.4404 </r>
       <r>     3.6349    82.3598   541.0599 </r>
       <r>     3.6910    34.7678   543.0102 </r>
       <r>     3.7471    44.5979   545.5115 </r>
       <r>     3.8032    57.2450   548.7222 </r>
       <r>     3.8593    37.7658   550.8404 </r>
       <r>     3.9154    47.5610   553.5080 </r>
       <r>     3.9715    48.0523   556.2031 </r>
       <r>     4.0275    50.6407   559.0433 </r>
       <r>     4.0836    33.8688   560.9429 </r>
       <r>     4.1397    35.3632   562.9264 </r>
       <r>     4.1958    17.1065   563.8858 </r>
       <r>     4.2519    19.9402   565.0042 </r>
       <r>     4.3080     6.7076   565.3804 </r>
       <r>     4.3641    12.1428   566.0615 </r>
       <r>     4.4201    59.0345   569.3725 </r>
       <r>     4.4762    24.2175   570.7308 </r>
       <r>     4.5323     4.7966   571.0000 </r>
       <r>     4.5884    10.4253   571.5847 </r>
       <r>     4.6445    32.1653   573.3888 </r>
       <r>     4.7006    22.6990   574.6619 </r>
       <r>     4.7567     6.0248   574.9998 </r>
       <r>     4.8128     0.0033   575.0000 </r>
       <r>     4.8688     0.0000   575.0000 </r>
       <r>     4.9249     0.0000   575.0000 </r>
       <r>     4.9810     0.0000   575.0000 </r>
       <r>     5.0371    11.0810   575.6215 </r>
       <r>     5.0932     0.8059   575.6667 </r>
       <r>     5.1493     5.9425   576.0000 </r>
       <r>     5.2054    34.5400   577.9372 </r>
       <r>     5.2615    47.1649   580.5826 </r>
       <r>     5.3175    41.6671   582.9196 </r>
       <r>     5.3736    47.0053   585.5560 </r>
       <r>     5.4297    43.9426   588.0208 </r>
       <r>     5.4858    15.8102   588.9075 </r>
       <r>     5.5419    41.6702   591.2447 </r>
       <r>     5.5980    48.7737   593.9802 </r>
       <r>     5.6541    51.7795   596.8844 </r>
       <r>     5.7101    35.7657   598.8904 </r>
       <r>     5.7662    65.8012   602.5811 </r>
       <r>     5.8223    32.6712   604.4135 </r>
       <r>     5.8784    57.6874   607.6490 </r>
       <r>     5.9345    35.9666   609.6663 </r>
       <r>     5.9906    60.6672   613.0689 </r>
       <r>     6.0467    32.7319   614.9047 </r>
       <r>     6.1028    52.2244   617.8340 </r>
       <r>     6.1588    14.8051   618.6644 </r>
       <r>     6.2149    89.7392   623.6976 </r>
       <r>     6.2710    83.9878   628.4082 </r>
       <r>     6.3271    61.7570   631.8720 </r>
       <r>     6.3832    80.7412   636.4006 </r>
       <r>     6.4393    46.0042   638.9809 </r>
       <r>     6.4954    52.9594   641.9512 </r>
       <r>     6.5515    82.4062   646.5731 </r>
       <r>     6.6075    89.2051   651.5765 </r>
       <r>     6.6636    73.9573   655.7247 </r>
       <r>     6.7197    64.1317   659.3216 </r>
       <r>     6.7758    93.6156   664.5722 </r>
       <r>     6.8319    85.5758   669.3720 </r>
       <r>     6.8880    82.2925   673.9876 </r>
       <r>     6.9441    75.3667   678.2148 </r>
       <r>     7.0001   114.0790   684.6132 </r>
       <r>     7.0562    59.3628   687.9427 </r>
       <r>     7.1123    60.9276   691.3599 </r>
       <r>     7.1684    11.4103   692.0000 </r>
       <r>     7.2245     0.0000   692.0000 </r>
       <r>     7.2806     0.0000   692.0000 </r>
       <r>     7.3367     0.0000   692.0000 </r>
       <r>     7.3928     0.0000   692.0000 </r>
       <r>     7.4488     0.0000   692.0000 </r>
       <r>     7.5049     0.0000   692.0000 </r>
       <r>     7.5610     0.0000   692.0000 </r>
       <r>     7.6171     0.0000   692.0000 </r>
       <r>     7.6732     0.0000   692.0000 </r>
       <r>     7.7293     0.0000   692.0000 </r>
       <r>     7.7854     0.0000   692.0000 </r>
       <r>     7.8415     0.0000   692.0000 </r>
       <r>     7.8975     0.0000   692.0000 </r>
      </set>
     </set>
    </array>
   </total>
  </dos>
 </calculation>
 <structure name="finalpos" >
  <crystal>
   <varray name="basis" >
    <v>       9.49163842       0.00000000       0.00000000 </v>
    <v>       0.00000000      13.42320379       0.00000000 </v>
    <v>       0.00000000       0.00000000      24.09292386 </v>
   </varray>
   <i name="volume">   3069.63598605 </i>
   <varray name="rec_basis" >
    <v>       0.10535589       0.00000000       0.00000000 </v>
    <v>       0.00000000       0.07449786       0.00000000 </v>
    <v>       0.00000000       0.00000000       0.04150596 </v>
   </varray>
  </crystal>
  <varray name="positions" >
   <v>       0.00000000       0.00000000       0.00000000 </v>
   <v>       0.00000000       0.75000000       0.08041667 </v>
   <v>       0.00000000       0.50000000       0.16083333 </v>
   <v>       0.00000000       0.25000000       0.24124999 </v>
   <v>       0.00000000       0.00000000       0.32166666 </v>
   <v>       0.00000000       0.75000000       0.40208332 </v>
   <v>       0.33333333       0.33333333       0.00000000 </v>
   <v>       0.33333333       0.08333333       0.08041667 </v>
   <v>       0.33333333       0.83333333       0.16083333 </v>
   <v>       0.33333333       0.58333333       0.24124999 </v>
   <v>       0.33333333       0.33333333       0.32166666 </v>
   <v>       0.33333333       0.08333333       0.40208332 </v>
   <v>       0.11524823       0.07456140       0.90868688 </v>
   <v>       0.66666667       0.41666667       0.08041667 </v>
   <v>       0.66666667       0.16666667       0.16083333 </v>
   <v>       0.66666667       0.91666667       0.24124999 </v>
   <v>       0.66666667       0.66666667       0.32166666 </v>
   <v>       0.11524823       0.82456140       0.49339644 </v>
   <v>       0.36524823       0.07456140       0.90868688 </v>
   <v>       0.00000000       0.25000000       0.08041667 </v>
   <v>       0.00000000       0.00000000       0.16083333 </v>
   <v>       0.00000000       0.75000000       0.24124999 </v>
   <v>       0.00000000       0.50000000       0.32166666 </v>
   <v>       0.36524823       0.82456140       0.49339644 </v>
   <v>       0.78191489       0.15789474       0.82562879 </v>
   <v>       0.33333333       0.58333333       0.08041667 </v>
   <v>       0.33333333       0.33333333       0.16083333 </v>
   <v>       0.33333333       0.08333333       0.24124999 </v>
   <v>       0.33333333       0.83333333       0.32166666 </v>
   <v>       0.78191489       0.90789474       0.57645453 </v>
   <v>       0.78191489       0.40789474       0.90868688 </v>
   <v>       0.66666667       0.91666667       0.08041667 </v>
   <v>       0.66666667       0.66666667       0.16083333 </v>
   <v>       0.66666667       0.41666667       0.24124999 </v>
   <v>       0.66666667       0.16666667       0.32166666 </v>
   <v>       0.78191489       0.15789474       0.49339644 </v>
   <v>       0.08333333       0.33333333       0.00000000 </v>
   <v>       0.08333333       0.08333333       0.08041667 </v>
   <v>       0.08333333       0.83333333       0.16083333 </v>
   <v>       0.08333333       0.58333333       0.24124999 </v>
   <v>       0.08333333       0.33333333       0.32166666 </v>
   <v>       0.08333333       0.08333333       0.40208332 </v>
   <v>       0.41666667       0.66666667       0.00000000 </v>
   <v>       0.41666667       0.41666667       0.08041667 </v>
   <v>       0.41666667       0.16666667       0.16083333 </v>
   <v>       0.41666667       0.91666667       0.24124999 </v>
   <v>       0.03191489       0.15789474       0.49339644 </v>
   <v>       0.41666667       0.41666667       0.40208332 </v>
   <v>       0.75000000       0.00000000       0.00000000 </v>
   <v>       0.75000000       0.75000000       0.08041667 </v>
   <v>       0.75000000       0.50000000       0.16083333 </v>
   <v>       0.75000000       0.25000000       0.24124999 </v>
   <v>       0.75000000       0.00000000       0.32166666 </v>
   <v>       0.75000000       0.75000000       0.40208332 </v>
   <v>       0.08333333       0.83333333       0.00000000 </v>
   <v>       0.08333333       0.58333333       0.08041667 </v>
   <v>       0.11524823       0.57456140       0.90868688 </v>
   <v>       0.11524823       0.32456140       0.49339644 </v>
   <v>       0.08333333       0.83333333       0.32166666 </v>
   <v>       0.08333333       0.58333333       0.40208332 </v>
   <v>       0.41666667       0.16666667       0.00000000 </v>
   <v>       0.03191489       0.40789474       0.90868688 </v>
   <v>       0.41666667       0.66666667       0.16083333 </v>
   <v>       0.41666667       0.41666667       0.24124999 </v>
   <v>       0.41666667       0.16666667       0.32166666 </v>
   <v>       0.41666667       0.91666667       0.40208332 </v>
   <v>       0.75000000       0.50000000       0.00000000 </v>
   <v>       0.75000000       0.25000000       0.08041667 </v>
   <v>       0.75000000       0.00000000       0.16083333 </v>
   <v>       0.75000000       0.75000000       0.24124999 </v>
   <v>       0.75000000       0.50000000       0.32166666 </v>
   <v>       0.75000000       0.25000000       0.40208332 </v>
   <v>       0.41666667       0.66666667       0.32166666 </v>
   <v>       0.03191489       0.40789474       0.57645453 </v>
   <v>       0.03191489       0.65789474       0.65951262 </v>
   <v>       0.03191489       0.90789474       0.74257071 </v>
   <v>       0.03191489       0.15789474       0.82562879 </v>
   <v>       0.41666667       0.91666667       0.08041667 </v>
   <v>       0.00000000       0.25000000       0.40208332 </v>
   <v>       0.36524823       0.07456140       0.57645453 </v>
   <v>       0.36524823       0.32456140       0.65951262 </v>
   <v>       0.36524823       0.57456140       0.74257071 </v>
   <v>       0.36524823       0.82456140       0.82562879 </v>
   <v>       0.00000000       0.50000000       0.00000000 </v>
   <v>       0.69858156       0.49122807       0.49339644 </v>
   <v>       0.69858156       0.74122807       0.57645453 </v>
   <v>       0.69858156       0.99122807       0.65951262 </v>
   <v>       0.69858156       0.24122807       0.74257071 </v>
   <v>       0.69858156       0.49122807       0.82562879 </v>
   <v>       0.69858156       0.74122807       0.90868688 </v>
   <v>       0.03191489       0.65789474       0.49339644 </v>
   <v>       0.03191489       0.90789474       0.57645453 </v>
   <v>       0.03191489       0.15789474       0.65951262 </v>
   <v>       0.03191489       0.40789474       0.74257071 </v>
   <v>       0.03191489       0.65789474       0.82562879 </v>
   <v>       0.03191489       0.90789474       0.90868688 </v>
   <v>       0.36524823       0.32456140       0.49339644 </v>
   <v>       0.36524823       0.57456140       0.57645453 </v>
   <v>       0.36524823       0.82456140       0.65951262 </v>
   <v>       0.36524823       0.07456140       0.74257071 </v>
   <v>       0.36524823       0.32456140       0.82562879 </v>
   <v>       0.36524823       0.57456140       0.90868688 </v>
   <v>       0.69858156       0.99122807       0.49339644 </v>
   <v>       0.69858156       0.24122807       0.57645453 </v>
   <v>       0.69858156       0.49122807       0.65951262 </v>
   <v>       0.69858156       0.74122807       0.74257071 </v>
   <v>       0.69858156       0.99122807       0.82562879 </v>
   <v>       0.69858156       0.24122807       0.90868688 </v>
   <v>       0.66666667       0.41666667       0.40208332 </v>
   <v>       0.11524823       0.07456140       0.57645453 </v>
   <v>       0.11524823       0.32456140       0.65951262 </v>
   <v>       0.11524823       0.57456140       0.74257071 </v>
   <v>       0.11524823       0.82456140       0.82562879 </v>
   <v>       0.66666667       0.66666667       0.00000000 </v>
   <v>       0.44858156       0.49122807       0.49339644 </v>
   <v>       0.44858156       0.74122807       0.57645453 </v>
   <v>       0.44858156       0.99122807       0.65951262 </v>
   <v>       0.44858156       0.24122807       0.74257071 </v>
   <v>       0.44858156       0.49122807       0.82562879 </v>
   <v>       0.44858156       0.74122807       0.90868688 </v>
   <v>       0.66666667       0.91666667       0.40208332 </v>
   <v>       0.78191489       0.40789474       0.57645453 </v>
   <v>       0.78191489       0.65789474       0.65951262 </v>
   <v>       0.78191489       0.90789474       0.74257071 </v>
   <v>       0.33333333       0.83333333       0.00000000 </v>
   <v>       0.66666667       0.16666667       0.00000000 </v>
   <v>       0.08333333       0.08333333       0.24124999 </v>
   <v>       0.11524823       0.57456140       0.57645453 </v>
   <v>       0.11524823       0.82456140       0.65951262 </v>
   <v>       0.11524823       0.07456140       0.74257071 </v>
   <v>       0.11524823       0.32456140       0.82562879 </v>
   <v>       0.08333333       0.33333333       0.16083333 </v>
   <v>       0.44858156       0.99122807       0.49339644 </v>
   <v>       0.44858156       0.24122807       0.57645453 </v>
   <v>       0.44858156       0.49122807       0.65951262 </v>
   <v>       0.44858156       0.74122807       0.74257071 </v>
   <v>       0.44858156       0.99122807       0.82562879 </v>
   <v>       0.44858156       0.24122807       0.90868688 </v>
   <v>       0.78191489       0.65789474       0.49339644 </v>
   <v>       0.33333333       0.58333333       0.40208332 </v>
   <v>       0.78191489       0.15789474       0.65951262 </v>
   <v>       0.78191489       0.40789474       0.74257071 </v>
   <v>       0.78191489       0.65789474       0.82562879 </v>
   <v>       0.78191489       0.90789474       0.90868688 </v>
  </varray>
 </structure>
</modeling>
