 168 168   0   0
  0.2780971E+02  0.1131560E-08  0.1959920E-08  0.2580094E-08  0.5000000E-15
  1.000000000000000E-004
  CAR 
 Si and Ge interface calculation         
      6.29790910     -9.85507168  301      3.35611231      1.00000000
     -9.855  0.0000E+00  0.0000E+00  0.0000E+00  0.0000E+00
     -9.801  0.0000E+00  0.0000E+00  0.0000E+00  0.0000E+00
     -9.747  0.0000E+00  0.0000E+00  0.0000E+00  0.0000E+00
     -9.694  0.0000E+00  0.0000E+00  0.0000E+00  0.0000E+00
     -9.640  0.0000E+00  0.0000E+00  0.0000E+00  0.0000E+00
     -9.586  0.0000E+00  0.0000E+00  0.0000E+00  0.0000E+00
     -9.532  0.0000E+00  0.0000E+00  0.0000E+00  0.0000E+00
     -9.478  0.0000E+00  0.0000E+00  0.0000E+00  0.0000E+00
     -9.424  0.0000E+00  0.0000E+00  0.0000E+00  0.0000E+00
     -9.370  0.0000E+00  0.0000E+00  0.0000E+00  0.0000E+00
     -9.317  0.0000E+00  0.0000E+00  0.0000E+00  0.0000E+00
     -9.263  0.0000E+00  0.0000E+00  0.0000E+00  0.0000E+00
     -9.209  0.0000E+00  0.0000E+00  0.0000E+00  0.0000E+00
     -9.155  0.3906E-05  0.5411E-07  0.2103E-06  0.2914E-08
     -9.101  0.6173E+01  0.6043E+01  0.3324E+00  0.3254E+00
     -9.047  0.1741E-01  0.1479E+00  0.3333E+00  0.3333E+00
     -8.994  0.1959E+02  0.1372E+02  0.1388E+01  0.1072E+01
     -8.940  0.1754E+02  0.2328E+02  0.2333E+01  0.2326E+01
     -8.886  0.1295E-01  0.1389E+00  0.2333E+01  0.2333E+01
     -8.832  0.4188E+00  0.5648E-01  0.2356E+01  0.2336E+01
     -8.778  0.1817E+02  0.1850E+02  0.3334E+01  0.3333E+01
     -8.724  0.1437E+02  0.1271E+02  0.4108E+01  0.4017E+01
     -8.671  0.3586E+02  0.3449E+02  0.6039E+01  0.5874E+01
     -8.617  0.3455E+02  0.3467E+02  0.7899E+01  0.7741E+01
     -8.563  0.1422E+02  0.1677E+02  0.8665E+01  0.8644E+01
     -8.509  0.9175E+00  0.5173E+00  0.8714E+01  0.8672E+01
     -8.455  0.5511E+02  0.5192E+02  0.1168E+02  0.1147E+02
     -8.401  0.1830E+02  0.2227E+02  0.1267E+02  0.1267E+02
     -8.347  0.4007E+02  0.3726E+02  0.1482E+02  0.1467E+02
     -8.294  0.2436E+02  0.1983E+02  0.1614E+02  0.1574E+02
     -8.240  0.2784E+02  0.3312E+02  0.1764E+02  0.1752E+02
     -8.186  0.2590E+02  0.2279E+02  0.1903E+02  0.1875E+02
     -8.132  0.1997E+02  0.1956E+02  0.2010E+02  0.1980E+02
     -8.078  0.4759E+02  0.5317E+02  0.2267E+02  0.2267E+02
     -8.024  0.1391E+02  0.1304E+02  0.2342E+02  0.2337E+02
     -7.971  0.9490E+01  0.7534E+01  0.2393E+02  0.2377E+02
     -7.917  0.2005E+02  0.2278E+02  0.2501E+02  0.2500E+02
     -7.863  0.3026E+02  0.2692E+02  0.2664E+02  0.2645E+02
     -7.809  0.3147E+02  0.3454E+02  0.2833E+02  0.2831E+02
     -7.755  0.1697E+02  0.1285E+02  0.2924E+02  0.2900E+02
     -7.701  0.2025E+02  0.2472E+02  0.3033E+02  0.3033E+02
     -7.647  0.1412E+02  0.1273E+02  0.3109E+02  0.3102E+02
     -7.594  0.4579E+02  0.3809E+02  0.3356E+02  0.3307E+02
     -7.540  0.3385E+02  0.4171E+02  0.3538E+02  0.3532E+02
     -7.486  0.5027E+02  0.4520E+02  0.3809E+02  0.3775E+02
     -7.432  0.2736E+02  0.3080E+02  0.3956E+02  0.3941E+02
     -7.378  0.2920E+02  0.2804E+02  0.4113E+02  0.4092E+02
     -7.324  0.1637E+02  0.1970E+02  0.4202E+02  0.4198E+02
     -7.271  0.3320E+02  0.2866E+02  0.4380E+02  0.4352E+02
     -7.217  0.4758E+02  0.4755E+02  0.4637E+02  0.4608E+02
     -7.163  0.7382E+02  0.7491E+02  0.5034E+02  0.5011E+02
     -7.109  0.1846E+02  0.2247E+02  0.5133E+02  0.5132E+02
     -7.055  0.4180E+02  0.4021E+02  0.5358E+02  0.5349E+02
     -7.001  0.2737E+02  0.2687E+02  0.5506E+02  0.5494E+02
     -6.948  0.4807E+02  0.4853E+02  0.5765E+02  0.5755E+02
     -6.894  0.4534E+02  0.4132E+02  0.6009E+02  0.5977E+02
     -6.840  0.5156E+02  0.5082E+02  0.6286E+02  0.6251E+02
     -6.786  0.5652E+02  0.5633E+02  0.6591E+02  0.6554E+02
     -6.732  0.4265E+02  0.4594E+02  0.6820E+02  0.6802E+02
     -6.678  0.2534E+02  0.2657E+02  0.6957E+02  0.6945E+02
     -6.624  0.5397E+02  0.5097E+02  0.7247E+02  0.7219E+02
     -6.571  0.2603E+02  0.2540E+02  0.7388E+02  0.7356E+02
     -6.517  0.4175E+02  0.4234E+02  0.7612E+02  0.7584E+02
     -6.463  0.2844E+02  0.3164E+02  0.7765E+02  0.7754E+02
     -6.409  0.5052E+02  0.4732E+02  0.8037E+02  0.8009E+02
     -6.355  0.7621E+02  0.7856E+02  0.8448E+02  0.8432E+02
     -6.301  0.2994E+02  0.3142E+02  0.8609E+02  0.8601E+02
     -6.248  0.7005E+02  0.6283E+02  0.8986E+02  0.8939E+02
     -6.194  0.6396E+02  0.6281E+02  0.9331E+02  0.9278E+02
     -6.140  0.4593E+02  0.5407E+02  0.9578E+02  0.9569E+02
     -6.086  0.3523E+02  0.3677E+02  0.9768E+02  0.9767E+02
     -6.032  0.3672E+02  0.3571E+02  0.9965E+02  0.9959E+02
     -5.978  0.4704E+02  0.4429E+02  0.1022E+03  0.1020E+03
     -5.925  0.2612E+02  0.2791E+02  0.1036E+03  0.1035E+03
     -5.871  0.3245E+02  0.3445E+02  0.1053E+03  0.1053E+03
     -5.817  0.4271E+02  0.4018E+02  0.1076E+03  0.1075E+03
     -5.763  0.5061E+02  0.4856E+02  0.1104E+03  0.1101E+03
     -5.709  0.3564E+02  0.3818E+02  0.1123E+03  0.1122E+03
     -5.655  0.2068E+02  0.2199E+02  0.1134E+03  0.1134E+03
     -5.601  0.2545E+02  0.2435E+02  0.1148E+03  0.1147E+03
     -5.548  0.2562E+02  0.2270E+02  0.1161E+03  0.1159E+03
     -5.494  0.7753E+02  0.7419E+02  0.1203E+03  0.1199E+03
     -5.440  0.5527E+02  0.6104E+02  0.1233E+03  0.1232E+03
     -5.386  0.6985E+02  0.6442E+02  0.1271E+03  0.1266E+03
     -5.332  0.7459E+02  0.7724E+02  0.1311E+03  0.1308E+03
     -5.278  0.2873E+02  0.3093E+02  0.1326E+03  0.1325E+03
     -5.225  0.7604E+02  0.7699E+02  0.1367E+03  0.1366E+03
     -5.171  0.4059E+02  0.3862E+02  0.1389E+03  0.1387E+03
     -5.117  0.7014E+02  0.7155E+02  0.1427E+03  0.1425E+03
     -5.063  0.3738E+02  0.3440E+02  0.1447E+03  0.1444E+03
     -5.009  0.2436E+02  0.2994E+02  0.1460E+03  0.1460E+03
     -4.955  0.5608E+02  0.4699E+02  0.1490E+03  0.1485E+03
     -4.901  0.5975E+02  0.6436E+02  0.1522E+03  0.1520E+03
     -4.848  0.5244E+02  0.5406E+02  0.1551E+03  0.1549E+03
     -4.794  0.7379E+02  0.7426E+02  0.1590E+03  0.1589E+03
     -4.740  0.3429E+02  0.3371E+02  0.1609E+03  0.1607E+03
     -4.686  0.6985E+02  0.6651E+02  0.1646E+03  0.1643E+03
     -4.632  0.5296E+02  0.5638E+02  0.1675E+03  0.1673E+03
     -4.578  0.6560E+02  0.6811E+02  0.1710E+03  0.1710E+03
     -4.525  0.2195E+02  0.1997E+02  0.1722E+03  0.1721E+03
     -4.471  0.3765E+02  0.3410E+02  0.1742E+03  0.1739E+03
     -4.417  0.6202E+02  0.6390E+02  0.1776E+03  0.1774E+03
     -4.363  0.5744E+02  0.6082E+02  0.1807E+03  0.1806E+03
     -4.309  0.6437E+02  0.5854E+02  0.1841E+03  0.1838E+03
     -4.255  0.3023E+02  0.3301E+02  0.1858E+03  0.1856E+03
     -4.202  0.2344E+02  0.1768E+02  0.1870E+03  0.1865E+03
     -4.148  0.5329E+02  0.5603E+02  0.1899E+03  0.1895E+03
     -4.094  0.6546E+02  0.6185E+02  0.1934E+03  0.1929E+03
     -4.040  0.7275E+02  0.7858E+02  0.1973E+03  0.1971E+03
     -3.986  0.3157E+02  0.3068E+02  0.1990E+03  0.1987E+03
     -3.932  0.7401E+02  0.7801E+02  0.2030E+03  0.2029E+03
     -3.878  0.6536E+02  0.6305E+02  0.2065E+03  0.2063E+03
     -3.825  0.3307E+02  0.2926E+02  0.2083E+03  0.2079E+03
     -3.771  0.3160E+02  0.3886E+02  0.2100E+03  0.2100E+03
     -3.717  0.5476E+02  0.4697E+02  0.2130E+03  0.2125E+03
     -3.663  0.8999E+02  0.8646E+02  0.2178E+03  0.2172E+03
     -3.609  0.3525E+02  0.4618E+02  0.2197E+03  0.2197E+03
     -3.555  0.6766E+02  0.6506E+02  0.2234E+03  0.2232E+03
     -3.502  0.3415E+02  0.3233E+02  0.2252E+03  0.2249E+03
     -3.448  0.3793E+02  0.3800E+02  0.2272E+03  0.2270E+03
     -3.394  0.3321E+02  0.3787E+02  0.2290E+03  0.2290E+03
     -3.340  0.5859E+02  0.5158E+02  0.2322E+03  0.2318E+03
     -3.286  0.4116E+02  0.4261E+02  0.2344E+03  0.2341E+03
     -3.232  0.4667E+02  0.4848E+02  0.2369E+03  0.2367E+03
     -3.179  0.3181E+02  0.3378E+02  0.2386E+03  0.2385E+03
     -3.125  0.4495E+02  0.4343E+02  0.2410E+03  0.2408E+03
     -3.071  0.4921E+02  0.5253E+02  0.2437E+03  0.2437E+03
     -3.017  0.3620E+02  0.3303E+02  0.2456E+03  0.2454E+03
     -2.963  0.6575E+02  0.6569E+02  0.2492E+03  0.2490E+03
     -2.909  0.4763E+02  0.4377E+02  0.2517E+03  0.2513E+03
     -2.855  0.4757E+02  0.5261E+02  0.2543E+03  0.2542E+03
     -2.802  0.2553E+02  0.2772E+02  0.2557E+03  0.2557E+03
     -2.748  0.6361E+02  0.5677E+02  0.2591E+03  0.2587E+03
     -2.694  0.7095E+02  0.7103E+02  0.2629E+03  0.2625E+03
     -2.640  0.3861E+02  0.3917E+02  0.2650E+03  0.2647E+03
     -2.586  0.6681E+02  0.6914E+02  0.2686E+03  0.2684E+03
     -2.532  0.4879E+02  0.4736E+02  0.2712E+03  0.2709E+03
     -2.479  0.5722E+02  0.5869E+02  0.2743E+03  0.2741E+03
     -2.425  0.4002E+02  0.3828E+02  0.2765E+03  0.2762E+03
     -2.371  0.6533E+02  0.6356E+02  0.2800E+03  0.2796E+03
     -2.317  0.4350E+02  0.5048E+02  0.2823E+03  0.2823E+03
     -2.263  0.2515E+02  0.2351E+02  0.2837E+03  0.2836E+03
     -2.209  0.3136E+02  0.2845E+02  0.2854E+03  0.2851E+03
     -2.155  0.3944E+02  0.4033E+02  0.2875E+03  0.2873E+03
     -2.102  0.1703E+02  0.1640E+02  0.2884E+03  0.2881E+03
     -2.048  0.2754E+02  0.2818E+02  0.2899E+03  0.2897E+03
     -1.994  0.3209E+02  0.2583E+02  0.2916E+03  0.2911E+03
     -1.940  0.5052E+02  0.6089E+02  0.2943E+03  0.2943E+03
     -1.886  0.2970E+02  0.2716E+02  0.2959E+03  0.2958E+03
     -1.832  0.3162E+02  0.3142E+02  0.2976E+03  0.2975E+03
     -1.779  0.3300E+02  0.2934E+02  0.2994E+03  0.2991E+03
     -1.725  0.4189E+02  0.4833E+02  0.3017E+03  0.3017E+03
     -1.671  0.4521E+02  0.3827E+02  0.3041E+03  0.3037E+03
     -1.617  0.3518E+02  0.4208E+02  0.3060E+03  0.3060E+03
     -1.563  0.2450E+02  0.2321E+02  0.3073E+03  0.3072E+03
     -1.509  0.1871E+02  0.1751E+02  0.3083E+03  0.3082E+03
     -1.456  0.5546E+02  0.5508E+02  0.3113E+03  0.3112E+03
     -1.402  0.1507E+02  0.1660E+02  0.3121E+03  0.3120E+03
     -1.348  0.1006E+02  0.1143E+02  0.3127E+03  0.3127E+03
     -1.294  0.5377E+01  0.1963E+01  0.3130E+03  0.3128E+03
     -1.240  0.4415E+02  0.4759E+02  0.3153E+03  0.3153E+03
     -1.186  0.3435E+01  0.1643E+01  0.3155E+03  0.3154E+03
     -1.132  0.2133E+02  0.2314E+02  0.3167E+03  0.3167E+03
     -1.079  0.1299E+02  0.1209E+02  0.3174E+03  0.3173E+03
     -1.025  0.2507E+02  0.2525E+02  0.3187E+03  0.3187E+03
     -0.971  0.3211E+02  0.2875E+02  0.3204E+03  0.3202E+03
     -0.917  0.1651E+02  0.2064E+02  0.3213E+03  0.3213E+03
     -0.863  0.1681E-01  0.1652E-02  0.3213E+03  0.3213E+03
     -0.809  0.2452E+02  0.2323E+02  0.3227E+03  0.3226E+03
     -0.756  0.1890E+02  0.2011E+02  0.3237E+03  0.3237E+03
     -0.702  0.3046E+02  0.2678E+02  0.3253E+03  0.3251E+03
     -0.648  0.5936E+02  0.5585E+02  0.3285E+03  0.3281E+03
     -0.594  0.7850E+02  0.7809E+02  0.3327E+03  0.3323E+03
     -0.540  0.5410E+02  0.5394E+02  0.3356E+03  0.3352E+03
     -0.486  0.4832E+02  0.4972E+02  0.3382E+03  0.3379E+03
     -0.432  0.7994E+02  0.8282E+02  0.3426E+03  0.3424E+03
     -0.379  0.4362E+02  0.4115E+02  0.3449E+03  0.3446E+03
     -0.325  0.7152E+02  0.7416E+02  0.3488E+03  0.3486E+03
     -0.271  0.1065E+03  0.9910E+02  0.3545E+03  0.3539E+03
     -0.217  0.8634E+02  0.9348E+02  0.3591E+03  0.3589E+03
     -0.163  0.7011E+02  0.6701E+02  0.3629E+03  0.3625E+03
     -0.109  0.5646E+02  0.5694E+02  0.3660E+03  0.3656E+03
     -0.056  0.8674E+02  0.8725E+02  0.3706E+03  0.3703E+03
     -0.002  0.6610E+02  0.6664E+02  0.3742E+03  0.3739E+03
      0.052  0.6372E+02  0.6598E+02  0.3776E+03  0.3775E+03
      0.106  0.8003E+02  0.7128E+02  0.3819E+03  0.3813E+03
      0.160  0.6871E+02  0.7534E+02  0.3856E+03  0.3853E+03
      0.214  0.1026E+03  0.1027E+03  0.3911E+03  0.3909E+03
      0.267  0.6859E+02  0.6757E+02  0.3948E+03  0.3945E+03
      0.321  0.1106E+03  0.1055E+03  0.4008E+03  0.4002E+03
      0.375  0.9012E+02  0.9123E+02  0.4056E+03  0.4051E+03
      0.429  0.1180E+03  0.1244E+03  0.4120E+03  0.4118E+03
      0.483  0.1264E+03  0.1141E+03  0.4188E+03  0.4179E+03
      0.537  0.1249E+03  0.1257E+03  0.4255E+03  0.4247E+03
      0.591  0.1178E+03  0.1191E+03  0.4319E+03  0.4311E+03
      0.644  0.1373E+03  0.1370E+03  0.4393E+03  0.4385E+03
      0.698  0.1370E+03  0.1348E+03  0.4466E+03  0.4458E+03
      0.752  0.1119E+03  0.1153E+03  0.4527E+03  0.4520E+03
      0.806  0.1296E+03  0.1340E+03  0.4597E+03  0.4592E+03
      0.860  0.8860E+02  0.9436E+02  0.4644E+03  0.4643E+03
      0.914  0.8980E+02  0.8242E+02  0.4693E+03  0.4687E+03
      0.967  0.1126E+03  0.1140E+03  0.4753E+03  0.4748E+03
      1.021  0.7366E+02  0.7084E+02  0.4793E+03  0.4787E+03
      1.075  0.1040E+03  0.1062E+03  0.4849E+03  0.4844E+03
      1.129  0.1294E+03  0.1261E+03  0.4919E+03  0.4912E+03
      1.183  0.1094E+03  0.1155E+03  0.4977E+03  0.4974E+03
      1.237  0.1228E+03  0.1170E+03  0.5044E+03  0.5037E+03
      1.290  0.1149E+03  0.1156E+03  0.5105E+03  0.5099E+03
      1.344  0.1056E+03  0.1044E+03  0.5162E+03  0.5155E+03
      1.398  0.9742E+02  0.1017E+03  0.5215E+03  0.5210E+03
      1.452  0.1120E+03  0.1099E+03  0.5275E+03  0.5269E+03
      1.506  0.1173E+03  0.1133E+03  0.5338E+03  0.5330E+03
      1.560  0.1306E+03  0.1344E+03  0.5409E+03  0.5403E+03
      1.614  0.1142E+03  0.1202E+03  0.5470E+03  0.5467E+03
      1.667  0.1171E+03  0.1102E+03  0.5533E+03  0.5527E+03
      1.721  0.1040E+03  0.1102E+03  0.5589E+03  0.5586E+03
      1.775  0.1023E+03  0.9841E+02  0.5644E+03  0.5639E+03
      1.829  0.1227E+03  0.1166E+03  0.5710E+03  0.5702E+03
      1.883  0.7474E+02  0.8757E+02  0.5750E+03  0.5749E+03
      1.937  0.1283E+03  0.1278E+03  0.5820E+03  0.5818E+03
      1.990  0.5871E+02  0.4700E+02  0.5851E+03  0.5843E+03
      2.044  0.1174E+03  0.1269E+03  0.5914E+03  0.5911E+03
      2.098  0.6506E+02  0.5786E+02  0.5949E+03  0.5942E+03
      2.152  0.7586E+02  0.7363E+02  0.5990E+03  0.5982E+03
      2.206  0.7960E+02  0.8826E+02  0.6033E+03  0.6030E+03
      2.260  0.8104E+02  0.7821E+02  0.6077E+03  0.6072E+03
      2.314  0.8345E+02  0.8230E+02  0.6122E+03  0.6116E+03
      2.367  0.6669E+02  0.7110E+02  0.6158E+03  0.6154E+03
      2.421  0.6566E+02  0.6425E+02  0.6193E+03  0.6189E+03
      2.475  0.9139E+02  0.9055E+02  0.6242E+03  0.6238E+03
      2.529  0.9137E+02  0.7923E+02  0.6291E+03  0.6280E+03
      2.583  0.6009E+02  0.6955E+02  0.6324E+03  0.6318E+03
      2.637  0.5193E+02  0.6065E+02  0.6352E+03  0.6350E+03
      2.690  0.8204E+02  0.7987E+02  0.6396E+03  0.6393E+03
      2.744  0.7295E+02  0.7067E+02  0.6435E+03  0.6431E+03
      2.798  0.5575E+02  0.5067E+02  0.6465E+03  0.6459E+03
      2.852  0.4014E+02  0.5165E+02  0.6487E+03  0.6487E+03
      2.906  0.5891E+02  0.5304E+02  0.6518E+03  0.6515E+03
      2.960  0.4988E+02  0.5305E+02  0.6545E+03  0.6544E+03
      3.013  0.3147E+02  0.2752E+02  0.6562E+03  0.6558E+03
      3.067  0.4475E+02  0.4472E+02  0.6586E+03  0.6583E+03
      3.121  0.4263E+02  0.4019E+02  0.6609E+03  0.6604E+03
      3.175  0.3291E+02  0.3535E+02  0.6627E+03  0.6623E+03
      3.229  0.5754E+02  0.5523E+02  0.6658E+03  0.6653E+03
      3.283  0.6376E+02  0.5817E+02  0.6692E+03  0.6684E+03
      3.337  0.2942E+02  0.4158E+02  0.6708E+03  0.6707E+03
      3.390  0.1642E+02  0.1680E+02  0.6717E+03  0.6716E+03
      3.444  0.3679E+02  0.3708E+02  0.6737E+03  0.6736E+03
      3.498  0.1382E+02  0.1433E+02  0.6744E+03  0.6743E+03
      3.552  0.5973E+02  0.5180E+02  0.6776E+03  0.6771E+03
      3.606  0.1573E+02  0.1722E+02  0.6785E+03  0.6781E+03
      3.660  0.4588E+02  0.4729E+02  0.6810E+03  0.6806E+03
      3.713  0.3566E+02  0.3475E+02  0.6829E+03  0.6825E+03
      3.767  0.2165E+02  0.2798E+02  0.6840E+03  0.6840E+03
      3.821  0.1155E+02  0.1274E+02  0.6847E+03  0.6847E+03
      3.875  0.1538E+02  0.9852E+01  0.6855E+03  0.6852E+03
      3.929  0.2175E+02  0.2712E+02  0.6867E+03  0.6867E+03
      3.983  0.1644E+02  0.1217E+02  0.6876E+03  0.6873E+03
      4.036  0.4181E+02  0.4264E+02  0.6898E+03  0.6896E+03
      4.090  0.3151E+02  0.3022E+02  0.6915E+03  0.6912E+03
      4.144  0.4606E+02  0.4911E+02  0.6940E+03  0.6939E+03
      4.198  0.2428E+02  0.2048E+02  0.6953E+03  0.6950E+03
      4.252  0.2331E+02  0.2619E+02  0.6965E+03  0.6964E+03
      4.306  0.5281E+02  0.5003E+02  0.6994E+03  0.6991E+03
      4.360  0.3613E+02  0.3754E+02  0.7013E+03  0.7011E+03
      4.413  0.6666E+02  0.6639E+02  0.7049E+03  0.7047E+03
      4.467  0.7378E+02  0.7467E+02  0.7089E+03  0.7087E+03
      4.521  0.6450E+02  0.6534E+02  0.7124E+03  0.7122E+03
      4.575  0.5593E+02  0.4808E+02  0.7154E+03  0.7148E+03
      4.629  0.7038E+02  0.7798E+02  0.7192E+03  0.7190E+03
      4.683  0.7077E+02  0.6580E+02  0.7230E+03  0.7226E+03
      4.736  0.9047E+02  0.9118E+02  0.7278E+03  0.7275E+03
      4.790  0.7129E+02  0.6940E+02  0.7317E+03  0.7312E+03
      4.844  0.8955E+02  0.9066E+02  0.7365E+03  0.7361E+03
      4.898  0.9100E+02  0.9747E+02  0.7414E+03  0.7413E+03
      4.952  0.1103E+03  0.1035E+03  0.7473E+03  0.7469E+03
      5.006  0.9567E+02  0.9573E+02  0.7525E+03  0.7521E+03
      5.060  0.1319E+03  0.1314E+03  0.7596E+03  0.7591E+03
      5.113  0.1117E+03  0.1094E+03  0.7656E+03  0.7650E+03
      5.167  0.9654E+02  0.9977E+02  0.7708E+03  0.7704E+03
      5.221  0.9853E+02  0.9669E+02  0.7761E+03  0.7756E+03
      5.275  0.1040E+03  0.1053E+03  0.7817E+03  0.7813E+03
      5.329  0.1224E+03  0.1238E+03  0.7883E+03  0.7879E+03
      5.383  0.9177E+02  0.8750E+02  0.7932E+03  0.7926E+03
      5.436  0.1023E+03  0.1071E+03  0.7988E+03  0.7984E+03
      5.490  0.9715E+02  0.9027E+02  0.8040E+03  0.8033E+03
      5.544  0.5640E+02  0.6184E+02  0.8070E+03  0.8066E+03
      5.598  0.1807E+02  0.2589E+02  0.8080E+03  0.8080E+03
      5.652  0.0000E+00  0.0000E+00  0.8080E+03  0.8080E+03
      5.706  0.0000E+00  0.0000E+00  0.8080E+03  0.8080E+03
      5.759  0.0000E+00  0.0000E+00  0.8080E+03  0.8080E+03
      5.813  0.0000E+00  0.0000E+00  0.8080E+03  0.8080E+03
      5.867  0.0000E+00  0.0000E+00  0.8080E+03  0.8080E+03
      5.921  0.0000E+00  0.0000E+00  0.8080E+03  0.8080E+03
      5.975  0.0000E+00  0.0000E+00  0.8080E+03  0.8080E+03
      6.029  0.0000E+00  0.0000E+00  0.8080E+03  0.8080E+03
      6.083  0.0000E+00  0.0000E+00  0.8080E+03  0.8080E+03
      6.136  0.0000E+00  0.0000E+00  0.8080E+03  0.8080E+03
      6.190  0.0000E+00  0.0000E+00  0.8080E+03  0.8080E+03
      6.244  0.0000E+00  0.0000E+00  0.8080E+03  0.8080E+03
      6.298  0.0000E+00  0.0000E+00  0.8080E+03  0.8080E+03
