       N       E                     dE             d eps       ncg     rms          rms(c)
DAV:   1     0.343651012350E+04    0.34365E+04   -0.27936E+05  6464   0.167E+03
DAV:   2    -0.263192919405E+03   -0.36997E+04   -0.35767E+04  7600   0.198E+02
DAV:   3    -0.670114487720E+03   -0.40692E+03   -0.39586E+03  7912   0.646E+01
DAV:   4    -0.686513693558E+03   -0.16399E+02   -0.16104E+02  7832   0.129E+01
DAV:   5    -0.687211067042E+03   -0.69737E+00   -0.69221E+00  8544   0.229E+00    0.290E+01
DAV:   6    -0.678513617039E+03    0.86975E+01   -0.23799E+01 10368   0.930E+00    0.143E+01
DAV:   7    -0.681109489937E+03   -0.25959E+01   -0.35107E+01  9392   0.136E+01    0.715E+00
DAV:   8    -0.676697298054E+03    0.44122E+01   -0.18655E+01 10408   0.934E+00    0.303E+00
DAV:   9    -0.676211126015E+03    0.48617E+00   -0.58544E+00  8296   0.440E+00    0.179E+00
DAV:  10    -0.676194537519E+03    0.16588E-01   -0.17591E+00  7400   0.182E+00    0.114E+00
DAV:  11    -0.676183687219E+03    0.10850E-01   -0.32357E-01  8200   0.643E-01    0.551E-01
DAV:  12    -0.676185834321E+03   -0.21471E-02   -0.75061E-02  7528   0.371E-01    0.194E-01
DAV:  13    -0.676187250437E+03   -0.14161E-02   -0.12455E-02  7392   0.134E-01    0.117E-01
DAV:  14    -0.676187559200E+03   -0.30876E-03   -0.15105E-03  7592   0.499E-02    0.716E-02
DAV:  15    -0.676187630604E+03   -0.71404E-04   -0.28049E-04  7808   0.226E-02    0.403E-02
DAV:  16    -0.676187688270E+03   -0.57666E-04   -0.15814E-04  7160   0.169E-02    0.187E-02
DAV:  17    -0.676187700101E+03   -0.11831E-04   -0.32706E-05  7416   0.892E-03    0.110E-02
DAV:  18    -0.676187700095E+03    0.65593E-08   -0.66574E-06  7632   0.368E-03    0.730E-03
DAV:  19    -0.676187699908E+03    0.18657E-06   -0.26384E-06  7904   0.214E-03    0.502E-03
DAV:  20    -0.676187700219E+03   -0.31060E-06   -0.95960E-07  7544   0.128E-03    0.372E-03
DAV:  21    -0.676187700642E+03   -0.42345E-06   -0.31386E-07  5448   0.882E-04    0.313E-03
DAV:  22    -0.676187701036E+03   -0.39343E-06   -0.36105E-07  6096   0.913E-04    0.234E-03
DAV:  23    -0.676187701331E+03   -0.29485E-06   -0.25075E-07  5176   0.853E-04    0.145E-03
DAV:  24    -0.676187701665E+03   -0.33450E-06   -0.15612E-07  4520   0.587E-04    0.778E-04
DAV:  25    -0.676187701914E+03   -0.24840E-06   -0.85688E-08  3992   0.402E-04    0.452E-04
DAV:  26    -0.676187701915E+03   -0.94951E-09   -0.21300E-08  3848   0.214E-04
   1 F= -.67618770E+03 E0= -.67618630E+03  d E =-.280673E-02  mag=     1.0000
