       N       E                     dE             d eps       ncg     rms          rms(c)
DAV:   1     0.356822183973E+04    0.35682E+04   -0.28825E+05 23040   0.198E+03
DAV:   2     0.190781520750E+03   -0.33774E+04   -0.32392E+04 28264   0.345E+02
DAV:   3    -0.167594598447E+03   -0.35838E+03   -0.34507E+03 29384   0.104E+02
DAV:   4    -0.184639273122E+03   -0.17045E+02   -0.16677E+02 29368   0.235E+01
DAV:   5    -0.185313820896E+03   -0.67455E+00   -0.66824E+00 29656   0.444E+00    0.279E+03
DAV:   6    -0.339221466501E+02    0.15139E+03   -0.17522E+03 30864   0.112E+02    0.129E+03
DAV:   7     0.301937326979E+02    0.64116E+02   -0.65443E+02 29608   0.779E+01    0.621E+02
DAV:   8     0.782550618590E+02    0.48061E+02   -0.29857E+02 32040   0.507E+01    0.578E+02
DAV:   9     0.744880650594E+02   -0.37670E+01   -0.85072E+01 26120   0.155E+01    0.334E+02
DAV:  10     0.797688456568E+02    0.52808E+01   -0.20233E+01 28800   0.957E+00    0.407E+02
DAV:  11     0.771637318737E+02   -0.26051E+01   -0.77286E+00 27400   0.623E+00    0.419E+02
DAV:  12     0.789270853735E+02    0.17634E+01   -0.29703E+01 29664   0.140E+01    0.549E+02
DAV:  13     0.780134532874E+02   -0.91363E+00   -0.17450E+01 29200   0.967E+00    0.542E+02
DAV:  14     0.799561106609E+02    0.19427E+01   -0.52707E+00 28088   0.529E+00    0.478E+02
DAV:  15     0.825026265686E+02    0.25465E+01   -0.35616E+00 29912   0.363E+00    0.392E+02
DAV:  16     0.837254087746E+02    0.12228E+01   -0.29365E+00 26952   0.333E+00    0.281E+02
DAV:  17     0.838590688685E+02    0.13366E+00   -0.87671E-01 27752   0.193E+00    0.239E+02
DAV:  18     0.839574725657E+02    0.98404E-01   -0.15598E-01 26344   0.836E-01    0.224E+02
DAV:  19     0.842207090467E+02    0.26324E+00   -0.28570E-01 30440   0.126E+00    0.171E+02
DAV:  20     0.844871638992E+02    0.26645E+00   -0.41630E-01 28368   0.136E+00    0.104E+02
DAV:  21     0.845078450218E+02    0.20681E-01   -0.16198E-01 26368   0.796E-01    0.720E+01
DAV:  22     0.846191342806E+02    0.11129E+00   -0.22351E-01 28184   0.975E-01    0.440E+01
DAV:  23     0.846234283309E+02    0.42941E-02   -0.11091E-01 27360   0.607E-01    0.141E+01
DAV:  24     0.846297204670E+02    0.62921E-02   -0.25601E-02 28808   0.360E-01    0.671E+00
DAV:  25     0.846295659440E+02   -0.15452E-03   -0.97769E-03 27736   0.194E-01    0.313E+00
DAV:  26     0.846295302663E+02   -0.35678E-04   -0.33274E-03 27696   0.118E-01    0.131E+00
DAV:  27     0.846297617724E+02    0.23151E-03   -0.12018E-03 27320   0.763E-02    0.369E-01
DAV:  28     0.846298338207E+02    0.72048E-04   -0.52813E-04 27792   0.458E-02    0.174E-01
DAV:  29     0.846298469093E+02    0.13089E-04   -0.13958E-04 28328   0.284E-02    0.221E-01
DAV:  30     0.846298527741E+02    0.58649E-05   -0.63794E-05 27880   0.181E-02    0.334E-02
DAV:  31     0.846298554697E+02    0.26955E-05   -0.21388E-05 27528   0.106E-02    0.301E-02
DAV:  32     0.846298555547E+02    0.85085E-07   -0.44889E-06 26008   0.458E-03    0.541E-02
DAV:  33     0.846298561094E+02    0.55465E-06   -0.17157E-06 29808   0.314E-03    0.120E-02
DAV:  34     0.846298561318E+02    0.22421E-07   -0.12413E-06 27216   0.245E-03    0.412E-02
DAV:  35     0.846298562030E+02    0.71239E-07   -0.42986E-07 16408   0.158E-03
   1 F= 0.84629856E+02 E0= 0.84630449E+02  d E =-.118659E-02  mag=     1.0000
