Si and Ge interface calculation         
           1
    11.315600    0.000000    0.000000
     0.000000   17.891535    0.000000
     0.000000   -0.000000   11.095910
   Ge   Sn
    48    48
Direct configuration=     1
   0.94556874  0.07620380  0.00000002
   0.69556868  0.42620391  0.08062234
   0.44556868  0.77620399  0.16124466
   0.19556862  0.12620413  0.24186707
   0.94556868  0.47620416  0.32248935
   0.69556868  0.82620430  0.40311161
   0.44556874  0.07620380  0.00000002
   0.19556871  0.42620391  0.08062234
   0.94556868  0.77620399  0.16124466
   0.69556868  0.12620413  0.24186707
   0.44556868  0.47620416  0.32248935
   0.19556862  0.82620430  0.40311161
   0.07056873  0.82620394  0.00000004
   0.82056868  0.17620409  0.08062231
   0.57056868  0.52620411  0.16124460
   0.32056862  0.87620413  0.24186705
   0.07056862  0.22620416  0.32248938
   0.82056856  0.57620430  0.40311170
   0.57056874  0.82620394  0.00000004
   0.32056874  0.17620409  0.08062231
   0.07056871  0.52620411  0.16124460
   0.82056868  0.87620413  0.24186705
   0.57056868  0.22620416  0.32248938
   0.32056862  0.57620430  0.40311170
   0.94556874  0.57620382  0.00000002
   0.69556868  0.92620391  0.08062230
   0.44556868  0.27620399  0.16124468
   0.19556862  0.62620413  0.24186696
   0.94556868  0.97620416  0.32248935
   0.69556868  0.32620430  0.40311170
   0.44556874  0.57620382  0.00000002
   0.19556871  0.92620391  0.08062230
   0.94556868  0.27620399  0.16124468
   0.69556868  0.62620413  0.24186696
   0.44556868  0.97620416  0.32248935
   0.19556862  0.32620430  0.40311170
   0.07056873  0.32620382  0.00000000
   0.82056868  0.67620397  0.08062235
   0.57056868  0.02620399  0.16124466
   0.32056862  0.37620413  0.24186698
   0.07056862  0.72620416  0.32248932
   0.82056856  0.07620430  0.40311158
   0.57056874  0.32620382  0.00000000
   0.32056874  0.67620397  0.08062235
   0.07056871  0.02620399  0.16124466
   0.82056868  0.37620413  0.24186698
   0.57056868  0.72620416  0.32248932
   0.32056862  0.07620430  0.40311158
   0.94092894  0.47784835  0.40311173
   0.60759550  0.35284835  0.52248943
   0.27426219  0.22784835  0.64186692
   0.94092882  0.10284834  0.76124454
   0.60759532  0.97784829  0.88062227
   0.27426183  0.85284823  0.99999988
   0.94092894  0.97784835  0.40311173
   0.60759550  0.85284829  0.52248943
   0.27426219  0.72784829  0.64186692
   0.94092882  0.60284829  0.76124454
   0.60759532  0.47784829  0.88062227
   0.27426183  0.35284817  0.99999988
   0.19092891  0.72784835  0.40311173
   0.85759556  0.60284835  0.52248943
   0.52426219  0.47784835  0.64186704
   0.19092882  0.35284835  0.76124454
   0.85759544  0.22784832  0.88062227
   0.52426183  0.10284822  0.00000000
   0.19092891  0.22784835  0.40311173
   0.85759550  0.10284833  0.52248943
   0.52426219  0.97784835  0.64186692
   0.19092882  0.85284835  0.76124454
   0.85759544  0.72784829  0.88062215
   0.52426183  0.60284823  0.00000000
   0.94092888  0.72784835  0.40311173
   0.60759550  0.60284835  0.52248943
   0.27426219  0.47784835  0.64186692
   0.94092882  0.35284835  0.76124454
   0.60759532  0.22784831  0.88062227
   0.27426195  0.10284821  0.99999988
   0.94092894  0.22784835  0.40311173
   0.60759550  0.10284833  0.52248943
   0.27426219  0.97784835  0.64186692
   0.94092882  0.85284835  0.76124454
   0.60759544  0.72784829  0.88062227
   0.27426183  0.60284817  0.99999988
   0.19092897  0.47784838  0.40311173
   0.85759556  0.35284838  0.52248943
   0.52426219  0.22784838  0.64186692
   0.19092882  0.10284835  0.76124454
   0.85759544  0.97784835  0.88062227
   0.52426195  0.85284829  0.99999988
   0.19092895  0.97784835  0.40311173
   0.85759556  0.85284829  0.52248943
   0.52426219  0.72784829  0.64186692
   0.19092882  0.60284829  0.76124454
   0.85759544  0.47784829  0.88062227
   0.52426195  0.35284823  0.99999988
