 264 264   0   0
  0.2774202E+02  0.1958175E-08  0.1958175E-08  0.1910025E-08  0.5000000E-15
  1.000000000000000E-004
  CAR 
 Si and Ge interface calculation         
      6.64534002     -9.34058529  301      4.03888200      1.00000000
     -9.341  0.0000E+00  0.0000E+00  0.0000E+00  0.0000E+00
     -9.287  0.0000E+00  0.0000E+00  0.0000E+00  0.0000E+00
     -9.234  0.0000E+00  0.0000E+00  0.0000E+00  0.0000E+00
     -9.181  0.0000E+00  0.0000E+00  0.0000E+00  0.0000E+00
     -9.127  0.0000E+00  0.0000E+00  0.0000E+00  0.0000E+00
     -9.074  0.0000E+00  0.0000E+00  0.0000E+00  0.0000E+00
     -9.021  0.0000E+00  0.0000E+00  0.0000E+00  0.0000E+00
     -8.968  0.0000E+00  0.0000E+00  0.0000E+00  0.0000E+00
     -8.914  0.0000E+00  0.0000E+00  0.0000E+00  0.0000E+00
     -8.861  0.0000E+00  0.0000E+00  0.0000E+00  0.0000E+00
     -8.808  0.0000E+00  0.0000E+00  0.0000E+00  0.0000E+00
     -8.754  0.0000E+00  0.0000E+00  0.0000E+00  0.0000E+00
     -8.701  0.0000E+00  0.0000E+00  0.0000E+00  0.0000E+00
     -8.648  0.8014E-05  0.3102E-05  0.4270E-06  0.1653E-06
     -8.595  0.3650E+02  0.3603E+02  0.1945E+01  0.1920E+01
     -8.541  0.1030E+01  0.1504E+01  0.2000E+01  0.2000E+01
     -8.488  0.0000E+00  0.0000E+00  0.2000E+01  0.2000E+01
     -8.435  0.0000E+00  0.0000E+00  0.2000E+01  0.2000E+01
     -8.381  0.0000E+00  0.0000E+00  0.2000E+01  0.2000E+01
     -8.328  0.1565E+00  0.8869E-01  0.2008E+01  0.2005E+01
     -8.275  0.3724E+02  0.3723E+02  0.3993E+01  0.3989E+01
     -8.222  0.1336E+00  0.2149E+00  0.4000E+01  0.4000E+01
     -8.168  0.0000E+00  0.0000E+00  0.4000E+01  0.4000E+01
     -8.115  0.0000E+00  0.0000E+00  0.4000E+01  0.4000E+01
     -8.062  0.1285E+01  0.8252E+00  0.4068E+01  0.4044E+01
     -8.008  0.3002E+02  0.2811E+02  0.5668E+01  0.5542E+01
     -7.955  0.1947E+02  0.2092E+02  0.6706E+01  0.6657E+01
     -7.902  0.3368E+02  0.3439E+02  0.8500E+01  0.8489E+01
     -7.849  0.9376E+01  0.9587E+01  0.9000E+01  0.9000E+01
     -7.795  0.9381E+01  0.9382E+01  0.9500E+01  0.9500E+01
     -7.742  0.2651E+02  0.2575E+02  0.1091E+02  0.1087E+02
     -7.689  0.1127E+02  0.1192E+02  0.1151E+02  0.1151E+02
     -7.635  0.1308E+02  0.1242E+02  0.1221E+02  0.1217E+02
     -7.582  0.1779E+02  0.1772E+02  0.1316E+02  0.1311E+02
     -7.529  0.1945E+02  0.1870E+02  0.1419E+02  0.1411E+02
     -7.476  0.3347E+02  0.3485E+02  0.1598E+02  0.1597E+02
     -7.422  0.9192E+01  0.8686E+01  0.1647E+02  0.1643E+02
     -7.369  0.3801E+02  0.3856E+02  0.1849E+02  0.1848E+02
     -7.316  0.1888E+02  0.1900E+02  0.1950E+02  0.1950E+02
     -7.262  0.2040E+02  0.1984E+02  0.2059E+02  0.2055E+02
     -7.209  0.2667E+02  0.2713E+02  0.2201E+02  0.2200E+02
     -7.156  0.4036E+02  0.3903E+02  0.2416E+02  0.2408E+02
     -7.103  0.2520E+02  0.2664E+02  0.2550E+02  0.2550E+02
     -7.049  0.2854E+02  0.2838E+02  0.2702E+02  0.2701E+02
     -6.996  0.1537E+02  0.1333E+02  0.2784E+02  0.2772E+02
     -6.943  0.4657E+02  0.4724E+02  0.3032E+02  0.3024E+02
     -6.889  0.4078E+02  0.4206E+02  0.3249E+02  0.3248E+02
     -6.836  0.4418E+02  0.4251E+02  0.3485E+02  0.3475E+02
     -6.783  0.4184E+02  0.4186E+02  0.3708E+02  0.3698E+02
     -6.730  0.5481E+02  0.5670E+02  0.4000E+02  0.4000E+02
     -6.676  0.3249E+02  0.3075E+02  0.4173E+02  0.4164E+02
     -6.623  0.4455E+02  0.4445E+02  0.4410E+02  0.4400E+02
     -6.570  0.4309E+02  0.4398E+02  0.4640E+02  0.4635E+02
     -6.516  0.3875E+02  0.3670E+02  0.4846E+02  0.4830E+02
     -6.463  0.3278E+02  0.3374E+02  0.5021E+02  0.5010E+02
     -6.410  0.3669E+02  0.3763E+02  0.5217E+02  0.5211E+02
     -6.357  0.7303E+02  0.7284E+02  0.5606E+02  0.5599E+02
     -6.303  0.4530E+02  0.4551E+02  0.5847E+02  0.5841E+02
     -6.250  0.4562E+02  0.4578E+02  0.6090E+02  0.6085E+02
     -6.197  0.4699E+02  0.4569E+02  0.6341E+02  0.6329E+02
     -6.143  0.6167E+02  0.6115E+02  0.6669E+02  0.6655E+02
     -6.090  0.7656E+02  0.7603E+02  0.7077E+02  0.7060E+02
     -6.037  0.6290E+02  0.6370E+02  0.7412E+02  0.7399E+02
     -5.984  0.7633E+02  0.7584E+02  0.7819E+02  0.7803E+02
     -5.930  0.5329E+02  0.5413E+02  0.8103E+02  0.8092E+02
     -5.877  0.6989E+02  0.6776E+02  0.8476E+02  0.8453E+02
     -5.824  0.6488E+02  0.6609E+02  0.8821E+02  0.8805E+02
     -5.770  0.7921E+02  0.7798E+02  0.9243E+02  0.9220E+02
     -5.717  0.9682E+02  0.9832E+02  0.9759E+02  0.9744E+02
     -5.664  0.8373E+02  0.8332E+02  0.1021E+03  0.1019E+03
     -5.611  0.8616E+02  0.8552E+02  0.1066E+03  0.1064E+03
     -5.557  0.6050E+02  0.6010E+02  0.1099E+03  0.1096E+03
     -5.504  0.7074E+02  0.7302E+02  0.1136E+03  0.1135E+03
     -5.451  0.8251E+02  0.8039E+02  0.1180E+03  0.1178E+03
     -5.397  0.7825E+02  0.8018E+02  0.1222E+03  0.1221E+03
     -5.344  0.8242E+02  0.7841E+02  0.1266E+03  0.1263E+03
     -5.291  0.7692E+02  0.8027E+02  0.1307E+03  0.1305E+03
     -5.238  0.6981E+02  0.6869E+02  0.1344E+03  0.1342E+03
     -5.184  0.6602E+02  0.6559E+02  0.1379E+03  0.1377E+03
     -5.131  0.6587E+02  0.6327E+02  0.1414E+03  0.1411E+03
     -5.078  0.7264E+02  0.7598E+02  0.1453E+03  0.1451E+03
     -5.024  0.6888E+02  0.7025E+02  0.1490E+03  0.1489E+03
     -4.971  0.7187E+02  0.6774E+02  0.1528E+03  0.1525E+03
     -4.918  0.7152E+02  0.7345E+02  0.1566E+03  0.1564E+03
     -4.865  0.9642E+02  0.9682E+02  0.1618E+03  0.1615E+03
     -4.811  0.8361E+02  0.8365E+02  0.1662E+03  0.1660E+03
     -4.758  0.9884E+02  0.9630E+02  0.1715E+03  0.1711E+03
     -4.705  0.1159E+03  0.1175E+03  0.1777E+03  0.1774E+03
     -4.651  0.1059E+03  0.1040E+03  0.1833E+03  0.1829E+03
     -4.598  0.9909E+02  0.1024E+03  0.1886E+03  0.1884E+03
     -4.545  0.9477E+02  0.9182E+02  0.1936E+03  0.1933E+03
     -4.492  0.9768E+02  0.9774E+02  0.1988E+03  0.1985E+03
     -4.438  0.9299E+02  0.9194E+02  0.2038E+03  0.2034E+03
     -4.385  0.8952E+02  0.9020E+02  0.2086E+03  0.2082E+03
     -4.332  0.8222E+02  0.8250E+02  0.2129E+03  0.2126E+03
     -4.278  0.9183E+02  0.9567E+02  0.2178E+03  0.2177E+03
     -4.225  0.7553E+02  0.7229E+02  0.2219E+03  0.2216E+03
     -4.172  0.9065E+02  0.9012E+02  0.2267E+03  0.2264E+03
     -4.119  0.9237E+02  0.9399E+02  0.2316E+03  0.2314E+03
     -4.065  0.7730E+02  0.7658E+02  0.2357E+03  0.2354E+03
     -4.012  0.5501E+02  0.5780E+02  0.2387E+03  0.2385E+03
     -3.959  0.3691E+02  0.3807E+02  0.2406E+03  0.2406E+03
     -3.905  0.4540E+02  0.4368E+02  0.2431E+03  0.2429E+03
     -3.852  0.6586E+02  0.6410E+02  0.2466E+03  0.2463E+03
     -3.799  0.4756E+02  0.5058E+02  0.2491E+03  0.2490E+03
     -3.746  0.6787E+02  0.6411E+02  0.2527E+03  0.2524E+03
     -3.692  0.7000E+02  0.7097E+02  0.2564E+03  0.2562E+03
     -3.639  0.7528E+02  0.7371E+02  0.2605E+03  0.2601E+03
     -3.586  0.6852E+02  0.7193E+02  0.2641E+03  0.2639E+03
     -3.532  0.5313E+02  0.5096E+02  0.2669E+03  0.2667E+03
     -3.479  0.8657E+02  0.8612E+02  0.2716E+03  0.2713E+03
     -3.426  0.7228E+02  0.7325E+02  0.2754E+03  0.2752E+03
     -3.373  0.8647E+02  0.8134E+02  0.2800E+03  0.2795E+03
     -3.319  0.7038E+02  0.7572E+02  0.2838E+03  0.2835E+03
     -3.266  0.7528E+02  0.7308E+02  0.2878E+03  0.2874E+03
     -3.213  0.7354E+02  0.7352E+02  0.2917E+03  0.2913E+03
     -3.159  0.6813E+02  0.6949E+02  0.2953E+03  0.2950E+03
     -3.106  0.7329E+02  0.7328E+02  0.2992E+03  0.2989E+03
     -3.053  0.7705E+02  0.7866E+02  0.3033E+03  0.3031E+03
     -3.000  0.6321E+02  0.6141E+02  0.3067E+03  0.3064E+03
     -2.946  0.9853E+02  0.9718E+02  0.3120E+03  0.3116E+03
     -2.893  0.9844E+02  0.9961E+02  0.3172E+03  0.3169E+03
     -2.840  0.7488E+02  0.7365E+02  0.3212E+03  0.3208E+03
     -2.786  0.1104E+03  0.1130E+03  0.3271E+03  0.3268E+03
     -2.733  0.9091E+02  0.8990E+02  0.3319E+03  0.3316E+03
     -2.680  0.1005E+03  0.1001E+03  0.3373E+03  0.3370E+03
     -2.626  0.9364E+02  0.9389E+02  0.3423E+03  0.3420E+03
     -2.573  0.1072E+03  0.1060E+03  0.3480E+03  0.3476E+03
     -2.520  0.1331E+03  0.1317E+03  0.3551E+03  0.3546E+03
     -2.467  0.9736E+02  0.1009E+03  0.3603E+03  0.3600E+03
     -2.413  0.1035E+03  0.1024E+03  0.3658E+03  0.3655E+03
     -2.360  0.8257E+02  0.8330E+02  0.3702E+03  0.3699E+03
     -2.307  0.1010E+03  0.9831E+02  0.3755E+03  0.3751E+03
     -2.253  0.1081E+03  0.1108E+03  0.3813E+03  0.3811E+03
     -2.200  0.4903E+02  0.5061E+02  0.3839E+03  0.3838E+03
     -2.147  0.3537E+02  0.3656E+02  0.3858E+03  0.3857E+03
     -2.094  0.6939E+02  0.6703E+02  0.3895E+03  0.3893E+03
     -2.040  0.7383E+02  0.7434E+02  0.3934E+03  0.3932E+03
     -1.987  0.7776E+02  0.7711E+02  0.3976E+03  0.3973E+03
     -1.934  0.8741E+02  0.8835E+02  0.4022E+03  0.4020E+03
     -1.880  0.1080E+03  0.1075E+03  0.4080E+03  0.4078E+03
     -1.827  0.5788E+02  0.5977E+02  0.4111E+03  0.4110E+03
     -1.774  0.9253E+02  0.8856E+02  0.4160E+03  0.4157E+03
     -1.721  0.1098E+03  0.1106E+03  0.4219E+03  0.4216E+03
     -1.667  0.8977E+02  0.9002E+02  0.4266E+03  0.4264E+03
     -1.614  0.7511E+02  0.7758E+02  0.4306E+03  0.4305E+03
     -1.561  0.9554E+02  0.9430E+02  0.4357E+03  0.4355E+03
     -1.507  0.5299E+02  0.5363E+02  0.4386E+03  0.4384E+03
     -1.454  0.5199E+02  0.5105E+02  0.4413E+03  0.4411E+03
     -1.401  0.5718E+02  0.5831E+02  0.4444E+03  0.4442E+03
     -1.348  0.6973E+02  0.6676E+02  0.4481E+03  0.4478E+03
     -1.294  0.4545E+02  0.4956E+02  0.4505E+03  0.4504E+03
     -1.241  0.4810E+02  0.4590E+02  0.4531E+03  0.4529E+03
     -1.188  0.6662E+02  0.6655E+02  0.4566E+03  0.4564E+03
     -1.134  0.6770E+02  0.6806E+02  0.4602E+03  0.4600E+03
     -1.081  0.3559E+02  0.3569E+02  0.4621E+03  0.4619E+03
     -1.028  0.5597E+02  0.5610E+02  0.4651E+03  0.4649E+03
     -0.975  0.4222E+02  0.4424E+02  0.4674E+03  0.4673E+03
     -0.921  0.2617E+02  0.2502E+02  0.4688E+03  0.4686E+03
     -0.868  0.7023E+02  0.6717E+02  0.4725E+03  0.4722E+03
     -0.815  0.7273E+02  0.7546E+02  0.4764E+03  0.4762E+03
     -0.761  0.4490E+02  0.4655E+02  0.4788E+03  0.4787E+03
     -0.708  0.5361E+02  0.5169E+02  0.4816E+03  0.4814E+03
     -0.655  0.7568E+02  0.7623E+02  0.4857E+03  0.4855E+03
     -0.602  0.4101E+02  0.4156E+02  0.4878E+03  0.4877E+03
     -0.548  0.2647E+02  0.2801E+02  0.4892E+03  0.4892E+03
     -0.495  0.2173E+02  0.2084E+02  0.4904E+03  0.4903E+03
     -0.442  0.3597E+02  0.3518E+02  0.4923E+03  0.4922E+03
     -0.388  0.3910E+02  0.3874E+02  0.4944E+03  0.4943E+03
     -0.335  0.5761E+02  0.5534E+02  0.4975E+03  0.4972E+03
     -0.282  0.7689E+02  0.7824E+02  0.5016E+03  0.5014E+03
     -0.229  0.8896E+02  0.8877E+02  0.5063E+03  0.5061E+03
     -0.175  0.1009E+03  0.1001E+03  0.5117E+03  0.5115E+03
     -0.122  0.1198E+03  0.1179E+03  0.5181E+03  0.5177E+03
     -0.069  0.8935E+02  0.9163E+02  0.5228E+03  0.5226E+03
     -0.015  0.1032E+03  0.1008E+03  0.5283E+03  0.5280E+03
      0.038  0.1111E+03  0.1120E+03  0.5343E+03  0.5340E+03
      0.091  0.1395E+03  0.1387E+03  0.5417E+03  0.5413E+03
      0.144  0.1128E+03  0.1153E+03  0.5477E+03  0.5475E+03
      0.198  0.8346E+02  0.8466E+02  0.5521E+03  0.5520E+03
      0.251  0.8264E+02  0.8245E+02  0.5565E+03  0.5564E+03
      0.304  0.8423E+02  0.8049E+02  0.5610E+03  0.5607E+03
      0.358  0.9499E+02  0.9699E+02  0.5661E+03  0.5659E+03
      0.411  0.1048E+03  0.1039E+03  0.5717E+03  0.5714E+03
      0.464  0.8604E+02  0.8766E+02  0.5763E+03  0.5761E+03
      0.517  0.1004E+03  0.9803E+02  0.5816E+03  0.5813E+03
      0.571  0.1187E+03  0.1206E+03  0.5879E+03  0.5877E+03
      0.624  0.1219E+03  0.1217E+03  0.5944E+03  0.5942E+03
      0.677  0.1245E+03  0.1201E+03  0.6011E+03  0.6006E+03
      0.731  0.1519E+03  0.1557E+03  0.6092E+03  0.6089E+03
      0.784  0.1245E+03  0.1205E+03  0.6158E+03  0.6153E+03
      0.837  0.1045E+03  0.1085E+03  0.6214E+03  0.6211E+03
      0.890  0.1243E+03  0.1246E+03  0.6280E+03  0.6277E+03
      0.944  0.9623E+02  0.9577E+02  0.6331E+03  0.6328E+03
      0.997  0.1147E+03  0.1138E+03  0.6392E+03  0.6389E+03
      1.050  0.1412E+03  0.1397E+03  0.6468E+03  0.6463E+03
      1.104  0.1766E+03  0.1758E+03  0.6562E+03  0.6557E+03
      1.157  0.1698E+03  0.1709E+03  0.6652E+03  0.6648E+03
      1.210  0.1728E+03  0.1709E+03  0.6744E+03  0.6739E+03
      1.263  0.1768E+03  0.1769E+03  0.6838E+03  0.6834E+03
      1.317  0.1938E+03  0.1936E+03  0.6942E+03  0.6937E+03
      1.370  0.1752E+03  0.1763E+03  0.7035E+03  0.7031E+03
      1.423  0.1404E+03  0.1423E+03  0.7110E+03  0.7106E+03
      1.477  0.1549E+03  0.1503E+03  0.7192E+03  0.7187E+03
      1.530  0.2051E+03  0.2039E+03  0.7302E+03  0.7295E+03
      1.583  0.1894E+03  0.1918E+03  0.7403E+03  0.7397E+03
      1.636  0.1902E+03  0.1919E+03  0.7504E+03  0.7500E+03
      1.690  0.1748E+03  0.1698E+03  0.7597E+03  0.7590E+03
      1.743  0.1977E+03  0.2001E+03  0.7702E+03  0.7697E+03
      1.796  0.1712E+03  0.1742E+03  0.7794E+03  0.7790E+03
      1.850  0.1654E+03  0.1667E+03  0.7882E+03  0.7879E+03
      1.903  0.1617E+03  0.1551E+03  0.7968E+03  0.7961E+03
      1.956  0.2247E+03  0.2248E+03  0.8088E+03  0.8081E+03
      2.009  0.1568E+03  0.1632E+03  0.8171E+03  0.8168E+03
      2.063  0.1759E+03  0.1714E+03  0.8265E+03  0.8259E+03
      2.116  0.2117E+03  0.2126E+03  0.8378E+03  0.8373E+03
      2.169  0.1811E+03  0.1824E+03  0.8474E+03  0.8470E+03
      2.223  0.1276E+03  0.1263E+03  0.8542E+03  0.8537E+03
      2.276  0.1667E+03  0.1661E+03  0.8631E+03  0.8626E+03
      2.329  0.1562E+03  0.1558E+03  0.8714E+03  0.8709E+03
      2.382  0.1926E+03  0.1895E+03  0.8817E+03  0.8810E+03
      2.436  0.1720E+03  0.1790E+03  0.8909E+03  0.8905E+03
      2.489  0.1250E+03  0.1205E+03  0.8975E+03  0.8969E+03
      2.542  0.1523E+03  0.1551E+03  0.9056E+03  0.9052E+03
      2.596  0.1211E+03  0.1192E+03  0.9121E+03  0.9115E+03
      2.649  0.1405E+03  0.1421E+03  0.9196E+03  0.9191E+03
      2.702  0.9902E+02  0.9988E+02  0.9249E+03  0.9244E+03
      2.755  0.1716E+03  0.1661E+03  0.9340E+03  0.9333E+03
      2.809  0.1404E+03  0.1445E+03  0.9415E+03  0.9410E+03
      2.862  0.1435E+03  0.1409E+03  0.9491E+03  0.9485E+03
      2.915  0.1548E+03  0.1587E+03  0.9574E+03  0.9569E+03
      2.969  0.1049E+03  0.1054E+03  0.9630E+03  0.9626E+03
      3.022  0.1352E+03  0.1303E+03  0.9702E+03  0.9695E+03
      3.075  0.1245E+03  0.1235E+03  0.9768E+03  0.9761E+03
      3.128  0.1105E+03  0.1114E+03  0.9827E+03  0.9820E+03
      3.182  0.1104E+03  0.1127E+03  0.9886E+03  0.9880E+03
      3.235  0.1092E+03  0.1109E+03  0.9944E+03  0.9939E+03
      3.288  0.1045E+03  0.1054E+03  0.1000E+04  0.9996E+03
      3.342  0.1037E+03  0.1021E+03  0.1005E+04  0.1005E+04
      3.395  0.9175E+02  0.9527E+02  0.1010E+04  0.1010E+04
      3.448  0.6846E+02  0.6205E+02  0.1014E+04  0.1013E+04
      3.501  0.1042E+03  0.1025E+03  0.1020E+04  0.1019E+04
      3.555  0.9340E+02  0.1017E+03  0.1025E+04  0.1024E+04
      3.608  0.1084E+03  0.9816E+02  0.1030E+04  0.1030E+04
      3.661  0.6868E+02  0.7591E+02  0.1034E+04  0.1034E+04
      3.715  0.5781E+02  0.6171E+02  0.1037E+04  0.1037E+04
      3.768  0.3732E+02  0.3168E+02  0.1039E+04  0.1039E+04
      3.821  0.5490E+02  0.5790E+02  0.1042E+04  0.1042E+04
      3.874  0.3991E+02  0.4458E+02  0.1044E+04  0.1044E+04
      3.928  0.5355E+02  0.4208E+02  0.1047E+04  0.1046E+04
      3.981  0.6354E+02  0.6686E+02  0.1050E+04  0.1050E+04
      4.034  0.1052E+03  0.8792E+02  0.1056E+04  0.1054E+04
      4.088  0.1202E+03  0.1203E+03  0.1062E+04  0.1061E+04
      4.141  0.7620E+02  0.9394E+02  0.1066E+04  0.1066E+04
      4.194  0.1023E+03  0.9657E+02  0.1072E+04  0.1071E+04
      4.247  0.8990E+02  0.8808E+02  0.1077E+04  0.1076E+04
      4.301  0.1216E+03  0.1221E+03  0.1083E+04  0.1082E+04
      4.354  0.1124E+03  0.1105E+03  0.1089E+04  0.1088E+04
      4.407  0.1294E+03  0.1367E+03  0.1096E+04  0.1095E+04
      4.461  0.1141E+03  0.1016E+03  0.1102E+04  0.1101E+04
      4.514  0.1079E+03  0.1191E+03  0.1108E+04  0.1107E+04
      4.567  0.1130E+03  0.1069E+03  0.1114E+04  0.1113E+04
      4.620  0.1136E+03  0.1169E+03  0.1120E+04  0.1119E+04
      4.674  0.9602E+02  0.1014E+03  0.1125E+04  0.1124E+04
      4.727  0.1176E+03  0.1110E+03  0.1131E+04  0.1130E+04
      4.780  0.1220E+03  0.1226E+03  0.1138E+04  0.1137E+04
      4.834  0.1203E+03  0.1247E+03  0.1144E+04  0.1144E+04
      4.887  0.1158E+03  0.1121E+03  0.1150E+04  0.1150E+04
      4.940  0.1256E+03  0.1239E+03  0.1157E+04  0.1156E+04
      4.993  0.1204E+03  0.1187E+03  0.1163E+04  0.1162E+04
      5.047  0.1339E+03  0.1380E+03  0.1171E+04  0.1170E+04
      5.100  0.1070E+03  0.1104E+03  0.1176E+04  0.1176E+04
      5.153  0.1038E+03  0.1014E+03  0.1182E+04  0.1181E+04
      5.207  0.1047E+03  0.1088E+03  0.1187E+04  0.1187E+04
      5.260  0.9073E+02  0.8789E+02  0.1192E+04  0.1192E+04
      5.313  0.9922E+02  0.1024E+03  0.1198E+04  0.1197E+04
      5.366  0.1211E+03  0.1155E+03  0.1204E+04  0.1203E+04
      5.420  0.1195E+03  0.1263E+03  0.1210E+04  0.1210E+04
      5.473  0.1426E+03  0.1373E+03  0.1218E+04  0.1217E+04
      5.526  0.1554E+03  0.1570E+03  0.1226E+04  0.1226E+04
      5.580  0.1361E+03  0.1352E+03  0.1234E+04  0.1233E+04
      5.633  0.1373E+03  0.1393E+03  0.1241E+04  0.1240E+04
      5.686  0.1152E+03  0.1186E+03  0.1247E+04  0.1247E+04
      5.739  0.1148E+03  0.1123E+03  0.1253E+04  0.1253E+04
      5.793  0.1187E+03  0.1193E+03  0.1259E+04  0.1259E+04
      5.846  0.1362E+03  0.1360E+03  0.1267E+04  0.1266E+04
      5.899  0.8562E+02  0.8916E+02  0.1271E+04  0.1271E+04
      5.953  0.1451E+02  0.2030E+02  0.1272E+04  0.1272E+04
      6.006  0.0000E+00  0.0000E+00  0.1272E+04  0.1272E+04
      6.059  0.0000E+00  0.0000E+00  0.1272E+04  0.1272E+04
      6.112  0.0000E+00  0.0000E+00  0.1272E+04  0.1272E+04
      6.166  0.0000E+00  0.0000E+00  0.1272E+04  0.1272E+04
      6.219  0.0000E+00  0.0000E+00  0.1272E+04  0.1272E+04
      6.272  0.0000E+00  0.0000E+00  0.1272E+04  0.1272E+04
      6.326  0.0000E+00  0.0000E+00  0.1272E+04  0.1272E+04
      6.379  0.0000E+00  0.0000E+00  0.1272E+04  0.1272E+04
      6.432  0.0000E+00  0.0000E+00  0.1272E+04  0.1272E+04
      6.485  0.0000E+00  0.0000E+00  0.1272E+04  0.1272E+04
      6.539  0.0000E+00  0.0000E+00  0.1272E+04  0.1272E+04
      6.592  0.0000E+00  0.0000E+00  0.1272E+04  0.1272E+04
      6.645  0.0000E+00  0.0000E+00  0.1272E+04  0.1272E+04
