 vasp.6.4.3 19Mar24 (build Oct 22 2024 11:23:12) complex                        
  
 executed on             LinuxIFC date 2025.06.10  06:34:55
 running   64 mpi-ranks, on    4 nodes
 distrk:  each k-point on   64 cores,    1 groups
 distr:  one band on NCORE=  16 cores,    4 groups


--------------------------------------------------------------------------------------------------------


 INCAR:
   SYSTEM = Si and Ge interface calculation
   ISTART = 0
   ICHARG = 2
   LWAVE = .FALSE.
   LREAL = AUTO
   ENCUT = 700
   ENAUG = 900
   ADDGRID = .TRUE.
   LMAXMIX = 6
   LASPH = .TRUE.
   LMIXTAU = .TRUE.
   NCORE = 16
   NELM = 100
   NBANDS = 634
   EDIFF = 1d-7
   AMIX = 0.6
   ISMEAR = 0
   SIGMA = 0.01
   NELECT = 1056
   ISPIN = 2
   NUPDOWN = 1
   LVTOT = .FALSE.
   LVHAR = .TRUE.

 POTCAR:    PAW_PBE Si 05Jan2001                  
 POTCAR:    PAW_PBE Sn 08Apr2002                  
 -----------------------------------------------------------------------------
|                                                                             |
|           W    W    AA    RRRRR   N    N  II  N    N   GGGG   !!!           |
|           W    W   A  A   R    R  NN   N  II  NN   N  G    G  !!!           |
|           W    W  A    A  R    R  N N  N  II  N N  N  G       !!!           |
|           W WW W  AAAAAA  RRRRR   N  N N  II  N  N N  G  GGG   !            |
|           WW  WW  A    A  R   R   N   NN  II  N   NN  G    G                |
|           W    W  A    A  R    R  N    N  II  N    N   GGGG   !!!           |
|                                                                             |
|     You use a magnetic or noncollinear calculation, but did not specify     |
|     the initial magnetic moment with the MAGMOM tag. Note that a            |
|     default of 3.788e-3 will be used for all atoms. This ferromagnetic      |
|     setup may break the symmetry of the crystal, in particular it may       |
|     rule out finding an antiferromagnetic solution. Thence, we              |
|     recommend setting the initial magnetic moment manually or verifying     |
|     carefully that this magnetic setup is desired.                          |
|                                                                             |
 -----------------------------------------------------------------------------

 POTCAR:    PAW_PBE Si 05Jan2001                  
   VRHFIN =Si: s2p2                                                                                 
   LEXCH  = PE                                                                                      
   EATOM  =   103.0669 eV,    7.5752 Ry                                                             
                                                                                                    
   TITEL  = PAW_PBE Si 05Jan2001                                                                    
   LULTRA =        F    use ultrasoft PP ?                                                          
   IUNSCR =        1    unscreen: 0-lin 1-nonlin 2-no                                               
   RPACOR =    1.500    partial core radius                                                         
   POMASS =   28.085; ZVAL   =    4.000    mass and valenz                                          
   RCORE  =    1.900    outmost cutoff radius                                                       
   RWIGS  =    2.480; RWIGS  =    1.312    wigner-seitz radius (au A)                               
   ENMAX  =  245.345; ENMIN  =  184.009 eV                                                          
   ICORE  =        2    local potential                                                             
   LCOR   =        T    correct aug charges                                                         
   LPAW   =        T    paw PP                                                                      
   EAUG   =  322.069                                                                                
   DEXC   =    0.000                                                                                
   RMAX   =    1.950    core radius for proj-oper                                                   
   RAUG   =    1.300    factor for augmentation sphere                                              
   RDEP   =    1.993    radius for radial grids                                                     
   RDEPT  =    1.837    core radius for aug-charge                                                  
                                                                                                    
   Atomic configuration                                                                             
    6 entries                                                                                       
     n  l   j            E        occ.                                                              
     1  0  0.50     -1785.8828   2.0000                                                             
     2  0  0.50      -139.4969   2.0000                                                             
     2  1  1.50       -95.5546   6.0000                                                             
     3  0  0.50       -10.8127   2.0000                                                             
     3  1  0.50        -4.0811   2.0000                                                             
     3  2  1.50        -4.0817   0.0000                                                             
   Description                                                                                      
     l       E           TYP  RCUT    TYP  RCUT                                                     
     0    -10.8127223     23  1.900                                                                 
     0     -7.6451159     23  1.900                                                                 
     1     -4.0811372     23  1.900                                                                 
     1      2.4879257     23  1.900                                                                 
     2     -4.0817478      7  1.900                                                                 
  local pseudopotential read in
  partial core-charges read in
  partial kinetic energy density read in
  atomic valenz-charges read in
  non local Contribution for L=           0  read in
    real space projection operators read in
  non local Contribution for L=           0  read in
    real space projection operators read in
  non local Contribution for L=           1  read in
    real space projection operators read in
  non local Contribution for L=           1  read in
    real space projection operators read in
    PAW grid and wavefunctions read in
 
   number of l-projection  operators is LMAX  =           4
   number of lm-projection operators is LMMAX =           8
 
 POTCAR:    PAW_PBE Sn 08Apr2002                  
   VRHFIN =Sn: s2p2                                                                                 
   LEXCH  = PE                                                                                      
   EATOM  =    94.0860 eV,    6.9151 Ry                                                             
                                                                                                    
   TITEL  = PAW_PBE Sn 08Apr2002                                                                    
   LULTRA =        F    use ultrasoft PP ?                                                          
   IUNSCR =        1    unscreen: 0-lin 1-nonlin 2-no                                               
   RPACOR =    2.000    partial core radius                                                         
   POMASS =  118.710; ZVAL   =    4.000    mass and valenz                                          
   RCORE  =    3.000    outmost cutoff radius                                                       
   RWIGS  =    2.960; RWIGS  =    1.566    wigner-seitz radius (au A)                               
   ENMAX  =  103.236; ENMIN  =   77.427 eV                                                          
   ICORE  =        3    local potential                                                             
   LCOR   =        T    correct aug charges                                                         
   LPAW   =        T    paw PP                                                                      
   EAUG   =  263.585                                                                                
   DEXC   =    0.000                                                                                
   RMAX   =    3.078    core radius for proj-oper                                                   
   RAUG   =    1.300    factor for augmentation sphere                                              
   RDEP   =    3.022    radius for radial grids                                                     
   RDEPT  =    2.655    core radius for aug-charge                                                  
                                                                                                    
   Atomic configuration                                                                             
   13 entries                                                                                       
     n  l   j            E        occ.                                                              
     1  0  0.50    -29007.2859   2.0000                                                             
     2  0  0.50     -4378.8056   2.0000                                                             
     2  1  1.50     -3930.4293   6.0000                                                             
     3  0  0.50      -845.0264   2.0000                                                             
     3  1  1.50      -698.5725   6.0000                                                             
     3  2  2.50      -473.2839  10.0000                                                             
     4  0  0.50      -133.9036   2.0000                                                             
     4  1  1.50       -89.6752   6.0000                                                             
     4  2  2.50       -25.8375  10.0000                                                             
     5  0  0.50       -10.5484   2.0000                                                             
     5  1  0.50        -3.6940   2.0000                                                             
     5  2  1.50        -1.3606   0.0000                                                             
     4  3  2.50        -4.0817   0.0000                                                             
   Description                                                                                      
     l       E           TYP  RCUT    TYP  RCUT                                                     
     0    -10.5483727     23  3.000                                                                 
     0     27.2116520     23  3.000                                                                 
     1     -3.6939829     23  3.000                                                                 
     1      1.9821976     23  3.000                                                                 
     2     -1.3605826     23  3.000                                                                 
     3     -2.7211652     23  3.000                                                                 
  local pseudopotential read in
  partial core-charges read in
  partial kinetic energy density read in
  atomic valenz-charges read in
  non local Contribution for L=           0  read in
    real space projection operators read in
  non local Contribution for L=           0  read in
    real space projection operators read in
  non local Contribution for L=           1  read in
    real space projection operators read in
  non local Contribution for L=           1  read in
    real space projection operators read in
  non local Contribution for L=           2  read in
    real space projection operators read in
    PAW grid and wavefunctions read in
 
   number of l-projection  operators is LMAX  =           5
   number of lm-projection operators is LMMAX =          13
 
 Optimization of the real space projectors (new method)

 maximal supplied QI-value         = 19.84
 optimisation between [QCUT,QGAM] = [ 13.49, 26.99] = [ 50.98,203.92] Ry 
 Optimized for a Real-space Cutoff    1.07 Angstroem

   l    n(q)    QCUT    max X(q) W(low)/X(q) W(high)/X(q)  e(spline) 
   0      9    13.493   159.560    0.22E-03    0.15E-03    0.72E-07
   0      9    13.493   115.863    0.21E-03    0.15E-03    0.71E-07
   1      8    13.493    88.339    0.15E-03    0.11E-03    0.13E-06
   1      8    13.493    48.592    0.15E-03    0.10E-03    0.13E-06
 Optimization of the real space projectors (new method)

 maximal supplied QI-value         = 12.47
 optimisation between [QCUT,QGAM] = [ 12.47, 27.06] = [ 43.56,205.12] Ry 
 Optimized for a Real-space Cutoff    1.58 Angstroem

   l    n(q)    QCUT    max X(q) W(low)/X(q) W(high)/X(q)  e(spline) 
   0     13    12.472    14.688    0.45E-04    0.45E-04    0.25E-05
   0     13    12.472     7.308    0.94E-04    0.11E-03    0.61E-05
   1     12    12.472    45.102    0.34E-03    0.14E-03    0.21E-05
   1     12    12.472    30.691    0.31E-03    0.13E-03    0.20E-05
   2     12    12.472     7.156    0.86E-04    0.11E-03    0.17E-05
 WARNING: PSMAXN for non-local potential too small
          PSMAXN should be >   13.5545592237991       NTYP=           2
  PAW_PBE Si 05Jan2001                  :
 energy of atom  1       EATOM= -103.0669
 kinetic energy error for atom=    0.0003 (will be added to EATOM!!)
  PAW_PBE Sn 08Apr2002                  :
 energy of atom  2       EATOM=  -94.0860
 kinetic energy error for atom=    0.0000 (will be added to EATOM!!)
 
 
 POSCAR: Si+Sn
  positions in direct lattice
  No initial velocities read in


 exchange-correlation table for PE
   RHO(1)=    0.500       N(1)  =     2000
   RHO(2)=  100.500       N(2)  =     4000
 


--------------------------------------------------------------------------------------------------------


 ion  position               nearest neighbor table
   1  0.996  0.997  0.000- 186 2.26 145 2.35  49 2.35
   2  0.881  0.920  0.142-  76 2.35 146 2.35  50 2.35 145 2.35
   3  0.765  0.843  0.284-  77 2.35  51 2.35 147 2.35 146 2.35
   4  0.073  0.382  0.000-  43 2.35 154 2.35 106 2.87
   5  0.957  0.305  0.142-  73 2.35 160 2.35 155 2.35 154 2.35
   6  0.842  0.228  0.284-  74 2.35 262 2.35 155 2.35 156 2.35
   7  0.227  0.151  0.000- 246 2.27 195 2.35  46 2.35
   8  0.111  0.074  0.142-  49 2.35  47 2.35 195 2.35 119 2.35
   9  0.996  0.997  0.284-  50 2.35 163 2.35 220 2.35 119 2.35
  10  0.022  0.629  0.890- 148 2.82 216 2.82  37 2.93  82 2.94
  11  0.034  0.690  0.142-  40 2.35 122 2.35 121 2.35  53 2.35
  12  0.919  0.613  0.284-  41 2.35 123 2.35 169 2.35 122 2.35
  13  0.304  0.536  0.000-  55 2.35 162 2.35  79 2.97
  14  0.188  0.459  0.142-  43 2.35 125 2.35 172 2.35 162 2.35
  15  0.073  0.382  0.284- 160 2.35 211 2.35 126 2.35 125 2.35
  16  0.457  0.305  0.000- 168 2.35  58 2.35  20 2.91
  17  0.342  0.228  0.142-  46 2.35 232 2.35  59 2.35 168 2.35
  18  0.227  0.151  0.284-  47 2.35 223 2.35 175 2.35 232 2.35
  19  0.611  0.074  0.000- 130 2.35  61 2.35  89 2.94 204 3.39
  20  0.355  0.296  0.890- 171 2.82 228 2.82 264 2.90  16 2.91
  21  0.381  0.920  0.284-  65 2.35  63 2.35 132 2.35 187 2.35
  22  0.189  0.463  0.890- 216 2.82 171 2.82
  23  0.265  0.843  0.142-  52 2.35 134 2.35 252 2.35  65 2.35
  24  0.150  0.766  0.284-  53 2.35 166 2.35 135 2.35 134 2.35
  25  0.534  0.690  0.000- 136 2.35  67 2.35  94 2.97
  26  0.419  0.613  0.142-  55 2.35 137 2.35  68 2.35 136 2.35
  27  0.304  0.536  0.284- 172 2.35 138 2.35  69 2.35 137 2.35
  28  0.688  0.459  0.000- 139 2.35  70 2.35
  29  0.573  0.382  0.142-  58 2.35 140 2.35 139 2.35  71 2.35
  30  0.457  0.305  0.284- 141 2.35  59 2.35  72 2.35 140 2.35
  31  0.842  0.228  0.000- 142 2.35  73 2.35  85 2.86
  32  0.727  0.151  0.142-  61 2.35  74 2.35 143 2.35 142 2.35
  33  0.611  0.074  0.284-  62 2.35 144 2.35  75 2.35 143 2.35
  34  0.765  0.843  0.000- 159 2.35  76 2.35 101 2.90
  35  0.605  0.379  0.805- 210 2.82 133 2.82 200 2.82 251 2.82
  36  0.534  0.690  0.284-  68 2.35 181 2.35 150 2.35 149 2.35
  37  0.919  0.613  0.000-  40 2.35 151 2.35  10 2.93
  38  0.804  0.536  0.142-  70 2.35  41 2.35 152 2.35 151 2.35
  39  0.688  0.459  0.284- 229 2.35  71 2.35 153 2.35 152 2.35
  40  0.015  0.593  0.071-  37 2.35  11 2.35  82 2.35  83 2.35
  41  0.900  0.516  0.213-  83 2.35  38 2.35  12 2.35 235 2.35
  42  0.105  0.879  0.465- 256 2.82  96 2.82 163 2.86 135 2.97
  43  0.169  0.363  0.071-  14 2.35   4 2.35  86 2.35 264 2.35
  44  0.272  0.379  0.465- 190 2.82 259 2.82 211 2.93 141 2.94
  45  0.189  0.129  0.550-  84 2.82 218 2.82  48 2.82 164 2.82
  46  0.323  0.132  0.071-  17 2.35   7 2.35 207 2.35 255 2.35
  47  0.207  0.055  0.213-  18 2.35   8 2.35 255 2.35  90 2.35
  48  0.272  0.046  0.465- 184 2.82  45 2.82 223 2.87 132 2.97
  49  0.092  0.978  0.071-   8 2.35   1 2.35 222 2.35  92 2.35
  50  0.977  0.901  0.213-   9 2.35   2 2.35  92 2.35 196 2.35
  51  0.861  0.824  0.355-   3 2.35 196 2.35 120 2.94
  52  0.246  0.747  0.071-  23 2.35 189 2.35 249 2.35  95 2.35
  53  0.131  0.670  0.213-  24 2.35  95 2.35  11 2.35 202 2.35
  54  0.605  0.379  0.465- 199 2.82 241 2.82 153 2.86  72 2.97
  55  0.400  0.516  0.071-  26 2.35 261 2.35  13 2.35  98 2.35
  56  0.605  0.046  0.465- 102 2.82 244 2.82 144 2.90  75 2.91
  57  0.439  0.879  0.465-  63 2.27 238 2.82 184 2.82
  58  0.554  0.286  0.071-  29 2.35 258 2.35 100 2.35  16 2.35
  59  0.438  0.209  0.213-  30 2.35 193 2.35  17 2.35 258 2.35
  60  0.772  0.546  0.465- 250 2.82  93 2.82 123 2.87 229 2.97
  61  0.707  0.055  0.071-  32 2.35 104 2.35 103 2.35  19 2.35
  62  0.592  0.978  0.213-  33 2.35 105 2.35 104 2.35 201 2.35
  63  0.477  0.901  0.355-  57 2.27  21 2.35 105 2.35
  64  0.477  0.901  0.071- 201 2.35 192 2.35 243 2.35 107 2.35
  65  0.361  0.824  0.213-  21 2.35 107 2.35  23 2.35 108 2.35
  66  0.605  0.713  0.465- 181 2.31  93 2.82 238 2.82
  67  0.631  0.670  0.071- 180 2.35 109 2.35  25 2.35 110 2.35
  68  0.515  0.593  0.213-  36 2.35 110 2.35  26 2.35 111 2.35
  69  0.400  0.516  0.355- 214 2.31 111 2.35  27 2.35
  70  0.784  0.440  0.071-  38 2.35 240 2.35 113 2.35  28 2.35
  71  0.669  0.363  0.213-  39 2.35 114 2.35 113 2.35  29 2.35
  72  0.554  0.286  0.355- 114 2.35  30 2.35  54 2.97 217 3.39
  73  0.938  0.209  0.071-   5 2.35 198 2.35  80 2.35  31 2.35
  74  0.823  0.132  0.213-   6 2.35  80 2.35  32 2.35  81 2.35
  75  0.707  0.055  0.355-  81 2.35  33 2.35  56 2.91
  76  0.861  0.824  0.071-   2 2.35 115 2.35  34 2.35 116 2.35
  77  0.746  0.747  0.213-   3 2.35 116 2.35 180 2.35 117 2.35
  78  0.939  0.046  0.465- 220 2.31 253 2.82  96 2.82
  79  0.355  0.629  0.890- 127 2.82 225 2.82 249 2.86  13 2.97
  80  0.919  0.113  0.142- 145 2.35  74 2.35 119 2.35  73 2.35
  81  0.804  0.036  0.284-  75 2.35 146 2.35 220 2.35  74 2.35
  82  0.111  0.574  0.000-  40 2.35 162 2.35  10 2.94
  83  0.996  0.497  0.142- 154 2.35  41 2.35  40 2.35 125 2.35
  84  0.105  0.213  0.465- 175 2.31  45 2.82 208 2.82
  85  0.855  0.129  0.890- 237 2.82 165 2.82  31 2.86 103 2.97
  86  0.150  0.266  0.142- 195 2.35  43 2.35 232 2.35 160 2.35
  87  0.272  0.713  0.465- 166 2.26 131 2.82 256 2.82
  88  0.689  0.629  0.890- 109 2.27 177 2.82 234 2.82
  89  0.522  0.129  0.890- 183 2.82 228 2.82 207 2.93  19 2.94
  90  0.188  0.959  0.284- 134 2.35 132 2.35 163 2.35  47 2.35
  91  0.439  0.879  0.805- 239 2.82  94 2.82 194 2.82 118 2.82
  92  0.073  0.882  0.142- 121 2.35  50 2.35 134 2.35  49 2.35
  93  0.689  0.629  0.550-  66 2.82 176 2.82  60 2.82 224 2.82
  94  0.522  0.796  0.890-  91 2.82 177 2.82 192 2.87  25 2.97
  95  0.227  0.651  0.142- 162 2.35  53 2.35 137 2.35  52 2.35
  96  0.022  0.963  0.550- 164 2.82  78 2.82 230 2.82  42 2.82
  97  0.855  0.463  0.890- 240 2.31 234 2.82 124 2.82
  98  0.381  0.420  0.142- 168 2.35 172 2.35 140 2.35  55 2.35
  99  0.265  0.343  0.284- 232 2.35 211 2.35 141 2.35 172 2.35
 100  0.650  0.266  0.000- 210 2.31  58 2.35 142 2.35
 101  0.855  0.796  0.890- 231 2.82 148 2.82  34 2.90 115 2.91
 102  0.689  0.963  0.550-  56 2.82 182 2.82 120 2.82 221 2.82
 103  0.804  0.036  0.000-  61 2.35 145 2.35  85 2.97 204 3.39
 104  0.688  0.959  0.142- 159 2.35  61 2.35  62 2.35 146 2.35
 105  0.573  0.882  0.284- 149 2.35  62 2.35 147 2.35  63 2.35
 106  0.022  0.296  0.890- 124 2.82 219 2.82   4 2.87 198 2.97
 107  0.457  0.805  0.142- 136 2.35  65 2.35  64 2.35 149 2.35
 108  0.342  0.728  0.284- 137 2.35 166 2.35 150 2.35  65 2.35
 109  0.727  0.651  0.000-  88 2.27  67 2.35 151 2.35
 110  0.611  0.574  0.142- 139 2.35  68 2.35 152 2.35  67 2.35
 111  0.496  0.497  0.284- 140 2.35  69 2.35 153 2.35  68 2.35
 112  0.189  0.796  0.890- 189 2.31 213 2.82 127 2.82
 113  0.765  0.343  0.142- 155 2.35 142 2.35  70 2.35  71 2.35
 114  0.650  0.266  0.284- 156 2.35  71 2.35 143 2.35  72 2.35
 115  0.957  0.805  0.000- 121 2.35  76 2.35 101 2.91
 116  0.842  0.728  0.142- 151 2.35  77 2.35 122 2.35  76 2.35
 117  0.727  0.651  0.284- 152 2.35 123 2.35 181 2.35  77 2.35
 118  0.355  0.963  0.890- 243 2.31 174 2.82  91 2.82
 119  0.015  0.093  0.213- 157 2.35  80 2.35   8 2.35   9 2.35
 120  0.772  0.879  0.465- 247 2.82 102 2.82 147 2.93  51 2.94
 121  0.054  0.786  0.071-  92 2.35 115 2.35 189 2.35  11 2.35
 122  0.938  0.709  0.213- 196 2.35 116 2.35  11 2.35  12 2.35
 123  0.823  0.632  0.355- 117 2.35  12 2.35  60 2.87
 124  0.939  0.379  0.805- 106 2.82 209 2.82 260 2.82  97 2.82
 125  0.092  0.478  0.213- 202 2.35  14 2.35  83 2.35  15 2.35
 126  0.977  0.401  0.355- 178 2.27 235 2.35  15 2.35
 127  0.272  0.713  0.805-  79 2.82 188 2.82 239 2.82 112 2.82
 128  0.105  0.546  0.465- 259 2.82 205 2.82 169 2.90 138 2.91
 129  0.939  0.713  0.465- 247 2.82 205 2.82
 130  0.515  0.093  0.071- 258 2.35  19 2.35 207 2.35 201 2.35
 131  0.355  0.629  0.550-  87 2.82 167 2.82 214 2.82 215 2.82
 132  0.284  0.940  0.355-  21 2.35  90 2.35  48 2.97
 133  0.522  0.463  0.890- 261 2.26 225 2.82  35 2.82
 134  0.169  0.863  0.213-  90 2.35  23 2.35  24 2.35  92 2.35
 135  0.054  0.786  0.355-  24 2.35 196 2.35  42 2.97
 136  0.438  0.709  0.071- 107 2.35 249 2.35  25 2.35  26 2.35
 137  0.323  0.632  0.213- 108 2.35  95 2.35  26 2.35  27 2.35
 138  0.207  0.555  0.355- 202 2.35  27 2.35 128 2.91
 139  0.592  0.478  0.071- 110 2.35  28 2.35 261 2.35  29 2.35
 140  0.477  0.401  0.213- 111 2.35  29 2.35  98 2.35  30 2.35
 141  0.361  0.324  0.355-  30 2.35  99 2.35  44 2.94 217 3.39
 142  0.746  0.247  0.071-  31 2.35 113 2.35 100 2.35  32 2.35
 143  0.631  0.170  0.213- 258 2.35 114 2.35  32 2.35  33 2.35
 144  0.515  0.093  0.355-  33 2.35 193 2.35  56 2.90
 145  0.900  0.016  0.071-   1 2.35  80 2.35 103 2.35   2 2.35
 146  0.784  0.940  0.213-  81 2.35   2 2.35 104 2.35   3 2.35
 147  0.669  0.863  0.355-   3 2.35 105 2.35 120 2.93
 148  0.939  0.713  0.805-  10 2.82 206 2.82 257 2.82 101 2.82
 149  0.554  0.786  0.213- 105 2.35 180 2.35 107 2.35  36 2.35
 150  0.438  0.709  0.355- 108 2.35  36 2.35
 151  0.823  0.632  0.071- 116 2.35  37 2.35  38 2.35 109 2.35
 152  0.707  0.555  0.213- 117 2.35  38 2.35  39 2.35 110 2.35
 153  0.592  0.478  0.355- 111 2.35  39 2.35  54 2.86
 154  0.977  0.401  0.071-  83 2.35 240 2.35   4 2.35   5 2.35
 155  0.861  0.324  0.213- 235 2.35 113 2.35   5 2.35   6 2.35
 156  0.746  0.247  0.355- 226 2.26 114 2.35   6 2.35
 157  0.034  0.190  0.284- 119 2.35 175 2.35 160 2.35 262 2.35
 158  0.105  0.713  0.635- 205 2.82 188 2.82 257 2.82 256 2.82
 159  0.669  0.863  0.071- 104 2.35  34 2.35 192 2.35 180 2.35
 160  0.054  0.286  0.213-  15 2.35   5 2.35 157 2.35  86 2.35
 161  0.105  0.379  0.635- 208 2.82 191 2.82 260 2.82 259 2.82
 162  0.207  0.555  0.071-  95 2.35  82 2.35  13 2.35  14 2.35
 163  0.092  0.978  0.355-   9 2.35  90 2.35  42 2.86
 164  0.105  0.046  0.635-  96 2.82 185 2.82 263 2.82  45 2.82
 165  0.939  0.046  0.805- 186 2.82 203 2.82 263 2.82  85 2.82
 166  0.246  0.747  0.355-  87 2.26 108 2.35  24 2.35
 167  0.439  0.713  0.635- 197 2.82 131 2.82 239 2.82 238 2.82
 168  0.361  0.324  0.071-  98 2.35 264 2.35  16 2.35  17 2.35
 169  0.015  0.593  0.355-  12 2.35 202 2.35 128 2.90
 170  0.439  0.379  0.635- 242 2.82 200 2.82 190 2.82 241 2.82
 171  0.272  0.379  0.805-  20 2.82 242 2.82 191 2.82  22 2.82
 172  0.284  0.440  0.213-  27 2.35  98 2.35  14 2.35  99 2.35
 173  0.439  0.046  0.635- 194 2.82 184 2.82 245 2.82 244 2.82
 174  0.272  0.046  0.805- 118 2.82 245 2.82 185 2.82 246 2.82
 175  0.131  0.170  0.355-  84 2.31 157 2.35  18 2.35
 176  0.772  0.713  0.635- 248 2.82 206 2.82  93 2.82 247 2.82
 177  0.605  0.713  0.805-  88 2.82 197 2.82  94 2.82 248 2.82
 178  0.939  0.379  0.465- 126 2.27 250 2.82 208 2.82 235 3.73
 179  0.772  0.379  0.635- 251 2.82 209 2.82 199 2.82 250 2.82
 180  0.650  0.766  0.142-  67 2.35 149 2.35  77 2.35 159 2.35
 181  0.631  0.670  0.355-  66 2.31 117 2.35  36 2.35
 182  0.772  0.046  0.635- 254 2.82 203 2.82 102 2.82 253 2.82
 183  0.605  0.046  0.805- 204 2.82 194 2.82  89 2.82 254 2.82
 184  0.355  0.963  0.550-  48 2.82 173 2.82  57 2.82 212 2.82
 185  0.189  0.963  0.720- 164 2.82 212 2.82 174 2.82 213 2.82
 186  0.022  0.963  0.890-   1 2.26 165 2.82 213 2.82
 187  0.400  0.016  0.213- 193 2.35 201 2.35 255 2.35  21 2.35
 188  0.189  0.629  0.720- 158 2.82 127 2.82 215 2.82 216 2.82
 189  0.150  0.766  0.000- 112 2.31  52 2.35 121 2.35
 190  0.355  0.296  0.550-  44 2.82 217 2.82 170 2.82 218 2.82
 191  0.189  0.296  0.720- 218 2.82 161 2.82 219 2.82 171 2.82
 192  0.573  0.882  0.000-  64 2.35 159 2.35  94 2.87 204 3.47
 193  0.419  0.113  0.284- 187 2.35 144 2.35  59 2.35 223 2.35
 194  0.522  0.963  0.720- 173 2.82 183 2.82 221 2.82  91 2.82
 195  0.131  0.170  0.071-  86 2.35   7 2.35 198 2.35   8 2.35 246 3.73
 196  0.957  0.805  0.284- 122 2.35  51 2.35 135 2.35  50 2.35
 197  0.522  0.629  0.720- 167 2.82 177 2.82 224 2.82 225 2.82
 198  0.034  0.190  0.000-  73 2.35 195 2.35 106 2.97
 199  0.689  0.296  0.550-  54 2.82 226 2.82 227 2.82 179 2.82
 200  0.522  0.296  0.720- 227 2.82 170 2.82 228 2.82  35 2.82
 201  0.496  0.997  0.142-  64 2.35 187 2.35 130 2.35  62 2.35
 202  0.111  0.574  0.284- 125 2.35 138 2.35 169 2.35  53 2.35
 203  0.855  0.963  0.720- 165 2.82 182 2.82 231 2.82 230 2.82
 204  0.689  0.963  0.890- 183 2.82 231 2.82  19 3.39 103 3.39 192 3.47
 205  0.022  0.629  0.550- 158 2.82 129 2.82 233 2.82 128 2.82
 206  0.855  0.629  0.720- 148 2.82 176 2.82 234 2.82 233 2.82
 207  0.419  0.113  0.000- 130 2.35  46 2.35  89 2.93
 208  0.022  0.296  0.550- 236 2.82 161 2.82  84 2.82 178 2.82
 209  0.855  0.296  0.720- 124 2.82 237 2.82 236 2.82 179 2.82
 210  0.689  0.296  0.890- 100 2.31  35 2.82 237 2.82
 211  0.169  0.363  0.355-  99 2.35  15 2.35  44 2.93
 212  0.272  0.879  0.635- 256 2.82 239 2.82 185 2.82 184 2.82
 213  0.105  0.879  0.805- 257 2.82 112 2.82 185 2.82 186 2.82
 214  0.439  0.546  0.465-  69 2.31 241 2.82 131 2.82
 215  0.272  0.546  0.635- 259 2.82 242 2.82 188 2.82 131 2.82
 216  0.105  0.546  0.805- 260 2.82  22 2.82 188 2.82  10 2.82
 217  0.439  0.213  0.465- 244 2.82 190 2.82 141 3.39  72 3.39 223 3.47
 218  0.272  0.213  0.635- 191 2.82  45 2.82 245 2.82 190 2.82
 219  0.105  0.213  0.805- 263 2.82 246 2.82 191 2.82 106 2.82
 220  0.900  0.016  0.355-  78 2.31   9 2.35  81 2.35
 221  0.605  0.879  0.635- 238 2.82 248 2.82 194 2.82 102 2.82
 222  0.188  0.959  0.000- 252 2.35  49 2.35
 223  0.323  0.132  0.355-  18 2.35 193 2.35  48 2.87 217 3.47
 224  0.605  0.546  0.635- 241 2.82 197 2.82 251 2.82  93 2.82
 225  0.439  0.546  0.805- 242 2.82 133 2.82 197 2.82  79 2.82
 226  0.772  0.213  0.465- 156 2.26 253 2.82 199 2.82
 227  0.605  0.213  0.635- 200 2.82 244 2.82 199 2.82 254 2.82
 228  0.439  0.213  0.805- 200 2.82 245 2.82  89 2.82  20 2.82
 229  0.784  0.440  0.355-  39 2.35 235 2.35  60 2.97
 230  0.939  0.879  0.635- 257 2.82 247 2.82  96 2.82 203 2.82
 231  0.772  0.879  0.805- 101 2.82 248 2.82 203 2.82 204 2.82
 232  0.246  0.247  0.213-  99 2.35  17 2.35  86 2.35  18 2.35
 233  0.939  0.546  0.635- 260 2.82 250 2.82 205 2.82 206 2.82
 234  0.772  0.546  0.805-  97 2.82 251 2.82 206 2.82  88 2.82
 235  0.881  0.420  0.284- 155 2.35 229 2.35 126 2.35  41 2.35 178 3.73
 236  0.939  0.213  0.635- 263 2.82 208 2.82 209 2.82 253 2.82
 237  0.772  0.213  0.805-  85 2.82 209 2.82 254 2.82 210 2.82
 238  0.522  0.796  0.550-  57 2.82 221 2.82  66 2.82 167 2.82
 239  0.355  0.796  0.720-  91 2.82 212 2.82 167 2.82 127 2.82
 240  0.881  0.420  0.000-  97 2.31  70 2.35 154 2.35
 241  0.522  0.463  0.550- 214 2.82 224 2.82  54 2.82 170 2.82
 242  0.355  0.463  0.720- 225 2.82 170 2.82 215 2.82 171 2.82
 243  0.381  0.920  0.000- 118 2.31 252 2.35  64 2.35
 244  0.522  0.129  0.550- 217 2.82 227 2.82  56 2.82 173 2.82
 245  0.355  0.129  0.720- 173 2.82 174 2.82 228 2.82 218 2.82
 246  0.189  0.129  0.890-   7 2.27 219 2.82 174 2.82 195 3.73
 247  0.855  0.796  0.550- 129 2.82 120 2.82 230 2.82 176 2.82
 248  0.689  0.796  0.720- 231 2.82 176 2.82 221 2.82 177 2.82
 249  0.342  0.728  0.000- 136 2.35  52 2.35  79 2.86
 250  0.855  0.463  0.550- 178 2.82  60 2.82 233 2.82 179 2.82
 251  0.689  0.463  0.720- 179 2.82 234 2.82 224 2.82  35 2.82
 252  0.284  0.940  0.071- 255 2.35 243 2.35 222 2.35  23 2.35
 253  0.855  0.129  0.550-  78 2.82 226 2.82 236 2.82 182 2.82
 254  0.689  0.129  0.720- 182 2.82 237 2.82 227 2.82 183 2.82
 255  0.304  0.036  0.142- 252 2.35  46 2.35  47 2.35 187 2.35
 256  0.189  0.796  0.550-  42 2.82 212 2.82  87 2.82 158 2.82
 257  0.022  0.796  0.720- 230 2.82 148 2.82 213 2.82 158 2.82
 258  0.534  0.190  0.142- 130 2.35 143 2.35  58 2.35  59 2.35
 259  0.189  0.463  0.550- 128 2.82 215 2.82  44 2.82 161 2.82
 260  0.022  0.463  0.720- 233 2.82 124 2.82 216 2.82 161 2.82
 261  0.496  0.497  0.000- 133 2.26  55 2.35 139 2.35
 262  0.938  0.209  0.355-   6 2.35 157 2.35
 263  0.022  0.129  0.720- 236 2.82 165 2.82 164 2.82 219 2.82
 264  0.265  0.343  0.000- 168 2.35  43 2.35  20 2.90
 
  LATTYP: Found a simple tetragonal cell.
 ALAT       =    19.5817508700
 C/A-ratio  =     0.9754107470
  
  Lattice vectors:
  
 A1 = (  19.5817508700,   0.0000000000,   0.0000000000)
 A2 = (   0.0000000000,  19.5817489620,   0.0000000000)
 A3 = (   0.0000000000,   0.0000000000,  19.1002502440)


Analysis of symmetry for initial positions (statically):
=====================================================================
 Subroutine PRICEL returns:
 Original cell was already a primitive cell.
 

 Routine SETGRP: Setting up the symmetry group for a 
 simple tetragonal supercell.


 Subroutine GETGRP returns: Found  1 space group operations
 (whereof  1 operations were pure point group operations)
 out of a pool of 16 trial point group operations.


The static configuration has the point symmetry C_1 .


Analysis of symmetry for dynamics (positions and initial velocities):
=====================================================================
 Subroutine PRICEL returns:
 Original cell was already a primitive cell.
 

 Routine SETGRP: Setting up the symmetry group for a 
 simple tetragonal supercell.


 Subroutine GETGRP returns: Found  1 space group operations
 (whereof  1 operations were pure point group operations)
 out of a pool of 16 trial point group operations.


The dynamic configuration has the point symmetry C_1 .


Analysis of structural, dynamic, and magnetic symmetry:
=====================================================================
 Subroutine PRICEL returns:
 Original cell was already a primitive cell.
 

 Routine SETGRP: Setting up the symmetry group for a 
 simple tetragonal supercell.


 Subroutine GETGRP returns: Found  1 space group operations
 (whereof  1 operations were pure point group operations)
 out of a pool of 16 trial point group operations.


The overall configuration has the point symmetry C_1 .


 Subroutine INISYM returns: Found  1 space group operations
 (whereof  1 operations are pure point group operations),
 and found     1 'primitive' translations


----------------------------------------------------------------------------------------

                                     Primitive cell                                     

  volume of cell :    7323.8941

  direct lattice vectors                    reciprocal lattice vectors
    19.581750870  0.000000000  0.000000000     0.051067956  0.000000000  0.000000000
     0.000000000 19.581748962  0.000000000     0.000000000  0.051067961  0.000000000
     0.000000000  0.000000000 19.100250244     0.000000000  0.000000000  0.052355335

  length of vectors
    19.581750870 19.581748962 19.100250244     0.051067956  0.051067961  0.052355335

  position of ions in fractional coordinates (direct lattice)
     0.995893002  0.997262001  0.000000000
     0.880508363  0.920338869  0.142170906
     0.765123725  0.843415737  0.284341902
     0.072816126  0.381877452  0.000000000
     0.957431436  0.304954290  0.142170906
     0.842046797  0.228031158  0.284341902
     0.226662278  0.151108176  0.000000000
     0.111277618  0.074185051  0.142170906
     0.995892942  0.997261941  0.284341902
     0.021958113  0.629487276  0.890053868
     0.034354534  0.689569712  0.142170906
     0.918969870  0.612646580  0.284341902
     0.303585410  0.535723567  0.000000000
     0.188200727  0.458800435  0.142170906
     0.072816066  0.381877303  0.284341902
     0.457431555  0.304954350  0.000000000
     0.342046857  0.228031203  0.142170906
     0.226662204  0.151108071  0.284341902
     0.611277699  0.074185103  0.000000000
     0.355291486  0.296153843  0.890053868
     0.380508363  0.920338809  0.284341902
     0.188624859  0.462820560  0.890053868
     0.265123844  0.843415916  0.142170906
     0.149739176  0.766492724  0.284341902
     0.534354627  0.689569712  0.000000000
     0.418969929  0.612646580  0.142170906
     0.303585261  0.535723448  0.284341902
     0.688200712  0.458800495  0.000000000
     0.572816074  0.381877363  0.142170906
     0.457431376  0.304954231  0.284341902
     0.842046916  0.228031188  0.000000000
     0.726662278  0.151108041  0.142170906
     0.611277580  0.074184909  0.284341902
     0.765123904  0.843415856  0.000000000
     0.605291545  0.379487187  0.805117786
     0.534354568  0.689569592  0.284341902
     0.918970048  0.612646639  0.000000000
     0.803585410  0.535723507  0.142170906
     0.688200712  0.458800375  0.284341902
     0.015123837  0.593415856  0.071085475
     0.899739206  0.516492724  0.213256419
     0.105291605  0.879487157  0.465373576
     0.168969959  0.362646669  0.071085475
     0.271958232  0.379487187  0.465373576
     0.188624859  0.129487187  0.550309598
     0.322816133  0.131877407  0.071085475
     0.207431450  0.054954268  0.213256419
     0.271958232  0.046153847  0.465373576
     0.092046887  0.978031278  0.071085475
     0.976662219  0.901108146  0.213256419
     0.861277521  0.824185014  0.355427384
     0.245893061  0.747262061  0.071085475
     0.130508408  0.670338929  0.213256419
     0.605291545  0.379487187  0.465373576
     0.399739265  0.516492844  0.071085475
     0.605291545  0.046153847  0.465373576
     0.438624859  0.879487157  0.465373576
     0.553585410  0.285723537  0.071085475
     0.438200712  0.208800390  0.213256419
     0.771958232  0.546153843  0.465373576
     0.707431555  0.054954302  0.071085475
     0.592046857  0.978031158  0.213256419
     0.476662189  0.901108027  0.355427384
     0.476662397  0.901108205  0.071085475
     0.361277699  0.824185073  0.213256419
     0.605291545  0.712820530  0.465373576
     0.630508542  0.670338988  0.071085475
     0.515123844  0.593415797  0.213256419
     0.399739146  0.516492665  0.355427384
     0.784354687  0.439569712  0.071085475
     0.668969989  0.362646550  0.213256419
     0.553585291  0.285723418  0.355427384
     0.938200831  0.208800495  0.071085475
     0.822816133  0.131877348  0.213256419
     0.707431436  0.054954205  0.355427384
     0.861277878  0.824185133  0.071085475
     0.745893180  0.747262001  0.213256419
     0.938624859  0.046153847  0.465373576
     0.355291486  0.629487276  0.890053868
     0.918969929  0.112646602  0.142170906
     0.803585231  0.035723470  0.284341902
     0.111277662  0.574185073  0.000000000
     0.995893002  0.497262001  0.142170906
     0.105291605  0.212820515  0.465373576
     0.855291486  0.129487187  0.890053868
     0.149739191  0.266492784  0.142170906
     0.271958232  0.712820530  0.465373576
     0.688624859  0.629487276  0.890053868
     0.521958232  0.129487187  0.890053868
     0.188200638  0.958800316  0.284341902
     0.438624859  0.879487157  0.805117786
     0.072816059  0.881877303  0.142170906
     0.688624859  0.629487276  0.550309598
     0.521958232  0.796153903  0.890053868
     0.226662233  0.651108146  0.142170906
     0.021958232  0.962820590  0.550309598
     0.855291486  0.462820560  0.890053868
     0.380508423  0.420338869  0.142170906
     0.265123725  0.343415737  0.284341902
     0.649739265  0.266492784  0.000000000
     0.855291486  0.796153903  0.890053868
     0.688624859  0.962820590  0.550309598
     0.803585410  0.035723574  0.000000000
     0.688200712  0.958800435  0.142170906
     0.572816074  0.881877303  0.284341902
     0.021958113  0.296153843  0.890053868
     0.457431436  0.804954290  0.142170906
     0.342046797  0.728031099  0.284341902
     0.726662338  0.651108146  0.000000000
     0.611277640  0.574185014  0.142170906
     0.495892942  0.497261852  0.284341902
     0.188624859  0.796153903  0.890053868
     0.765123844  0.343415856  0.142170906
     0.649739146  0.266492724  0.284341902
     0.957431614  0.804954290  0.000000000
     0.842046916  0.728031158  0.142170906
     0.726662278  0.651108027  0.284341902
     0.355291486  0.962820590  0.890053868
     0.015123768  0.093415834  0.213256419
     0.771958232  0.879487157  0.465373576
     0.053585343  0.785723627  0.071085475
     0.938200712  0.708800435  0.213256419
     0.822816014  0.631877303  0.355427384
     0.938624859  0.379487187  0.805117786
     0.092046872  0.478031248  0.213256419
     0.976662159  0.401108086  0.355427384
     0.271958232  0.712820530  0.805117786
     0.105291605  0.546153843  0.465373576
     0.938624859  0.712820530  0.465373576
     0.515123844  0.093415849  0.071085475
     0.355291516  0.629487276  0.550309598
     0.284354508  0.939569533  0.355427384
     0.521958232  0.462820560  0.890053868
     0.168969989  0.862646639  0.213256419
     0.053585291  0.785723507  0.355427384
     0.438200772  0.708800614  0.071085475
     0.322816074  0.631877422  0.213256419
     0.207431406  0.554954290  0.355427384
     0.592046976  0.478031278  0.071085475
     0.476662278  0.401108146  0.213256419
     0.361277610  0.324185014  0.355427384
     0.745893121  0.247262001  0.071085475
     0.630508423  0.170338869  0.213256419
     0.515123785  0.093415722  0.355427384
     0.899739265  0.016492788  0.071085475
     0.784354568  0.939569652  0.213256419
     0.668969929  0.862646520  0.355427384
     0.938624859  0.712820530  0.805117786
     0.553585410  0.785723627  0.213256419
     0.438200712  0.708800495  0.355427384
     0.822816253  0.631877422  0.071085475
     0.707431555  0.554954290  0.213256419
     0.592046797  0.478031129  0.355427384
     0.976662278  0.401108235  0.071085475
     0.861277580  0.324185073  0.213256419
     0.745892882  0.247261927  0.355427384
     0.034354493  0.189569652  0.284341902
     0.105291486  0.712820530  0.635245681
     0.668970108  0.862646759  0.071085475
     0.053585295  0.285723537  0.213256419
     0.105291486  0.379487187  0.635245681
     0.207431525  0.554954410  0.071085475
     0.092046767  0.978031158  0.355427384
     0.105291486  0.046153847  0.635245681
     0.938624859  0.046153847  0.805117786
     0.245893002  0.747261941  0.355427384
     0.438624829  0.712820530  0.635245681
     0.361277699  0.324185133  0.071085475
     0.015123715  0.593415797  0.355427384
     0.438624829  0.379487187  0.635245681
     0.271958232  0.379487187  0.805117786
     0.284354597  0.439569682  0.213256419
     0.438624829  0.046153847  0.635245681
     0.271958232  0.046153847  0.805117786
     0.130508333  0.170338854  0.355427384
     0.771958232  0.712820530  0.635245681
     0.605291545  0.712820530  0.805117786
     0.938624859  0.379487187  0.465373576
     0.771958232  0.379487187  0.635245681
     0.649739265  0.766492724  0.142170906
     0.630508423  0.670338809  0.355427384
     0.771958232  0.046153847  0.635245681
     0.605291545  0.046153847  0.805117786
     0.355291516  0.962820590  0.550309598
     0.188624859  0.962820590  0.720181704
     0.021958113  0.962820590  0.890053868
     0.399739206  0.016492724  0.213256419
     0.188624859  0.629487276  0.720181704
     0.149739221  0.766492844  0.000000000
     0.355291516  0.296153843  0.550309598
     0.188624859  0.296153843  0.720181704
     0.572816133  0.881877363  0.000000000
     0.418969929  0.112646520  0.284341902
     0.521958172  0.962820590  0.720181704
     0.130508438  0.170338959  0.071085475
     0.957431376  0.804954231  0.284341902
     0.521958172  0.629487276  0.720181704
     0.034354586  0.189569741  0.000000000
     0.688624859  0.296153843  0.550309598
     0.521958172  0.296153843  0.720181704
     0.495893002  0.997261941  0.142170906
     0.111277573  0.574185014  0.284341902
     0.855291605  0.962820590  0.720181704
     0.688624859  0.962820590  0.890053868
     0.021958232  0.629487276  0.550309598
     0.855291605  0.629487276  0.720181704
     0.418969989  0.112646602  0.000000000
     0.021958232  0.296153843  0.550309598
     0.855291605  0.296153843  0.720181704
     0.688624859  0.296153843  0.890053868
     0.168969929  0.362646550  0.355427384
     0.271958113  0.879487157  0.635245681
     0.105291486  0.879487157  0.805117786
     0.438624859  0.546153843  0.465373576
     0.271958113  0.546153843  0.635245681
     0.105291486  0.546153843  0.805117786
     0.438624859  0.212820515  0.465373576
     0.271958113  0.212820515  0.635245681
     0.105291486  0.212820515  0.805117786
     0.899739087  0.016492693  0.355427384
     0.605291486  0.879487157  0.635245681
     0.188200757  0.958800435  0.000000000
     0.322816044  0.131877258  0.355427384
     0.605291486  0.546153843  0.635245681
     0.438624859  0.546153843  0.805117786
     0.771958232  0.212820515  0.465373576
     0.605291486  0.212820515  0.635245681
     0.438624859  0.212820515  0.805117786
     0.784354508  0.439569622  0.355427384
     0.938624978  0.879487157  0.635245681
     0.771958292  0.879487157  0.805117786
     0.245893031  0.247262001  0.213256419
     0.938624978  0.546153843  0.635245681
     0.771958292  0.546153843  0.805117786
     0.880508304  0.420338839  0.284341902
     0.938624978  0.212820515  0.635245681
     0.771958292  0.212820515  0.805117786
     0.521958172  0.796153903  0.550309598
     0.355291516  0.796153903  0.720181704
     0.880508482  0.420338988  0.000000000
     0.521958172  0.462820560  0.550309598
     0.355291516  0.462820560  0.720181704
     0.380508512  0.920339048  0.000000000
     0.521958172  0.129487187  0.550309598
     0.355291516  0.129487187  0.720181704
     0.188624859  0.129487187  0.890053868
     0.855291605  0.796153903  0.550309598
     0.688624978  0.796153903  0.720181704
     0.342046916  0.728031278  0.000000000
     0.855291605  0.462820560  0.550309598
     0.688624978  0.462820560  0.720181704
     0.284354657  0.939569831  0.071085475
     0.855291605  0.129487187  0.550309598
     0.688624978  0.129487187  0.720181704
     0.303585321  0.035723474  0.142170906
     0.188624859  0.796153903  0.550309598
     0.021958113  0.796153903  0.720181704
     0.534354627  0.189569652  0.142170906
     0.188624859  0.462820560  0.550309598
     0.021958113  0.462820560  0.720181704
     0.495893091  0.497262001  0.000000000
     0.938200593  0.208800375  0.355427384
     0.021958113  0.129487187  0.720181704
     0.265123844  0.343415916  0.000000000

  ion indices of the primitive-cell ions
   primitive index   ion index
                 1           1
                 2           2
                 3           3
                 4           4
                 5           5
                 6           6
                 7           7
                 8           8
                 9           9
                10          10
                11          11
                12          12
                13          13
                14          14
                15          15
                16          16
                17          17
                18          18
                19          19
                20          20
                21          21
                22          22
                23          23
                24          24
                25          25
                26          26
                27          27
                28          28
                29          29
                30          30
                31          31
                32          32
                33          33
                34          34
                35          35
                36          36
                37          37
                38          38
                39          39
                40          40
                41          41
                42          42
                43          43
                44          44
                45          45
                46          46
                47          47
                48          48
                49          49
                50          50
                51          51
                52          52
                53          53
                54          54
                55          55
                56          56
                57          57
                58          58
                59          59
                60          60
                61          61
                62          62
                63          63
                64          64
                65          65
                66          66
                67          67
                68          68
                69          69
                70          70
                71          71
                72          72
                73          73
                74          74
                75          75
                76          76
                77          77
                78          78
                79          79
                80          80
                81          81
                82          82
                83          83
                84          84
                85          85
                86          86
                87          87
                88          88
                89          89
                90          90
                91          91
                92          92
                93          93
                94          94
                95          95
                96          96
                97          97
                98          98
                99          99
               100         100
               101         101
               102         102
               103         103
               104         104
               105         105
               106         106
               107         107
               108         108
               109         109
               110         110
               111         111
               112         112
               113         113
               114         114
               115         115
               116         116
               117         117
               118         118
               119         119
               120         120
               121         121
               122         122
               123         123
               124         124
               125         125
               126         126
               127         127
               128         128
               129         129
               130         130
               131         131
               132         132
               133         133
               134         134
               135         135
               136         136
               137         137
               138         138
               139         139
               140         140
               141         141
               142         142
               143         143
               144         144
               145         145
               146         146
               147         147
               148         148
               149         149
               150         150
               151         151
               152         152
               153         153
               154         154
               155         155
               156         156
               157         157
               158         158
               159         159
               160         160
               161         161
               162         162
               163         163
               164         164
               165         165
               166         166
               167         167
               168         168
               169         169
               170         170
               171         171
               172         172
               173         173
               174         174
               175         175
               176         176
               177         177
               178         178
               179         179
               180         180
               181         181
               182         182
               183         183
               184         184
               185         185
               186         186
               187         187
               188         188
               189         189
               190         190
               191         191
               192         192
               193         193
               194         194
               195         195
               196         196
               197         197
               198         198
               199         199
               200         200
               201         201
               202         202
               203         203
               204         204
               205         205
               206         206
               207         207
               208         208
               209         209
               210         210
               211         211
               212         212
               213         213
               214         214
               215         215
               216         216
               217         217
               218         218
               219         219
               220         220
               221         221
               222         222
               223         223
               224         224
               225         225
               226         226
               227         227
               228         228
               229         229
               230         230
               231         231
               232         232
               233         233
               234         234
               235         235
               236         236
               237         237
               238         238
               239         239
               240         240
               241         241
               242         242
               243         243
               244         244
               245         245
               246         246
               247         247
               248         248
               249         249
               250         250
               251         251
               252         252
               253         253
               254         254
               255         255
               256         256
               257         257
               258         258
               259         259
               260         260
               261         261
               262         262
               263         263
               264         264

----------------------------------------------------------------------------------------

 
 
 KPOINTS: Automatic KPOINTS generated             

Automatic generation of k-mesh.
 Grid dimensions read from file:
 generate k-points for:    2    2    2

 Generating k-lattice:

  Cartesian coordinates                     Fractional coordinates (reciprocal lattice)
     0.025533978  0.000000000  0.000000000     0.500000000  0.000000000  0.000000000
     0.000000000  0.025533981  0.000000000     0.000000000  0.500000000  0.000000000
     0.000000000  0.000000000  0.026177667     0.000000000  0.000000000  0.500000000

  Length of vectors
     0.025533978  0.025533981  0.026177667

  Shift w.r.t. Gamma in fractional coordinates (k-lattice)
     0.000000000  0.000000000  0.000000000

 
 Subroutine IBZKPT returns following result:
 ===========================================
 
 Found      8 irreducible k-points:
 
 Following reciprocal coordinates:
            Coordinates               Weight
  0.000000  0.000000  0.000000      1.000000
  0.500000  0.000000  0.000000      1.000000
  0.000000  0.500000  0.000000      1.000000
  0.500000  0.500000  0.000000      1.000000
  0.000000  0.000000  0.500000      1.000000
  0.500000  0.000000  0.500000      1.000000
  0.000000  0.500000  0.500000      1.000000
  0.500000  0.500000  0.500000      1.000000
 
 Following cartesian coordinates:
            Coordinates               Weight
  0.000000  0.000000  0.000000      1.000000
  0.025534  0.000000  0.000000      1.000000
  0.000000  0.025534  0.000000      1.000000
  0.025534  0.025534  0.000000      1.000000
  0.000000  0.000000  0.026178      1.000000
  0.025534  0.000000  0.026178      1.000000
  0.000000  0.025534  0.026178      1.000000
  0.025534  0.025534  0.026178      1.000000
 
 -----------------------------------------------------------------------------
|                                                                             |
|           W    W    AA    RRRRR   N    N  II  N    N   GGGG   !!!           |
|           W    W   A  A   R    R  NN   N  II  NN   N  G    G  !!!           |
|           W    W  A    A  R    R  N N  N  II  N N  N  G       !!!           |
|           W WW W  AAAAAA  RRRRR   N  N N  II  N  N N  G  GGG   !            |
|           WW  WW  A    A  R   R   N   NN  II  N   NN  G    G                |
|           W    W  A    A  R    R  N    N  II  N    N   GGGG   !!!           |
|                                                                             |
|     The number of bands has been changed from the values supplied in        |
|     the INCAR file. This is a result of running the parallel version.       |
|     The orbitals not found in the WAVECAR file will be initialized with     |
|     random numbers, which is usually adequate. For correlated               |
|     calculations, however, you should redo the groundstate calculation.     |
|     I found NBANDS = 634. Now, NBANDS = 636.                                |
|                                                                             |
 -----------------------------------------------------------------------------



--------------------------------------------------------------------------------------------------------




 Dimension of arrays:
   k-points           NKPTS =      8   k-points in BZ     NKDIM =      8   number of bands    NBANDS=    636
   number of dos      NEDOS =    301   number of ions     NIONS =    264
   non local maximal  LDIM  =      5   non local SUM 2l+1 LMDIM =     13
   total plane-waves  NPLWV = ******
   max r-space proj   IRMAX =   4693   max aug-charges    IRDMAX= 217232
   dimension x,y,z NGX =   128 NGY =  128 NGZ =  126
   dimension x,y,z NGXF=   256 NGYF=  256 NGZF=  252
   support grid    NGXF=   512 NGYF=  512 NGZF=  504
   ions per type =             156 108
   NGX,Y,Z   is equivalent  to a cutoff of  10.87, 10.87, 10.97 a.u.
   NGXF,Y,Z  is equivalent  to a cutoff of  21.73, 21.73, 21.93 a.u.

 SYSTEM =  Si and Ge interface calculation         
 POSCAR =  Si+Sn                                   

 Startparameter for this run:
   NWRITE =      2    write-flag & timer
   PREC   = normal    normal or accurate (medium, high low for compatibility)
   ISTART =      0    job   : 0-new  1-cont  2-samecut
   ICHARG =      2    charge: 1-file 2-atom 10-const
   ISPIN  =      2    spin polarized calculation?
   LNONCOLLINEAR =      F non collinear calculations
   LSORBIT =      F    spin-orbit coupling
   INIWAV =      1    electr: 0-lowe 1-rand  2-diag
   LASPH  =      T    aspherical Exc in radial PAW
 Electronic Relaxation 1
   ENCUT  =  700.0 eV  51.45 Ry    7.17 a.u.  42.24 42.24 41.20*2*pi/ulx,y,z
   ENINI  =  700.0     initial cutoff
   ENAUG  =  900.0 eV  augmentation charge cutoff
   NELM   =    100;   NELMIN=  2; NELMDL= -5     # of ELM steps 
   EDIFF  = 0.1E-06   stopping-criterion for ELM
   LREAL  =      T    real-space projection
   NLSPLINE    = F    spline interpolate recip. space projectors
   LCOMPAT=      F    compatible to vasp.4.4
   GGA_COMPAT  = T    GGA compatible to vasp.4.4-vasp.4.6
   LMAXPAW     = -100 max onsite density
   LMAXMIX     =    6 max onsite mixed and CHGCAR
   VOSKOWN=      0    Vosko Wilk Nusair interpolation
   ROPT   =   -0.00050  -0.00050
 Ionic relaxation
   EDIFFG = 0.1E-05   stopping-criterion for IOM
   NSW    =      0    number of steps for IOM
   NBLOCK =      1;   KBLOCK =      1    inner block; outer block 
   IBRION =     -1    ionic relax: 0-MD 1-quasi-New 2-CG
   NFREE  =      0    steps in history (QN), initial steepest desc. (CG)
   ISIF   =      2    stress and relaxation
   IWAVPR =     10    prediction:  0-non 1-charg 2-wave 3-comb
   ISYM   =      2    0-nonsym 1-usesym 2-fastsym
   LCORR  =      T    Harris-Foulkes like correction to forces

   POTIM  = 0.5000    time-step for ionic-motion
   TEIN   =    0.0    initial temperature
   TEBEG  =    0.0;   TEEND  =   0.0 temperature during run
   SMASS  =  -3.00    Nose mass-parameter (am)
   estimated Nose-frequenzy (Omega)   =  0.10E-29 period in steps = 0.13E+47 mass=  -0.876E-26a.u.
   SCALEE = 1.0000    scale energy and forces
   NPACO  =    256;   APACO  = 10.0  distance and # of slots for P.C.
   PSTRESS=    0.0 pullay stress

  Mass of Ions in am
   POMASS =  28.09118.71
  Ionic Valenz
   ZVAL   =   4.00  4.00
  Atomic Wigner-Seitz radii
   RWIGS  =  -1.00 -1.00
  virtual crystal weights 
   VCA    =   1.00  1.00
   NELECT =    1056.0000    total number of electrons
   NUPDOWN=       1.0000    fix difference up-down

 DOS related values:
   EMIN   =  10.00;   EMAX   =-10.00  energy-range for DOS
   EFERMI =   0.00;   METHOD = LEGACY      
   ISMEAR =     0;   SIGMA  =   0.01  broadening in eV -4-tet -1-fermi 0-gaus

 Electronic relaxation 2 (details)
   IALGO  =     38    algorithm
   LDIAG  =      T    sub-space diagonalisation (order eigenvalues)
   LSUBROT=      F    optimize rotation matrix (better conditioning)
   TURBO    =      0    0=normal 1=particle mesh
   IRESTART =      0    0=no restart 2=restart with 2 vectors
   NREBOOT  =      0    no. of reboots
   NMIN     =      0    reboot dimension
   EREF     =   0.00    reference energy to select bands
   IMIX   =      4    mixing-type and parameters
     AMIX     =   0.60;   BMIX     =  1.00
     AMIX_MAG =   2.40;   BMIX_MAG =  1.00
     AMIN     =   0.10
     WC   =   100.;   INIMIX=   1;  MIXPRE=   1;  MAXMIX= -45

 Intra band minimization:
   WEIMIN = 0.0000     energy-eigenvalue tresh-hold
   EBREAK =  0.39E-10  absolut break condition
   DEPER  =   0.30     relativ break condition  

   TIME   =   0.40     timestep for ELM

  volume/ion in A,a.u.               =      27.74       187.21
  Fermi-wavevector in a.u.,A,eV,Ry     =   0.858451  1.622237 10.026649  0.736938
  Thomas-Fermi vector in A             =   1.975657
 
 Write flags
   LWAVE        =      F    write WAVECAR
   LDOWNSAMPLE  =      F    k-point downsampling of WAVECAR
   LCHARG       =      T    write CHGCAR
   LVTOT        =      F    write LOCPOT, total local potential
   LVHAR        =      T    write LOCPOT, Hartree potential only
   WRT_POTENTIAL=  hartree ionic  ! write potential to hdf5 file
   LELF         =      F    write electronic localiz. function (ELF)
   LORBIT       =      0    0 simple, 1 ext, 2 COOP (PROOUT), +10 PAW based schemes


 Dipole corrections
   LMONO      =      F    monopole corrections only (constant potential shift)
   LDIPOL     =      F    correct potential (dipole corrections)
   IDIPOL     =      0    1-x, 2-y, 3-z, 4-all directions 
   EPSILON    =  1.0000000 bulk dielectric constant
   LVACPOTAV  =      F  vacuum potentials using an averaging scheme for the charge density
   VACPOTFLAT =  0.1000000 required flatness to determine vacuum potential
 Exchange correlation treatment:
   GGA     = PE    functional components
   XC_C    = 1    coefficients multiplying the functional components
   LIBXC   =     F    Libxc                    
   VOSKOWN =     0    Vosko Wilk Nusair interpolation
   LHFCALC =     F    Hartree Fock is set to
   LHFONE  =     F    Hartree Fock one center treatment
   AEXX    =    0.0000 exact exchange contribution

 Parameters of functionals:
   PE:
     No parameter
 
 Van der Waals corrections
   IVDW    =     0    specifies the selected vdW correction

 Linear response parameters
   LEPSILON=     F    determine dielectric tensor
   LRPA    =     F    only Hartree local field effects (RPA)
   LNABLA  =     F    use nabla operator in PAW spheres
   LVEL    =     F    velocity operator in full k-point grid
   CSHIFT  =0.1000    complex shift for real part using Kramers Kronig
   OMEGAMAX=  -1.0    maximum frequency
   DEG_THRESHOLD= 0.2000000E-02 threshold for treating states as degnerate
   RTIME   =   -0.100 relaxation time in fs
  (WPLASMAI=    0.000 imaginary part of plasma frequency in eV, 0.658/RTIME)
   DFIELD  = 0.0000000 0.0000000 0.0000000 field for delta impulse in time
 
  Optional k-point grid parameters
   LKPOINTS_OPT  =     F    use optional k-point grid
   KPOINTS_OPT_MODE=     1    mode for optional k-point grid
 
 Orbital magnetization related:
   ORBITALMAG=     F  switch on orbital magnetization
   LCHIMAG   =     F  perturbation theory with respect to B field
   DQ        =  0.001000  dq finite difference perturbation B field
   LLRAUG    =     F  two centre corrections for induced B field
   LBONE     =     F  B-component reconstruction in AE one-centre
   LVGVCALC  =     T  calculate vGv susceptibility
   LVGVAPPL  =     F  apply vGv susceptibility instead of pGv for G=0

 Random number generation:
   RANDOM_GENERATOR = DEFAULT
   PCG_SEED         = not used


--------------------------------------------------------------------------------------------------------


 Static calculation
 charge density and potential will be updated during run
 spin polarized calculation
 Variant of blocked Davidson
 Davidson routine will perform the subspace rotation
 perform sub-space diagonalisation
    after iterative eigenvector-optimisation
 modified Broyden-mixing scheme, WC =      100.0
 initial mixing is a Kerker type mixing with AMIX =  0.6000 and BMIX =      1.0000
 Hartree-type preconditioning will be used
 using additional bands          108
 real space projection scheme for non local part
 use partial core corrections
 calculate Harris-corrections to forces 
   (improved forces if not selfconsistent)
 use gradient corrections 
 use of overlap-Matrix (Vanderbilt PP)
 Gauss-broadening in eV      SIGMA  =   0.01


--------------------------------------------------------------------------------------------------------


  energy-cutoff  :      700.00
  volume of cell :     7323.89
      direct lattice vectors                 reciprocal lattice vectors
    19.581750870  0.000000000  0.000000000     0.051067956  0.000000000  0.000000000
     0.000000000 19.581748962  0.000000000     0.000000000  0.051067961  0.000000000
     0.000000000  0.000000000 19.100250244     0.000000000  0.000000000  0.052355335

  length of vectors
    19.581750870 19.581748962 19.100250244     0.051067956  0.051067961  0.052355335


 
 k-points in units of 2pi/SCALE and weight: Automatic KPOINTS generated             
   0.00000000  0.00000000  0.00000000       0.125
   0.02553398  0.00000000  0.00000000       0.125
   0.00000000  0.02553398  0.00000000       0.125
   0.02553398  0.02553398  0.00000000       0.125
   0.00000000  0.00000000  0.02617767       0.125
   0.02553398  0.00000000  0.02617767       0.125
   0.00000000  0.02553398  0.02617767       0.125
   0.02553398  0.02553398  0.02617767       0.125
 
 k-points in reciprocal lattice and weights: Automatic KPOINTS generated             
   0.00000000  0.00000000  0.00000000       0.125
   0.50000000  0.00000000  0.00000000       0.125
   0.00000000  0.50000000  0.00000000       0.125
   0.50000000  0.50000000  0.00000000       0.125
   0.00000000  0.00000000  0.50000000       0.125
   0.50000000  0.00000000  0.50000000       0.125
   0.00000000  0.50000000  0.50000000       0.125
   0.50000000  0.50000000  0.50000000       0.125
 
 position of ions in fractional coordinates (direct lattice) 
   0.99589300  0.99726200  0.00000000
   0.88050836  0.92033887  0.14217091
   0.76512373  0.84341574  0.28434190
   0.07281613  0.38187745  0.00000000
   0.95743144  0.30495429  0.14217091
   0.84204680  0.22803116  0.28434190
   0.22666228  0.15110818  0.00000000
   0.11127762  0.07418505  0.14217091
   0.99589294  0.99726194  0.28434190
   0.02195811  0.62948728  0.89005387
   0.03435453  0.68956971  0.14217091
   0.91896987  0.61264658  0.28434190
   0.30358541  0.53572357  0.00000000
   0.18820073  0.45880044  0.14217091
   0.07281607  0.38187730  0.28434190
   0.45743155  0.30495435  0.00000000
   0.34204686  0.22803120  0.14217091
   0.22666220  0.15110807  0.28434190
   0.61127770  0.07418510  0.00000000
   0.35529149  0.29615384  0.89005387
   0.38050836  0.92033881  0.28434190
   0.18862486  0.46282056  0.89005387
   0.26512384  0.84341592  0.14217091
   0.14973918  0.76649272  0.28434190
   0.53435463  0.68956971  0.00000000
   0.41896993  0.61264658  0.14217091
   0.30358526  0.53572345  0.28434190
   0.68820071  0.45880049  0.00000000
   0.57281607  0.38187736  0.14217091
   0.45743138  0.30495423  0.28434190
   0.84204692  0.22803119  0.00000000
   0.72666228  0.15110804  0.14217091
   0.61127758  0.07418491  0.28434190
   0.76512390  0.84341586  0.00000000
   0.60529155  0.37948719  0.80511779
   0.53435457  0.68956959  0.28434190
   0.91897005  0.61264664  0.00000000
   0.80358541  0.53572351  0.14217091
   0.68820071  0.45880038  0.28434190
   0.01512384  0.59341586  0.07108547
   0.89973921  0.51649272  0.21325642
   0.10529160  0.87948716  0.46537358
   0.16896996  0.36264667  0.07108547
   0.27195823  0.37948719  0.46537358
   0.18862486  0.12948719  0.55030960
   0.32281613  0.13187741  0.07108547
   0.20743145  0.05495427  0.21325642
   0.27195823  0.04615385  0.46537358
   0.09204689  0.97803128  0.07108547
   0.97666222  0.90110815  0.21325642
   0.86127752  0.82418501  0.35542738
   0.24589306  0.74726206  0.07108547
   0.13050841  0.67033893  0.21325642
   0.60529155  0.37948719  0.46537358
   0.39973927  0.51649284  0.07108547
   0.60529155  0.04615385  0.46537358
   0.43862486  0.87948716  0.46537358
   0.55358541  0.28572354  0.07108547
   0.43820071  0.20880039  0.21325642
   0.77195823  0.54615384  0.46537358
   0.70743155  0.05495430  0.07108547
   0.59204686  0.97803116  0.21325642
   0.47666219  0.90110803  0.35542738
   0.47666240  0.90110820  0.07108547
   0.36127770  0.82418507  0.21325642
   0.60529155  0.71282053  0.46537358
   0.63050854  0.67033899  0.07108547
   0.51512384  0.59341580  0.21325642
   0.39973915  0.51649267  0.35542738
   0.78435469  0.43956971  0.07108547
   0.66896999  0.36264655  0.21325642
   0.55358529  0.28572342  0.35542738
   0.93820083  0.20880049  0.07108547
   0.82281613  0.13187735  0.21325642
   0.70743144  0.05495421  0.35542738
   0.86127788  0.82418513  0.07108547
   0.74589318  0.74726200  0.21325642
   0.93862486  0.04615385  0.46537358
   0.35529149  0.62948728  0.89005387
   0.91896993  0.11264660  0.14217091
   0.80358523  0.03572347  0.28434190
   0.11127766  0.57418507  0.00000000
   0.99589300  0.49726200  0.14217091
   0.10529160  0.21282051  0.46537358
   0.85529149  0.12948719  0.89005387
   0.14973919  0.26649278  0.14217091
   0.27195823  0.71282053  0.46537358
   0.68862486  0.62948728  0.89005387
   0.52195823  0.12948719  0.89005387
   0.18820064  0.95880032  0.28434190
   0.43862486  0.87948716  0.80511779
   0.07281606  0.88187730  0.14217091
   0.68862486  0.62948728  0.55030960
   0.52195823  0.79615390  0.89005387
   0.22666223  0.65110815  0.14217091
   0.02195823  0.96282059  0.55030960
   0.85529149  0.46282056  0.89005387
   0.38050842  0.42033887  0.14217091
   0.26512373  0.34341574  0.28434190
   0.64973927  0.26649278  0.00000000
   0.85529149  0.79615390  0.89005387
   0.68862486  0.96282059  0.55030960
   0.80358541  0.03572357  0.00000000
   0.68820071  0.95880044  0.14217091
   0.57281607  0.88187730  0.28434190
   0.02195811  0.29615384  0.89005387
   0.45743144  0.80495429  0.14217091
   0.34204680  0.72803110  0.28434190
   0.72666234  0.65110815  0.00000000
   0.61127764  0.57418501  0.14217091
   0.49589294  0.49726185  0.28434190
   0.18862486  0.79615390  0.89005387
   0.76512384  0.34341586  0.14217091
   0.64973915  0.26649272  0.28434190
   0.95743161  0.80495429  0.00000000
   0.84204692  0.72803116  0.14217091
   0.72666228  0.65110803  0.28434190
   0.35529149  0.96282059  0.89005387
   0.01512377  0.09341583  0.21325642
   0.77195823  0.87948716  0.46537358
   0.05358534  0.78572363  0.07108547
   0.93820071  0.70880044  0.21325642
   0.82281601  0.63187730  0.35542738
   0.93862486  0.37948719  0.80511779
   0.09204687  0.47803125  0.21325642
   0.97666216  0.40110809  0.35542738
   0.27195823  0.71282053  0.80511779
   0.10529160  0.54615384  0.46537358
   0.93862486  0.71282053  0.46537358
   0.51512384  0.09341585  0.07108547
   0.35529152  0.62948728  0.55030960
   0.28435451  0.93956953  0.35542738
   0.52195823  0.46282056  0.89005387
   0.16896999  0.86264664  0.21325642
   0.05358529  0.78572351  0.35542738
   0.43820077  0.70880061  0.07108547
   0.32281607  0.63187742  0.21325642
   0.20743141  0.55495429  0.35542738
   0.59204698  0.47803128  0.07108547
   0.47666228  0.40110815  0.21325642
   0.36127761  0.32418501  0.35542738
   0.74589312  0.24726200  0.07108547
   0.63050842  0.17033887  0.21325642
   0.51512379  0.09341572  0.35542738
   0.89973927  0.01649279  0.07108547
   0.78435457  0.93956965  0.21325642
   0.66896993  0.86264652  0.35542738
   0.93862486  0.71282053  0.80511779
   0.55358541  0.78572363  0.21325642
   0.43820071  0.70880049  0.35542738
   0.82281625  0.63187742  0.07108547
   0.70743155  0.55495429  0.21325642
   0.59204680  0.47803113  0.35542738
   0.97666228  0.40110824  0.07108547
   0.86127758  0.32418507  0.21325642
   0.74589288  0.24726193  0.35542738
   0.03435449  0.18956965  0.28434190
   0.10529149  0.71282053  0.63524568
   0.66897011  0.86264676  0.07108547
   0.05358529  0.28572354  0.21325642
   0.10529149  0.37948719  0.63524568
   0.20743152  0.55495441  0.07108547
   0.09204677  0.97803116  0.35542738
   0.10529149  0.04615385  0.63524568
   0.93862486  0.04615385  0.80511779
   0.24589300  0.74726194  0.35542738
   0.43862483  0.71282053  0.63524568
   0.36127770  0.32418513  0.07108547
   0.01512372  0.59341580  0.35542738
   0.43862483  0.37948719  0.63524568
   0.27195823  0.37948719  0.80511779
   0.28435460  0.43956968  0.21325642
   0.43862483  0.04615385  0.63524568
   0.27195823  0.04615385  0.80511779
   0.13050833  0.17033885  0.35542738
   0.77195823  0.71282053  0.63524568
   0.60529155  0.71282053  0.80511779
   0.93862486  0.37948719  0.46537358
   0.77195823  0.37948719  0.63524568
   0.64973927  0.76649272  0.14217091
   0.63050842  0.67033881  0.35542738
   0.77195823  0.04615385  0.63524568
   0.60529155  0.04615385  0.80511779
   0.35529152  0.96282059  0.55030960
   0.18862486  0.96282059  0.72018170
   0.02195811  0.96282059  0.89005387
   0.39973921  0.01649272  0.21325642
   0.18862486  0.62948728  0.72018170
   0.14973922  0.76649284  0.00000000
   0.35529152  0.29615384  0.55030960
   0.18862486  0.29615384  0.72018170
   0.57281613  0.88187736  0.00000000
   0.41896993  0.11264652  0.28434190
   0.52195817  0.96282059  0.72018170
   0.13050844  0.17033896  0.07108547
   0.95743138  0.80495423  0.28434190
   0.52195817  0.62948728  0.72018170
   0.03435459  0.18956974  0.00000000
   0.68862486  0.29615384  0.55030960
   0.52195817  0.29615384  0.72018170
   0.49589300  0.99726194  0.14217091
   0.11127757  0.57418501  0.28434190
   0.85529160  0.96282059  0.72018170
   0.68862486  0.96282059  0.89005387
   0.02195823  0.62948728  0.55030960
   0.85529160  0.62948728  0.72018170
   0.41896999  0.11264660  0.00000000
   0.02195823  0.29615384  0.55030960
   0.85529160  0.29615384  0.72018170
   0.68862486  0.29615384  0.89005387
   0.16896993  0.36264655  0.35542738
   0.27195811  0.87948716  0.63524568
   0.10529149  0.87948716  0.80511779
   0.43862486  0.54615384  0.46537358
   0.27195811  0.54615384  0.63524568
   0.10529149  0.54615384  0.80511779
   0.43862486  0.21282051  0.46537358
   0.27195811  0.21282051  0.63524568
   0.10529149  0.21282051  0.80511779
   0.89973909  0.01649269  0.35542738
   0.60529149  0.87948716  0.63524568
   0.18820076  0.95880044  0.00000000
   0.32281604  0.13187726  0.35542738
   0.60529149  0.54615384  0.63524568
   0.43862486  0.54615384  0.80511779
   0.77195823  0.21282051  0.46537358
   0.60529149  0.21282051  0.63524568
   0.43862486  0.21282051  0.80511779
   0.78435451  0.43956962  0.35542738
   0.93862498  0.87948716  0.63524568
   0.77195829  0.87948716  0.80511779
   0.24589303  0.24726200  0.21325642
   0.93862498  0.54615384  0.63524568
   0.77195829  0.54615384  0.80511779
   0.88050830  0.42033884  0.28434190
   0.93862498  0.21282051  0.63524568
   0.77195829  0.21282051  0.80511779
   0.52195817  0.79615390  0.55030960
   0.35529152  0.79615390  0.72018170
   0.88050848  0.42033899  0.00000000
   0.52195817  0.46282056  0.55030960
   0.35529152  0.46282056  0.72018170
   0.38050851  0.92033905  0.00000000
   0.52195817  0.12948719  0.55030960
   0.35529152  0.12948719  0.72018170
   0.18862486  0.12948719  0.89005387
   0.85529160  0.79615390  0.55030960
   0.68862498  0.79615390  0.72018170
   0.34204692  0.72803128  0.00000000
   0.85529160  0.46282056  0.55030960
   0.68862498  0.46282056  0.72018170
   0.28435466  0.93956983  0.07108547
   0.85529160  0.12948719  0.55030960
   0.68862498  0.12948719  0.72018170
   0.30358532  0.03572347  0.14217091
   0.18862486  0.79615390  0.55030960
   0.02195811  0.79615390  0.72018170
   0.53435463  0.18956965  0.14217091
   0.18862486  0.46282056  0.55030960
   0.02195811  0.46282056  0.72018170
   0.49589309  0.49726200  0.00000000
   0.93820059  0.20880038  0.35542738
   0.02195811  0.12948719  0.72018170
   0.26512384  0.34341592  0.00000000
 
 position of ions in cartesian coordinates  (Angst):
  19.50132866 19.52813415  0.00000000
  17.24189540 18.02184469  2.71549988
  14.98246217 16.51555523  5.43100148
   1.42586724  7.47782840  0.00000000
  18.74818385  5.97153835  2.71549988
  16.48875060  4.46524889  5.43100148
   4.43844426  2.95896237  0.00000000
   2.17901059  1.45267305  2.71549988
  19.50132748 19.52813298  5.43100148
   0.42997830 12.32646181 17.00025161
   0.67272193 13.50298099  2.71549988
  17.99503905 11.99669153  5.43100148
   5.94473387 10.49040440  0.00000000
   3.68529975  8.98411494  2.71549988
   1.42586606  7.47782548  5.43100148
   8.95731075  5.97153953  0.00000000
   6.69787634  4.46524977  2.71549988
   4.43844281  2.95896031  5.43100148
  11.96988761  1.45267406  0.00000000
   6.95722937  5.79921021 17.00025161
   7.45101997 18.02184352  5.43100148
   3.69360500  9.06283602 17.00025161
   5.19158906 16.51555874  2.71549988
   2.93215524 15.00926810  5.43100148
  10.46359918 13.50298099  0.00000000
   8.20416477 11.99669153  2.71549988
   5.94473095 10.49040207  5.43100148
  13.47617489  8.98411612  0.00000000
  11.21674166  7.47782666  2.71549988
   8.95730724  5.97153720  5.43100148
  16.48875293  4.46524948  0.00000000
  14.22931969  2.95895973  2.71549988
  11.96988528  1.45267026  5.43100148
  14.98246567 16.51555756  0.00000000
  11.85266824  7.43102283 15.37795119
  10.46359803 13.50297864  5.43100148
  17.99504254 11.99669269  0.00000000
  15.73560930 10.49040323  2.71549988
  13.47617489  8.98411377  5.43100148
   0.29615121 11.62012032  1.35775036
  17.61846898 10.11383086  4.07325097
   2.06179398 17.22189672  8.88875176
   3.30872764  7.10125603  1.35775036
   5.32541835  7.43102283  8.88875176
   3.69360500  2.53558559 10.51105103
   6.32130509  2.58239028  1.35775036
   4.06187098  1.07610068  4.07325097
   5.32541835  0.90377305  8.88875176
   1.80243921 19.15156296  1.35775036
  19.12475626 17.64527350  4.07325097
  16.86532185 16.13898404  6.78875198
   4.81501666 14.63269809  1.35775036
   2.55558313 13.12640863  4.07325097
  11.85266824  7.43102283  8.88875176
   7.82759470 10.11383321  1.35775036
  11.85266824  0.90377305  8.88875176
   8.58904271 17.22189672  8.88875176
  10.84017158  5.59496657  1.35775036
   8.58073717  4.08867682  4.07325097
  15.11629378 10.69464745  8.88875176
  13.85274847  1.07610135  1.35775036
  11.59331406 19.15156061  4.07325097
   9.33388023 17.64527117  6.78875198
   9.33388431 17.64527466  1.35775036
   7.07444990 16.13898520  4.07325097
  11.85266824 13.95827267  8.88875176
  12.34646119 13.12640978  1.35775036
  10.08702678 11.62011917  4.07325097
   7.82759237 10.11382971  6.78875198
  15.35903807  8.60754375  1.35775036
  13.09960366  7.10125370  4.07325097
  10.84016925  5.59496424  6.78875198
  18.37161494  4.08867888  1.35775036
  16.11218053  2.58238912  4.07325097
  13.85274614  1.07609945  6.78875198
  16.86532884 16.13898637  1.35775036
  14.60589443 14.63269691  4.07325097
  18.37991815  0.90377305  8.88875176
   6.95722937 12.32646181 17.00025161
  17.99504021  2.20581748  2.71549988
  15.73560580  0.69952802  5.43100148
   2.17901145 11.24354796  0.00000000
  19.50132866  9.73725967  2.71549988
   2.06179398  4.16739790  8.88875176
  16.74810480  2.53558559 17.00025161
   2.93215553  5.21839480  2.71549988
   5.32541835 13.95827267  8.88875176
  13.48448043 12.32646181 17.00025161
  10.22085606  2.53558559 17.00025161
   3.68529801 18.77498709  5.43100148
   8.58904271 17.22189672 15.37795119
   1.42586593 17.26869996  2.71549988
  13.48448043 12.32646181 10.51105103
  10.22085606 15.59008586 17.00025161
   4.43844338 12.74983626  2.71549988
   0.42998063 18.85371109 10.51105103
  16.74810480  9.06283602 17.00025161
   7.45102114  8.23097021  2.71549988
   5.19158673  6.72468075  5.43100148
  12.72303242  5.21839480  0.00000000
  16.74810480 15.59008586 17.00025161
  13.48448043 18.85371109 10.51105103
[...]
      2.55558     13.12641      4.07325         0.532467      2.254892     -1.733411
     11.85267      7.43102      8.88875        -0.849385      0.325927     -1.229743
      7.82759     10.11383      1.35775        -2.213873      0.459354      0.908384
     11.85267      0.90377      8.88875         0.574461     -0.273874     -0.304565
      8.58904     17.22190      8.88875         0.209625     -0.515276      0.675534
     10.84017      5.59497      1.35775         0.502035      2.599397     -2.266195
      8.58074      4.08868      4.07325        -1.721921      2.631630      0.062768
     15.11629     10.69465      8.88875         0.393774      0.321304     -0.540120
     13.85275      1.07610      1.35775         0.147121      0.562694     -0.142349
     11.59331     19.15156      4.07325         2.226026     -0.376837      1.541059
      9.33388     17.64527      6.78875        -0.316911      0.260223     -0.162702
      9.33388     17.64527      1.35775        -0.388990     -2.148910      0.689689
      7.07445     16.13899      4.07325        -0.047867     -0.094523      0.072019
     11.85267     13.95827      8.88875         0.272519      0.398214      3.589397
     12.34646     13.12641      1.35775        -0.373768     -1.956581     -1.919593
     10.08703     11.62012      4.07325         0.092289      0.030640     -0.008333
      7.82759     10.11383      6.78875        -0.707940     -0.889695     -2.742756
     15.35904      8.60754      1.35775        -2.338259      0.542700      1.544421
     13.09960      7.10125      4.07325         0.005145      0.027009     -0.065348
     10.84017      5.59496      6.78875        -0.246261      0.304597      1.351445
     18.37161      4.08868      1.35775        -2.344782      0.426730      1.275397
     16.11218      2.58239      4.07325        -0.088527      0.035502     -0.127897
     13.85275      1.07610      6.78875        -1.245307     -0.089785      0.835732
     16.86533     16.13899      1.35775         0.081717      0.175990     -0.083838
     14.60589     14.63270      4.07325         2.225628     -0.412974      1.589543
     18.37992      0.90377      8.88875         1.155096      0.815468      3.556148
      6.95723     12.32646     17.00025        -1.220585      0.429359      0.420032
     17.99504      2.20582      2.71550        -0.002661     -0.001480      0.040070
     15.73561      0.69953      5.43100        -2.130371      0.623579     -0.967124
      2.17901     11.24355      0.00000        -3.004782      0.520472     -2.363208
     19.50133      9.73726      2.71550        -0.047940      0.087625      0.020886
      2.06179      4.16740      8.88875         0.306107      0.407309      3.672108
     16.74810      2.53559     17.00025        -0.855782      0.309501      1.228531
      2.93216      5.21839      2.71550         0.480966      2.286646     -1.467458
      5.32542     13.95827      8.88875         0.737382     -1.205412      4.468742
     13.48448     12.32646     17.00025         0.226970     -0.521052     -0.656074
     10.22086      2.53559     17.00025        -0.004435     -0.117346      0.330514
      3.68530     18.77499      5.43100         2.397686     -0.454053     -1.360079
      8.58904     17.22190     15.37795        -0.161969      0.262702      0.771001
      1.42587     17.26870      2.71550        -0.081598      0.081074      0.098317
     13.48448     12.32646     10.51105        -0.187850      0.280575     -0.767537
     10.22086     15.59009     17.00025         0.221158     -0.094136      0.331115
      4.43844     12.74984      2.71550         0.466141      2.293317      1.763598
      0.42998     18.85371     10.51105        -0.044640     -0.340664     -0.815665
     16.74810      9.06284     17.00025         0.264031      0.402141     -3.598067
      7.45102      8.23097      2.71550         2.810756      1.750997      0.133179
      5.19159      6.72468      5.43100         2.315202     -0.717735      1.597491
     12.72303      5.21839      0.00000        -0.706473     -0.886148      2.738801
     16.74810     15.59009     17.00025         0.543642     -0.273404      0.320263
     13.48448     18.85371     10.51105        -0.010979     -0.007102     -0.580971
     15.73561      0.69953      0.00000        -0.258534      0.337826     -1.345792
     13.47617     18.77499      2.71550         0.576711      2.246770      1.584553
     11.21674     17.26870      5.43100         0.027627     -0.250077      0.603096
      0.42998      5.79921     17.00025         0.378426      0.304281      0.553378
      8.95731     15.76241      2.71550        -0.051780     -0.077815      0.088447
      6.69788     14.25612      5.43100         2.351594     -0.620019     -1.516672
     14.22932     12.74984      0.00000        -0.324641      0.246425      0.173388
     11.96989     11.24355      2.71550        -0.057226     -0.077237     -0.076033
      9.71045      9.73726      5.43100        -0.114940     -0.369028      0.366739
      3.69360     15.59009     17.00025         1.163088      0.811746     -3.559333
     14.98246      6.72468      2.71550         0.061975      0.000902     -0.008688
     12.72303      5.21839      5.43100        -0.130310     -0.097902      0.530462
     18.74819     15.76241      0.00000        -1.242196     -0.070231     -0.834533
     16.48875     14.25612      2.71550        -0.078041      0.038010      0.046537
     14.22932     12.74983      5.43100         2.315937     -0.452233     -0.917855
      6.95723     18.85371     17.00025         0.319837      0.409989     -3.666820
      0.29615      1.82925      4.07325        -0.405568     -2.264455     -1.623477
     15.11629     17.22190      8.88875        -0.571565      0.214256     -0.323578
      1.04929     15.38584      1.35775        -2.146641      0.631435      0.961316
     18.37161     13.87955      4.07325        -0.454736     -2.203972     -1.570107
     16.11218     12.37326      6.78875         0.058687     -0.240541      1.321093
     18.37992      7.43102     15.37795        -0.188617      0.297423      0.763437
      1.80244      9.36069      4.07325        -0.578362     -2.167321     -1.686420
     19.12476      7.85440      6.78875         3.150043      0.504762     -1.867430
      5.32542     13.95827     15.37795        -0.054965     -0.343526      0.830947
      2.06179     10.69465      8.88875         0.409713      0.086252     -0.176671
     18.37992     13.95827      8.88875        -0.035506     -0.017004     -0.512365
     10.08703      1.82925      1.35775         2.304602     -0.735838     -1.617139
      6.95723     12.32646     10.51105        -0.277919      0.182063     -0.495985
      5.56816     18.39841      6.78875        -0.594972      0.268479      0.931790
     10.22086      9.06284     17.00025         0.712209     -1.196462     -4.490310
      3.30873     16.89213      4.07325         0.016001     -0.012598     -0.059579
      1.04929     15.38584      6.78875         2.061511     -0.191349      2.957674
      8.58074     13.87956      1.35775         2.400785     -0.459960      1.376508
      6.32130     12.37327      4.07325         0.008363      0.095406     -0.039182
      4.06187     10.86698      6.78875         1.162871     -0.631017      2.460264
     11.59332      9.36069      1.35775         2.322584     -0.625924      1.543095
      9.33388      7.85440      4.07325         0.015165      0.032639     -0.104683
      7.07445      6.34811      6.78875        -0.583233      0.080167      0.723431
     14.60589      4.84182      1.35775        -0.131645     -0.376887     -0.348898
     12.34646      3.33553      4.07325         2.352205     -0.542239      1.570207
     10.08703      1.82924      6.78875         3.124602     -0.569422      2.256619
     17.61847      0.32296      1.35775        -0.176527     -0.096968     -0.530999
     15.35904     18.39842      4.07325         0.055486     -0.040016     -0.053544
     13.09960     16.89213      6.78875         1.159052      0.099535      0.973696
     18.37992     13.95827     15.37795        -0.017756     -0.019293      0.580062
     10.84017     15.38584      4.07325        -2.260434      0.408983      1.557483
      8.58074     13.87955      6.78875         0.041038     -0.024323      0.749597
     16.11218     12.37327      1.35775         0.014217     -0.234861     -0.561796
     13.85275     10.86698      4.07325        -0.031131      0.005283     -0.076034
     11.59331      9.36069      6.78875         0.666194     -0.331698      0.919334
     19.12476      7.85440      1.35775         2.220970     -0.448512      0.908266
     16.86532      6.34811      4.07325        -0.576202     -2.257413     -1.666204
     14.60589      4.84182      6.78875        -0.215429      1.214800     -3.671554
      0.67272      3.71211      5.43100        -0.638335     -2.948301     -1.946702
      2.06179     13.95827     12.13335        -0.133696      0.062138      0.133999
     13.09961     16.89213      1.35775         3.546499      1.983619     -0.290491
      1.04929      5.59497      4.07325         0.493581      3.081048     -2.347431
      2.06179      7.43102     12.13335         0.076951     -0.056771      0.116997
      4.06187     10.86698      1.35775         0.043098      0.452148     -0.315145
      1.80244     19.15156      6.78875         0.682389     -0.143134      3.701584
      2.06179      0.90377     12.13335         0.027022      0.056531     -1.244803
     18.37992      0.90377     15.37795        -0.468620      0.379422      0.529999
      4.81502     14.63270      6.78875        -0.318198      1.078972     -0.340678
      8.58904     13.95827     12.13335        -0.618556     -0.617083     -0.619133
      7.07445      6.34811      1.35775         3.290783     -0.410114      2.114962
      0.29615     11.62012      6.78875        -2.654371      0.613948      5.590441
      8.58904      7.43102     12.13335        -0.086806      0.132344      0.127087
      5.32542      7.43102     15.37795         0.102941      0.146097      0.865290
      5.56816      8.60754      4.07325         0.137544     -0.005885      0.110921
      8.58904      0.90377     12.13335         0.107651     -0.078828      0.082427
      5.32542      0.90377     15.37795         0.464020     -0.365116      0.676680
      2.55558      3.33553      6.78875         3.168417     -1.855203      2.703948
     15.11629     13.95827     12.13335        -0.511606     -0.664906     -0.482439
     11.85267     13.95827     15.37795        -0.006701      0.327394      1.269167
     18.37992      7.43102      8.88875        -0.790513     -1.128693      2.808857
     15.11629      7.43102     12.13335        -0.040912     -0.025525     -0.000737
     12.72303     15.00927      2.71550        -0.512653     -3.073830      2.286576
     12.34646     13.12641      6.78875         0.165599     -1.036512      0.489321
     15.11629      0.90377     12.13335        -0.709643     -0.614781     -0.522554
     11.85267      0.90377     15.37795        -0.711007      0.505653      0.368591
      6.95723     18.85371     10.51105         0.002350      0.320866     -1.267273
      3.69360     18.85371     13.75565         0.065231     -0.019432     -0.005759
      0.42998     18.85371     17.00025         0.550563     -0.988386     -2.898700
      7.82759      0.32296      4.07325        -0.484660     -3.029024      2.095236
      3.69360     12.32646     13.75565         0.525759      0.751391      0.480623
      2.93216     15.00927      0.00000        -0.947066     -0.859089     -0.547372
      6.95723      5.79921     10.51105        -0.677530      0.516871     -0.368620
      3.69360      5.79921     13.75565         0.086558     -0.097267     -0.089130
     11.21674     17.26870      0.00000        -2.812290      0.441850     -6.246078
      8.20416      2.20582      5.43100         3.529414      1.977744      0.473271
     10.22085     18.85371     13.75565        -0.507158     -0.672744      0.470268
      2.55558      3.33553      1.35775         3.087759     -0.336871      1.690044
     18.74818     15.76241      5.43100         0.112010      0.451118      0.255257
     10.22085     12.32646     13.75565        -0.031869     -0.045795      0.024939
      0.67272      3.71211      0.00000        -3.741085      0.893538     -5.928979
     13.48448      5.79921     10.51105        -0.459230      0.356209     -0.534136
     10.22085      5.79921     13.75565         0.480493      0.677681      0.525792
      9.71045     19.52813      2.71550         3.122965     -0.656757     -2.006912
      2.17901     11.24355      5.43100         3.211558     -0.417954     -2.217674
     16.74811     18.85371     13.75565        -0.109150      0.097329     -0.138357
     13.48448     18.85371     17.00025         0.059722      0.108116      1.409986
      0.42998     12.32646     10.51105         0.136295      0.141751     -0.876948
     16.74811     12.32646     13.75565         0.707779      0.587744      0.500054
      8.20417      2.20582      0.00000         0.837978      0.193010     -3.951187
      0.42998      5.79921     10.51105         0.457613     -0.386395     -0.670138
     16.74811      5.79921     13.75565         0.639638      0.626718      0.627008
     13.48448      5.79921     17.00025         0.138795      1.738667     -2.539785
      3.30873      7.10125      6.78875         0.838280      0.193246      3.936136
      5.32542     17.22190     12.13335        -0.044236     -0.044323     -0.023309
      2.06179     17.22190     15.37795         0.616833     -0.810935      0.806401
      8.58904     10.69465      8.88875         0.145642      1.745915      2.547612
      5.32542     10.69465     12.13335         0.500815      0.676578     -0.503890
      2.06179     10.69465     15.37795        -0.074799     -0.150138      0.965894
      8.58904      4.16740      8.88875         0.072409      0.084454     -1.414385
      5.32542      4.16740     12.13335        -0.539127     -0.685011     -0.477727
      2.06179      4.16740     15.37795        -0.534719      0.861887      0.616938
     17.61847      0.32296      6.78875        -0.959311     -0.862472      0.542928
     11.85267     17.22190     12.13335         0.692008      0.587658     -0.499777
      3.68530     18.77499      0.00000        -3.160465      0.599012     -6.010394
      6.32130      2.58239      6.78875        -2.798659      0.458683      6.253246
     11.85267     10.69465     12.13335         0.624658      0.616376     -0.632398
      8.58904     10.69465     15.37795         0.219973     -0.275238      1.132043
     15.11629      4.16740      8.88875         0.532784     -0.986170      2.917494
     11.85267      4.16740     12.13335        -0.086491      0.092234      0.124479
      8.58904      4.16740     15.37795         0.014854     -0.029323      0.990871
     15.35903      8.60754      6.78875        -3.733972      0.887049      5.905268
     18.37992     17.22190     12.13335         0.513274      0.700210     -0.484593
     15.11629     17.22190     15.37795         0.712617     -0.497739      0.362389
      4.81502      4.84182      4.07325         0.048340      0.038817     -0.088253
     18.37992     10.69465     12.13335         0.117348     -0.104821      0.108264
     15.11629     10.69465     15.37795        -0.095423      0.218056      1.377270
     17.24189      8.23097      5.43100         3.097885     -0.323220     -1.798380
     18.37992      4.16740     12.13335         0.048769     -0.016008     -0.027319
     15.11629      4.16740     15.37795         0.559193     -0.809783      0.660658
     10.22085     15.59009     10.51105        -0.112568      0.214300     -1.375604
      6.95723     15.59009     13.75565         0.009513      0.036558      1.231023
     17.24190      8.23097      0.00000         0.156763     -1.045035     -0.502848
     10.22085      9.06284     10.51105         0.563525     -0.805538     -0.669930
      6.95723      9.06284     13.75565        -0.098701      0.065801     -0.120679
      7.45102     18.02185      0.00000         3.190932     -1.834488     -2.709730
     10.22085      2.53559     10.51105         0.701210     -0.489800     -0.360412
      6.95723      2.53559     13.75565         0.094395     -0.060650     -0.128361
      3.69360      2.53559     17.00025        -0.807996     -1.114666     -2.831698
     16.74811     15.59009     10.51105        -0.075068     -0.114816     -0.980171
     13.48448     15.59009     13.75565         0.096634     -0.115062     -0.112898
      6.69788     14.25613      0.00000         0.674488     -0.166994     -3.698244
     16.74811      9.06284     10.51105        -0.551752      0.874849     -0.605487
     13.48448      9.06284     13.75565        -0.588596     -0.597858      0.622271
      5.56816     18.39842      1.35775        -0.725663     -2.943902      1.870669
     16.74811      2.53559     10.51105         0.617728     -0.785637     -0.785771
     13.48448      2.53559     13.75565        -0.104119      0.080277     -0.110361
      5.94473      0.69953      2.71550        -2.552850      3.573677      0.192882
      3.69360     15.59009     10.51105         0.215727     -0.268429     -1.124200
      0.42998     15.59009     13.75565        -0.679967     -0.595228      0.501515
     10.46360      3.71211      2.71550         0.173463      0.045256     -0.039502
      3.69360      9.06284     10.51105         0.007433     -0.049070     -0.988439
      0.42998      9.06284     13.75565        -0.506495     -0.657200      0.486756
      9.71045      9.73726      0.00000        -0.326210      1.066173      0.341598
     18.37161      4.08868      6.78875        -3.170043      0.571929      6.015939
      0.42998      2.53559     13.75565        -0.064867     -0.032669      0.011232
      5.19159      6.72468      0.00000        -2.688366      0.605258     -5.603402
 -----------------------------------------------------------------------------------
    total drift:                                0.197813      0.025904     -0.156334


--------------------------------------------------------------------------------------------------------



  FREE ENERGIE OF THE ION-ELECTRON SYSTEM (eV)
  ---------------------------------------------------
  free  energy   TOTEN  =     -1094.27420164 eV

  energy  without entropy=    -1094.26888079  energy(sigma->0) =    -1094.27154121
 


--------------------------------------------------------------------------------------------------------


    POTLOK:  cpu time      3.2354: real time      3.2535


--------------------------------------------------------------------------------------------------------


     LOOP+:  cpu time   6713.0814: real time   6773.2184
    4ORBIT:  cpu time      0.0000: real time      0.0000

 total amount of memory used by VASP MPI-rank0   919283. kBytes
=======================================================================

   base      :      30000. kBytes
   nonlr-proj:      26033. kBytes
   fftplans  :      41700. kBytes
   grid      :      31129. kBytes
   one-center:        275. kBytes
   wavefun   :     790146. kBytes
 
  
  
 General timing and accounting informations for this job:
 ========================================================
  
                  Total CPU time used (sec):     7041.259
                            User time (sec):     6723.574
                          System time (sec):      317.685
                         Elapsed time (sec):     7112.366
  
                   Maximum memory used (kb):     1223792.
                   Average memory used (kb):          N/A
  
                          Minor page faults:      1251577
                          Major page faults:         1259
                 Voluntary context switches:         3974
