  96  96   0   0
  0.2243693E+02  0.1265123E-08  0.1265123E-08  0.1373516E-08  0.5000000E-15
  1.000000000000000E-004
  CAR 
 Si and Ge interface calculation         
      6.69372571    -11.43917371  301      3.67311642      1.00000000
    -11.439  0.0000E+00  0.0000E+00  0.0000E+00  0.0000E+00
    -11.379  0.0000E+00  0.0000E+00  0.0000E+00  0.0000E+00
    -11.318  0.0000E+00  0.0000E+00  0.0000E+00  0.0000E+00
    -11.258  0.0000E+00  0.0000E+00  0.0000E+00  0.0000E+00
    -11.197  0.0000E+00  0.0000E+00  0.0000E+00  0.0000E+00
    -11.137  0.0000E+00  0.0000E+00  0.0000E+00  0.0000E+00
    -11.077  0.0000E+00  0.0000E+00  0.0000E+00  0.0000E+00
    -11.016  0.0000E+00  0.0000E+00  0.0000E+00  0.0000E+00
    -10.956  0.0000E+00  0.0000E+00  0.0000E+00  0.0000E+00
    -10.895  0.0000E+00  0.0000E+00  0.0000E+00  0.0000E+00
    -10.835  0.0000E+00  0.0000E+00  0.0000E+00  0.0000E+00
    -10.774  0.0000E+00  0.0000E+00  0.0000E+00  0.0000E+00
    -10.714  0.0000E+00  0.0000E+00  0.0000E+00  0.0000E+00
    -10.653  0.7726E-07  0.3970E-10  0.4670E-08  0.2399E-11
    -10.593  0.3254E+02  0.2769E+02  0.1967E+01  0.1673E+01
    -10.533  0.5470E+00  0.5403E+01  0.2000E+01  0.2000E+01
    -10.472  0.0000E+00  0.0000E+00  0.2000E+01  0.2000E+01
    -10.412  0.0000E+00  0.0000E+00  0.2000E+01  0.2000E+01
    -10.351  0.0000E+00  0.0000E+00  0.2000E+01  0.2000E+01
    -10.291  0.0000E+00  0.0000E+00  0.2000E+01  0.2000E+01
    -10.230  0.0000E+00  0.0000E+00  0.2000E+01  0.2000E+01
    -10.170  0.2117E+01  0.1716E+00  0.2128E+01  0.2010E+01
    -10.109  0.1915E+02  0.1274E+02  0.3286E+01  0.2781E+01
    -10.049  0.1182E+02  0.2018E+02  0.4000E+01  0.4000E+01
     -9.989  0.1848E+02  0.1071E+02  0.5117E+01  0.4647E+01
     -9.928  0.2087E+02  0.1923E+02  0.6378E+01  0.5810E+01
     -9.868  0.1579E+02  0.2520E+02  0.7333E+01  0.7333E+01
     -9.807  0.0000E+00  0.0000E+00  0.7333E+01  0.7333E+01
     -9.747  0.1410E-04  0.8010E-08  0.7333E+01  0.7333E+01
     -9.686  0.7945E+01  0.4373E+01  0.7814E+01  0.7598E+01
     -9.626  0.2514E+02  0.2847E+02  0.9333E+01  0.9318E+01
     -9.565  0.0000E+00  0.2461E+00  0.9333E+01  0.9333E+01
     -9.505  0.5388E-03  0.2890E-05  0.9333E+01  0.9333E+01
     -9.445  0.2206E+02  0.2198E+02  0.1067E+02  0.1066E+02
     -9.384  0.6163E-07  0.6919E-01  0.1067E+02  0.1067E+02
     -9.324  0.2100E+02  0.1321E+02  0.1194E+02  0.1147E+02
     -9.263  0.1059E+01  0.8847E+01  0.1200E+02  0.1200E+02
     -9.203  0.0000E+00  0.0000E+00  0.1200E+02  0.1200E+02
     -9.142  0.1091E-10  0.1633E-14  0.1200E+02  0.1200E+02
     -9.082  0.1626E+02  0.7739E+01  0.1298E+02  0.1247E+02
     -9.021  0.5807E+01  0.1432E+02  0.1333E+02  0.1333E+02
     -8.961  0.2205E+02  0.2204E+02  0.1467E+02  0.1467E+02
     -8.901  0.0000E+00  0.0000E+00  0.1467E+02  0.1467E+02
     -8.840  0.1517E+01  0.7403E-01  0.1476E+02  0.1467E+02
     -8.780  0.1317E+02  0.1210E+02  0.1555E+02  0.1540E+02
     -8.719  0.7372E+01  0.9888E+01  0.1600E+02  0.1600E+02
     -8.659  0.1494E+02  0.1337E+02  0.1690E+02  0.1681E+02
     -8.598  0.1828E+02  0.1971E+02  0.1801E+02  0.1800E+02
     -8.538  0.5422E+01  0.5523E+01  0.1834E+02  0.1833E+02
     -8.477  0.4904E+01  0.4182E+01  0.1863E+02  0.1859E+02
     -8.417  0.5858E+01  0.4590E+01  0.1899E+02  0.1886E+02
     -8.357  0.2417E+02  0.2425E+02  0.2045E+02  0.2033E+02
     -8.296  0.2325E+01  0.3776E+01  0.2059E+02  0.2056E+02
     -8.236  0.2239E+02  0.1886E+02  0.2194E+02  0.2170E+02
     -8.175  0.2688E+02  0.3018E+02  0.2357E+02  0.2352E+02
     -8.115  0.1086E+02  0.1143E+02  0.2422E+02  0.2421E+02
     -8.054  0.1899E+02  0.1771E+02  0.2537E+02  0.2528E+02
     -7.994  0.2525E+02  0.2195E+02  0.2690E+02  0.2661E+02
     -7.933  0.3340E+02  0.3585E+02  0.2892E+02  0.2878E+02
     -7.873  0.8468E+01  0.9517E+01  0.2943E+02  0.2935E+02
     -7.813  0.1732E+02  0.1517E+02  0.3047E+02  0.3027E+02
     -7.752  0.2037E+02  0.1983E+02  0.3171E+02  0.3147E+02
     -7.692  0.2033E+02  0.2165E+02  0.3293E+02  0.3278E+02
     -7.631  0.1964E+02  0.1996E+02  0.3412E+02  0.3398E+02
     -7.571  0.8558E+01  0.8608E+01  0.3464E+02  0.3450E+02
     -7.510  0.3742E+02  0.3564E+02  0.3690E+02  0.3666E+02
     -7.450  0.2304E+02  0.2511E+02  0.3829E+02  0.3818E+02
     -7.389  0.5261E+01  0.6466E+01  0.3861E+02  0.3857E+02
     -7.329  0.1632E+02  0.1287E+02  0.3960E+02  0.3935E+02
     -7.269  0.2703E+02  0.2759E+02  0.4123E+02  0.4101E+02
     -7.208  0.2991E+02  0.2820E+02  0.4304E+02  0.4272E+02
     -7.148  0.3609E+02  0.3635E+02  0.4522E+02  0.4491E+02
     -7.087  0.2439E+02  0.2627E+02  0.4670E+02  0.4650E+02
     -7.027  0.1976E+02  0.1976E+02  0.4789E+02  0.4770E+02
     -6.966  0.2627E+02  0.2827E+02  0.4948E+02  0.4941E+02
     -6.906  0.3196E+02  0.2818E+02  0.5141E+02  0.5111E+02
     -6.846  0.1703E+02  0.1880E+02  0.5244E+02  0.5225E+02
     -6.785  0.3459E+02  0.3021E+02  0.5453E+02  0.5407E+02
     -6.725  0.2849E+02  0.3052E+02  0.5626E+02  0.5592E+02
     -6.664  0.3305E+02  0.3125E+02  0.5825E+02  0.5781E+02
     -6.604  0.2605E+02  0.3140E+02  0.5983E+02  0.5970E+02
     -6.543  0.2591E+02  0.2461E+02  0.6139E+02  0.6119E+02
     -6.483  0.2306E+02  0.2113E+02  0.6279E+02  0.6247E+02
     -6.422  0.2725E+02  0.2840E+02  0.6444E+02  0.6419E+02
     -6.362  0.2406E+02  0.2391E+02  0.6589E+02  0.6563E+02
     -6.302  0.3187E+02  0.3123E+02  0.6782E+02  0.6752E+02
     -6.241  0.3167E+02  0.3163E+02  0.6973E+02  0.6943E+02
     -6.181  0.2952E+02  0.2969E+02  0.7152E+02  0.7123E+02
     -6.120  0.2980E+02  0.2798E+02  0.7332E+02  0.7292E+02
     -6.060  0.3348E+02  0.3317E+02  0.7534E+02  0.7492E+02
     -5.999  0.3085E+02  0.3394E+02  0.7721E+02  0.7697E+02
     -5.939  0.3931E+02  0.3671E+02  0.7958E+02  0.7919E+02
     -5.878  0.1817E+02  0.2288E+02  0.8068E+02  0.8058E+02
     -5.818  0.1987E+02  0.1900E+02  0.8188E+02  0.8172E+02
     -5.758  0.2077E+02  0.1970E+02  0.8314E+02  0.8291E+02
     -5.697  0.2247E+02  0.2320E+02  0.8450E+02  0.8432E+02
     -5.637  0.3495E+02  0.3391E+02  0.8661E+02  0.8637E+02
     -5.576  0.1439E+02  0.1566E+02  0.8748E+02  0.8731E+02
     -5.516  0.2827E+02  0.2735E+02  0.8919E+02  0.8897E+02
     -5.455  0.2752E+02  0.2704E+02  0.9085E+02  0.9060E+02
     -5.395  0.1781E+02  0.1938E+02  0.9193E+02  0.9177E+02
     -5.334  0.1953E+02  0.1692E+02  0.9311E+02  0.9280E+02
     -5.274  0.2857E+02  0.3069E+02  0.9484E+02  0.9465E+02
     -5.214  0.2604E+02  0.2588E+02  0.9641E+02  0.9622E+02
     -5.153  0.2578E+02  0.2564E+02  0.9797E+02  0.9776E+02
     -5.093  0.2851E+02  0.2772E+02  0.9969E+02  0.9944E+02
     -5.032  0.1984E+02  0.2280E+02  0.1009E+03  0.1008E+03
     -4.972  0.2028E+02  0.1731E+02  0.1021E+03  0.1019E+03
     -4.911  0.1507E+02  0.1880E+02  0.1030E+03  0.1030E+03
     -4.851  0.2135E+02  0.1546E+02  0.1043E+03  0.1039E+03
     -4.790  0.1819E+02  0.2092E+02  0.1054E+03  0.1052E+03
     -4.730  0.1888E+02  0.2215E+02  0.1066E+03  0.1065E+03
     -4.670  0.2938E+02  0.2698E+02  0.1083E+03  0.1082E+03
     -4.609  0.2356E+02  0.1980E+02  0.1098E+03  0.1094E+03
     -4.549  0.4088E+02  0.4171E+02  0.1122E+03  0.1119E+03
     -4.488  0.2236E+02  0.2437E+02  0.1136E+03  0.1134E+03
     -4.428  0.2158E+02  0.2214E+02  0.1149E+03  0.1147E+03
     -4.367  0.2801E+02  0.2796E+02  0.1166E+03  0.1164E+03
     -4.307  0.3045E+02  0.2914E+02  0.1184E+03  0.1182E+03
     -4.246  0.1546E+02  0.1526E+02  0.1194E+03  0.1191E+03
     -4.186  0.1977E+02  0.2070E+02  0.1206E+03  0.1203E+03
     -4.126  0.2142E+02  0.2248E+02  0.1218E+03  0.1217E+03
     -4.065  0.2236E+02  0.2284E+02  0.1232E+03  0.1231E+03
     -4.005  0.3459E+02  0.3154E+02  0.1253E+03  0.1250E+03
     -3.944  0.1969E+02  0.2141E+02  0.1265E+03  0.1263E+03
     -3.884  0.1712E+02  0.1902E+02  0.1275E+03  0.1274E+03
     -3.823  0.1656E+02  0.1365E+02  0.1285E+03  0.1282E+03
     -3.763  0.2770E+02  0.2724E+02  0.1302E+03  0.1299E+03
     -3.702  0.2071E+02  0.2063E+02  0.1314E+03  0.1311E+03
     -3.642  0.3524E+02  0.3754E+02  0.1336E+03  0.1334E+03
     -3.582  0.1739E+02  0.1465E+02  0.1346E+03  0.1343E+03
     -3.521  0.2401E+02  0.2648E+02  0.1361E+03  0.1359E+03
     -3.461  0.2711E+02  0.2604E+02  0.1377E+03  0.1375E+03
     -3.400  0.2553E+02  0.2550E+02  0.1393E+03  0.1390E+03
     -3.340  0.2663E+02  0.2545E+02  0.1409E+03  0.1405E+03
     -3.279  0.2669E+02  0.2552E+02  0.1425E+03  0.1421E+03
     -3.219  0.2969E+02  0.3312E+02  0.1443E+03  0.1441E+03
     -3.158  0.2802E+02  0.2551E+02  0.1460E+03  0.1456E+03
     -3.098  0.2543E+02  0.2739E+02  0.1475E+03  0.1473E+03
     -3.038  0.2815E+02  0.2500E+02  0.1492E+03  0.1488E+03
     -2.977  0.2499E+02  0.2791E+02  0.1507E+03  0.1505E+03
     -2.917  0.3051E+02  0.2953E+02  0.1526E+03  0.1523E+03
     -2.856  0.2479E+02  0.2622E+02  0.1541E+03  0.1539E+03
     -2.796  0.2911E+02  0.2906E+02  0.1558E+03  0.1556E+03
     -2.735  0.2698E+02  0.2880E+02  0.1574E+03  0.1574E+03
     -2.675  0.2438E+02  0.2445E+02  0.1589E+03  0.1588E+03
     -2.614  0.1956E+02  0.1725E+02  0.1601E+03  0.1599E+03
     -2.554  0.2648E+02  0.2816E+02  0.1617E+03  0.1616E+03
     -2.494  0.1342E+02  0.1449E+02  0.1625E+03  0.1625E+03
     -2.433  0.3136E+02  0.2765E+02  0.1644E+03  0.1641E+03
     -2.373  0.3490E+02  0.3273E+02  0.1665E+03  0.1661E+03
     -2.312  0.3015E+02  0.3138E+02  0.1683E+03  0.1680E+03
     -2.252  0.1226E+02  0.1421E+02  0.1691E+03  0.1689E+03
     -2.191  0.2551E+02  0.2337E+02  0.1706E+03  0.1703E+03
     -2.131  0.2406E+02  0.2588E+02  0.1721E+03  0.1718E+03
     -2.071  0.2106E+02  0.2242E+02  0.1734E+03  0.1732E+03
     -2.010  0.1671E+02  0.1625E+02  0.1744E+03  0.1742E+03
     -1.950  0.2222E+02  0.2306E+02  0.1757E+03  0.1756E+03
     -1.889  0.2435E+02  0.2274E+02  0.1772E+03  0.1769E+03
     -1.829  0.2382E+02  0.2470E+02  0.1786E+03  0.1784E+03
     -1.768  0.2079E+02  0.2090E+02  0.1799E+03  0.1797E+03
     -1.708  0.2683E+02  0.2707E+02  0.1815E+03  0.1813E+03
     -1.647  0.1620E+02  0.1539E+02  0.1825E+03  0.1823E+03
     -1.587  0.1338E+02  0.1377E+02  0.1833E+03  0.1831E+03
     -1.527  0.1004E+02  0.1316E+02  0.1839E+03  0.1839E+03
     -1.466  0.2321E+02  0.1911E+02  0.1853E+03  0.1850E+03
     -1.406  0.3788E+01  0.7008E+01  0.1855E+03  0.1855E+03
     -1.345  0.2161E+02  0.1976E+02  0.1868E+03  0.1867E+03
     -1.285  0.2440E+02  0.2557E+02  0.1883E+03  0.1882E+03
     -1.224  0.8377E+01  0.7986E+01  0.1888E+03  0.1887E+03
     -1.164  0.1990E+02  0.1724E+02  0.1900E+03  0.1897E+03
     -1.103  0.1881E+02  0.1875E+02  0.1912E+03  0.1909E+03
     -1.043  0.1946E+02  0.2342E+02  0.1923E+03  0.1923E+03
     -0.983  0.1242E+02  0.1038E+02  0.1931E+03  0.1929E+03
     -0.922  0.3391E+02  0.3273E+02  0.1951E+03  0.1949E+03
     -0.862  0.1957E+02  0.2015E+02  0.1963E+03  0.1961E+03
     -0.801  0.3602E+02  0.2946E+02  0.1985E+03  0.1979E+03
     -0.741  0.3592E+02  0.3848E+02  0.2007E+03  0.2002E+03
     -0.680  0.4903E+02  0.5094E+02  0.2036E+03  0.2033E+03
     -0.620  0.2956E+02  0.2819E+02  0.2054E+03  0.2050E+03
     -0.559  0.3895E+02  0.3942E+02  0.2078E+03  0.2074E+03
     -0.499  0.4758E+02  0.4844E+02  0.2106E+03  0.2103E+03
     -0.439  0.3510E+02  0.3630E+02  0.2128E+03  0.2125E+03
     -0.378  0.3548E+02  0.3727E+02  0.2149E+03  0.2148E+03
     -0.318  0.3031E+02  0.2390E+02  0.2167E+03  0.2162E+03
     -0.257  0.4653E+02  0.4861E+02  0.2196E+03  0.2191E+03
     -0.197  0.4731E+02  0.4666E+02  0.2224E+03  0.2220E+03
     -0.136  0.3870E+02  0.3941E+02  0.2248E+03  0.2243E+03
     -0.076  0.4669E+02  0.4549E+02  0.2276E+03  0.2271E+03
     -0.015  0.3759E+02  0.4210E+02  0.2299E+03  0.2296E+03
      0.045  0.4406E+02  0.4101E+02  0.2325E+03  0.2321E+03
      0.105  0.4944E+02  0.5002E+02  0.2355E+03  0.2351E+03
      0.166  0.3963E+02  0.4395E+02  0.2379E+03  0.2378E+03
      0.226  0.4395E+02  0.3877E+02  0.2406E+03  0.2401E+03
      0.287  0.4196E+02  0.4297E+02  0.2431E+03  0.2427E+03
      0.347  0.4889E+02  0.4820E+02  0.2460E+03  0.2456E+03
      0.408  0.4636E+02  0.4424E+02  0.2489E+03  0.2483E+03
      0.468  0.4247E+02  0.4666E+02  0.2514E+03  0.2511E+03
      0.529  0.3533E+02  0.3558E+02  0.2536E+03  0.2533E+03
      0.589  0.5008E+02  0.4657E+02  0.2566E+03  0.2561E+03
      0.649  0.5321E+02  0.5291E+02  0.2598E+03  0.2593E+03
      0.710  0.4918E+02  0.5060E+02  0.2628E+03  0.2624E+03
      0.770  0.4826E+02  0.4904E+02  0.2657E+03  0.2653E+03
      0.831  0.4194E+02  0.3967E+02  0.2682E+03  0.2677E+03
      0.891  0.4779E+02  0.4936E+02  0.2711E+03  0.2707E+03
      0.952  0.5084E+02  0.4925E+02  0.2742E+03  0.2737E+03
      1.012  0.5419E+02  0.6054E+02  0.2775E+03  0.2773E+03
      1.073  0.3686E+02  0.3524E+02  0.2797E+03  0.2795E+03
      1.133  0.4576E+02  0.4427E+02  0.2825E+03  0.2822E+03
      1.193  0.4994E+02  0.4748E+02  0.2855E+03  0.2850E+03
      1.254  0.6674E+02  0.6503E+02  0.2895E+03  0.2890E+03
      1.314  0.5300E+02  0.5421E+02  0.2927E+03  0.2922E+03
      1.375  0.2168E+02  0.2381E+02  0.2940E+03  0.2937E+03
      1.435  0.3042E+02  0.3147E+02  0.2959E+03  0.2956E+03
      1.496  0.3825E+02  0.4036E+02  0.2982E+03  0.2980E+03
      1.556  0.5670E+02  0.5189E+02  0.3016E+03  0.3012E+03
      1.617  0.4294E+02  0.4056E+02  0.3042E+03  0.3036E+03
      1.677  0.3317E+02  0.3155E+02  0.3062E+03  0.3055E+03
      1.737  0.4414E+02  0.4734E+02  0.3089E+03  0.3084E+03
      1.798  0.3733E+02  0.4163E+02  0.3111E+03  0.3109E+03
      1.858  0.3341E+02  0.2870E+02  0.3131E+03  0.3126E+03
      1.919  0.4041E+02  0.4250E+02  0.3156E+03  0.3152E+03
      1.979  0.4046E+02  0.3657E+02  0.3180E+03  0.3174E+03
      2.040  0.2982E+02  0.3451E+02  0.3198E+03  0.3195E+03
      2.100  0.5599E+02  0.5230E+02  0.3232E+03  0.3227E+03
      2.161  0.3457E+02  0.3596E+02  0.3253E+03  0.3248E+03
      2.221  0.4384E+02  0.4271E+02  0.3280E+03  0.3274E+03
      2.281  0.4669E+02  0.4503E+02  0.3308E+03  0.3301E+03
      2.342  0.4089E+02  0.4762E+02  0.3333E+03  0.3330E+03
      2.402  0.3108E+02  0.2694E+02  0.3351E+03  0.3346E+03
      2.463  0.4175E+02  0.4032E+02  0.3377E+03  0.3371E+03
      2.523  0.3965E+02  0.4363E+02  0.3401E+03  0.3397E+03
      2.584  0.3632E+02  0.3372E+02  0.3422E+03  0.3418E+03
      2.644  0.3747E+02  0.3519E+02  0.3445E+03  0.3439E+03
      2.704  0.3409E+02  0.3688E+02  0.3466E+03  0.3461E+03
      2.765  0.3589E+02  0.4096E+02  0.3487E+03  0.3486E+03
      2.825  0.3364E+02  0.2519E+02  0.3508E+03  0.3501E+03
      2.886  0.4707E+02  0.4418E+02  0.3536E+03  0.3528E+03
      2.946  0.3404E+02  0.3643E+02  0.3557E+03  0.3550E+03
      3.007  0.4453E+02  0.4210E+02  0.3584E+03  0.3575E+03
      3.067  0.4163E+02  0.4184E+02  0.3609E+03  0.3601E+03
      3.128  0.3055E+02  0.3447E+02  0.3627E+03  0.3621E+03
      3.188  0.3992E+02  0.3714E+02  0.3651E+03  0.3644E+03
      3.248  0.3671E+02  0.4217E+02  0.3674E+03  0.3669E+03
      3.309  0.4044E+02  0.3578E+02  0.3698E+03  0.3691E+03
      3.369  0.3767E+02  0.3877E+02  0.3721E+03  0.3714E+03
      3.430  0.4340E+02  0.4643E+02  0.3747E+03  0.3742E+03
      3.490  0.3866E+02  0.3520E+02  0.3770E+03  0.3764E+03
      3.551  0.3080E+02  0.3424E+02  0.3789E+03  0.3784E+03
      3.611  0.3107E+02  0.2424E+02  0.3808E+03  0.3799E+03
      3.672  0.4499E+02  0.5047E+02  0.3835E+03  0.3830E+03
      3.732  0.3008E+02  0.3434E+02  0.3853E+03  0.3850E+03
      3.792  0.3755E+02  0.3729E+02  0.3876E+03  0.3873E+03
      3.853  0.4150E+02  0.3598E+02  0.3901E+03  0.3895E+03
      3.913  0.3465E+02  0.3813E+02  0.3922E+03  0.3918E+03
      3.974  0.2809E+02  0.2820E+02  0.3939E+03  0.3935E+03
      4.034  0.3229E+02  0.2776E+02  0.3959E+03  0.3951E+03
      4.095  0.3114E+02  0.3352E+02  0.3977E+03  0.3972E+03
      4.155  0.3082E+02  0.3341E+02  0.3996E+03  0.3992E+03
      4.216  0.5366E+02  0.5167E+02  0.4028E+03  0.4023E+03
      4.276  0.3713E+02  0.3810E+02  0.4051E+03  0.4046E+03
      4.336  0.4442E+02  0.3856E+02  0.4078E+03  0.4069E+03
      4.397  0.3075E+02  0.3496E+02  0.4096E+03  0.4091E+03
      4.457  0.4356E+02  0.4465E+02  0.4123E+03  0.4118E+03
      4.518  0.4116E+02  0.4069E+02  0.4147E+03  0.4142E+03
      4.578  0.3399E+02  0.3461E+02  0.4168E+03  0.4163E+03
      4.639  0.3453E+02  0.3369E+02  0.4189E+03  0.4183E+03
      4.699  0.2634E+02  0.3063E+02  0.4205E+03  0.4202E+03
      4.760  0.3073E+02  0.2664E+02  0.4223E+03  0.4218E+03
      4.820  0.3965E+02  0.4101E+02  0.4247E+03  0.4243E+03
      4.880  0.3953E+02  0.3437E+02  0.4271E+03  0.4264E+03
      4.941  0.3142E+02  0.3530E+02  0.4290E+03  0.4285E+03
      5.001  0.2931E+02  0.3378E+02  0.4308E+03  0.4305E+03
      5.062  0.3434E+02  0.3204E+02  0.4329E+03  0.4325E+03
      5.122  0.3934E+02  0.3453E+02  0.4353E+03  0.4346E+03
      5.183  0.3931E+02  0.4087E+02  0.4376E+03  0.4370E+03
      5.243  0.4019E+02  0.4211E+02  0.4401E+03  0.4396E+03
      5.304  0.3632E+02  0.3830E+02  0.4423E+03  0.4419E+03
      5.364  0.4405E+02  0.3728E+02  0.4449E+03  0.4442E+03
      5.424  0.4281E+02  0.4895E+02  0.4475E+03  0.4471E+03
      5.485  0.5234E+02  0.5314E+02  0.4507E+03  0.4503E+03
      5.545  0.5098E+02  0.4945E+02  0.4537E+03  0.4533E+03
      5.606  0.3478E+02  0.3330E+02  0.4559E+03  0.4553E+03
      5.666  0.4979E+02  0.4820E+02  0.4589E+03  0.4582E+03
      5.727  0.5002E+02  0.5811E+02  0.4619E+03  0.4618E+03
      5.787  0.1285E+02  0.1347E+02  0.4627E+03  0.4626E+03
      5.848  0.2126E+02  0.1033E+02  0.4639E+03  0.4632E+03
      5.908  0.8828E+00  0.1340E+02  0.4640E+03  0.4640E+03
      5.968  0.0000E+00  0.0000E+00  0.4640E+03  0.4640E+03
      6.029  0.0000E+00  0.0000E+00  0.4640E+03  0.4640E+03
      6.089  0.0000E+00  0.0000E+00  0.4640E+03  0.4640E+03
      6.150  0.0000E+00  0.0000E+00  0.4640E+03  0.4640E+03
      6.210  0.0000E+00  0.0000E+00  0.4640E+03  0.4640E+03
      6.271  0.0000E+00  0.0000E+00  0.4640E+03  0.4640E+03
      6.331  0.0000E+00  0.0000E+00  0.4640E+03  0.4640E+03
      6.392  0.0000E+00  0.0000E+00  0.4640E+03  0.4640E+03
      6.452  0.0000E+00  0.0000E+00  0.4640E+03  0.4640E+03
      6.512  0.0000E+00  0.0000E+00  0.4640E+03  0.4640E+03
      6.573  0.0000E+00  0.0000E+00  0.4640E+03  0.4640E+03
      6.633  0.0000E+00  0.0000E+00  0.4640E+03  0.4640E+03
      6.694  0.0000E+00  0.0000E+00  0.4640E+03  0.4640E+03
