 120 120   0   0
  0.1383406E+02  0.1330318E-08  0.1629300E-08  0.8390060E-09  0.5000000E-15
  1.000000000000000E-004
  CAR 
 Si and Ge interface calculation         
      7.21220910    -15.24296970  301      3.87703656      1.00000000
    -15.243  0.0000E+00  0.0000E+00  0.0000E+00  0.0000E+00
    -15.168  0.0000E+00  0.0000E+00  0.0000E+00  0.0000E+00
    -15.093  0.0000E+00  0.0000E+00  0.0000E+00  0.0000E+00
    -15.018  0.0000E+00  0.0000E+00  0.0000E+00  0.0000E+00
    -14.944  0.0000E+00  0.0000E+00  0.0000E+00  0.0000E+00
    -14.869  0.0000E+00  0.0000E+00  0.0000E+00  0.0000E+00
    -14.794  0.0000E+00  0.0000E+00  0.0000E+00  0.0000E+00
    -14.719  0.0000E+00  0.0000E+00  0.0000E+00  0.0000E+00
    -14.644  0.0000E+00  0.0000E+00  0.0000E+00  0.0000E+00
    -14.569  0.0000E+00  0.0000E+00  0.0000E+00  0.0000E+00
    -14.494  0.0000E+00  0.0000E+00  0.0000E+00  0.0000E+00
    -14.420  0.0000E+00  0.0000E+00  0.0000E+00  0.0000E+00
    -14.345  0.0000E+00  0.0000E+00  0.0000E+00  0.0000E+00
    -14.270  0.2811E-10  0.1360E-14  0.2104E-11  0.1018E-15
    -14.195  0.4453E+01  0.4425E+01  0.3333E+00  0.3312E+00
    -14.120  0.1231E+02  0.9981E+01  0.1255E+01  0.1080E+01
    -14.045  0.1440E+02  0.1650E+02  0.2333E+01  0.2333E+01
    -13.971  0.7666E-01  0.7234E-03  0.2339E+01  0.2333E+01
    -13.896  0.2637E+02  0.2425E+02  0.4313E+01  0.4149E+01
    -13.821  0.8902E+01  0.1112E+02  0.5000E+01  0.4981E+01
    -13.746  0.1756E+02  0.1481E+02  0.6314E+01  0.6109E+01
    -13.671  0.3696E-01  0.2424E+01  0.6336E+01  0.6333E+01
    -13.596  0.1766E+02  0.1656E+02  0.7658E+01  0.7573E+01
    -13.521  0.2047E+02  0.1910E+02  0.9199E+01  0.9002E+01
    -13.447  0.6214E+01  0.8067E+01  0.9667E+01  0.9660E+01
    -13.372  0.1778E+02  0.1674E+02  0.1100E+02  0.1092E+02
    -13.297  0.5460E+00  0.1797E-01  0.1104E+02  0.1100E+02
    -13.222  0.1365E+02  0.1335E+02  0.1206E+02  0.1200E+02
    -13.147  0.2989E+02  0.2757E+02  0.1430E+02  0.1407E+02
    -13.072  0.8613E+01  0.1148E+02  0.1500E+02  0.1500E+02
    -12.997  0.5547E+01  0.4486E+01  0.1542E+02  0.1534E+02
    -12.923  0.3453E+02  0.3559E+02  0.1800E+02  0.1800E+02
    -12.848  0.1358E+00  0.1447E-02  0.1801E+02  0.1800E+02
    -12.773  0.8771E+01  0.8905E+01  0.1867E+02  0.1867E+02
    -12.698  0.8188E+01  0.5971E+01  0.1928E+02  0.1911E+02
    -12.623  0.1026E+02  0.1058E+02  0.2010E+02  0.1991E+02
    -12.548  0.3891E+02  0.3590E+02  0.2302E+02  0.2269E+02
    -12.473  0.4157E+01  0.8379E+01  0.2333E+02  0.2333E+02
    -12.399  0.1514E-04  0.1956E-07  0.2333E+02  0.2333E+02
    -12.324  0.1335E+02  0.1305E+02  0.2433E+02  0.2431E+02
    -12.249  0.1737E+02  0.1411E+02  0.2563E+02  0.2539E+02
    -12.174  0.0000E+00  0.2889E+01  0.2567E+02  0.2567E+02
    -12.099  0.3707E+01  0.2308E+01  0.2594E+02  0.2584E+02
    -12.024  0.1443E+02  0.1203E+02  0.2708E+02  0.2674E+02
    -11.950  0.1228E+02  0.1683E+02  0.2800E+02  0.2800E+02
    -11.875  0.1296E-12  0.0000E+00  0.2800E+02  0.2800E+02
    -11.800  0.4449E+01  0.4356E+01  0.2833E+02  0.2833E+02
    -11.725  0.7550E+01  0.4331E+01  0.2890E+02  0.2866E+02
    -11.650  0.0000E+00  0.4575E+01  0.2900E+02  0.2900E+02
    -11.575  0.2457E-03  0.3911E-05  0.2900E+02  0.2900E+02
    -11.500  0.8244E+01  0.5804E+01  0.2962E+02  0.2943E+02
    -11.426  0.4563E+02  0.4554E+02  0.3303E+02  0.3284E+02
    -11.351  0.2316E+02  0.2228E+02  0.3477E+02  0.3458E+02
    -11.276  0.7941E+01  0.5633E+01  0.3537E+02  0.3510E+02
    -11.201  0.1732E+02  0.2097E+02  0.3667E+02  0.3667E+02
    -11.126  0.4453E+01  0.4453E+01  0.3700E+02  0.3700E+02
    -11.051  0.1781E+02  0.1775E+02  0.3833E+02  0.3833E+02
    -10.976  0.1668E-03  0.5964E-06  0.3833E+02  0.3833E+02
    -10.902  0.2664E+02  0.2497E+02  0.4033E+02  0.4020E+02
    -10.827  0.8875E+01  0.8906E+01  0.4100E+02  0.4100E+02
    -10.752  0.8891E+01  0.8907E+01  0.4167E+02  0.4167E+02
    -10.677  0.4113E+01  0.1014E+01  0.4197E+02  0.4174E+02
    -10.602  0.5427E+01  0.7947E+01  0.4238E+02  0.4234E+02
    -10.527  0.2609E+02  0.2662E+02  0.4433E+02  0.4433E+02
    -10.453  0.7406E+01  0.3029E+01  0.4489E+02  0.4456E+02
    -10.378  0.2064E-05  0.5878E+01  0.4500E+02  0.4500E+02
    -10.303  0.8907E+01  0.8907E+01  0.4567E+02  0.4567E+02
    -10.228  0.1334E+02  0.1207E+02  0.4667E+02  0.4657E+02
    -10.153  0.1432E+02  0.8395E+01  0.4774E+02  0.4730E+02
    -10.078  0.6259E+01  0.8394E+01  0.4823E+02  0.4803E+02
    -10.003  0.1452E+02  0.1514E+02  0.4932E+02  0.4916E+02
     -9.929  0.1775E+02  0.1840E+02  0.5066E+02  0.5054E+02
     -9.854  0.7665E+01  0.5594E+01  0.5124E+02  0.5109E+02
     -9.779  0.1454E+02  0.1668E+02  0.5235E+02  0.5233E+02
     -9.704  0.4364E+02  0.4181E+02  0.5561E+02  0.5546E+02
     -9.629  0.2278E+02  0.2498E+02  0.5735E+02  0.5733E+02
     -9.554  0.1316E+02  0.1335E+02  0.5833E+02  0.5833E+02
     -9.479  0.2672E+02  0.2667E+02  0.6033E+02  0.6033E+02
     -9.405  0.9759E+01  0.8949E+01  0.6106E+02  0.6100E+02
     -9.330  0.1997E+02  0.1641E+02  0.6256E+02  0.6223E+02
     -9.255  0.1826E+02  0.2359E+02  0.6404E+02  0.6400E+02
     -9.180  0.2079E+02  0.1583E+02  0.6560E+02  0.6519E+02
     -9.105  0.3085E+02  0.3341E+02  0.6793E+02  0.6771E+02
     -9.030  0.3290E+02  0.2898E+02  0.7039E+02  0.6991E+02
     -8.956  0.1607E+02  0.1982E+02  0.7166E+02  0.7147E+02
     -8.881  0.8771E+01  0.1086E+02  0.7233E+02  0.7233E+02
     -8.806  0.6413E+01  0.3983E+01  0.7281E+02  0.7263E+02
     -8.731  0.2476E+02  0.2683E+02  0.7467E+02  0.7467E+02
     -8.656  0.1869E+02  0.1409E+02  0.7607E+02  0.7572E+02
     -8.581  0.2811E+02  0.2794E+02  0.7818E+02  0.7782E+02
     -8.506  0.1469E+02  0.1978E+02  0.7933E+02  0.7933E+02
     -8.432  0.2188E+02  0.1811E+02  0.8097E+02  0.8069E+02
     -8.357  0.9465E+01  0.8626E+01  0.8171E+02  0.8140E+02
     -8.282  0.7710E+01  0.8481E+01  0.8229E+02  0.8207E+02
     -8.207  0.0000E+00  0.3494E+01  0.8233E+02  0.8233E+02
     -8.132  0.6256E+01  0.1744E+01  0.8280E+02  0.8246E+02
     -8.057  0.1811E+01  0.7162E+01  0.8300E+02  0.8300E+02
     -7.982  0.0000E+00  0.0000E+00  0.8300E+02  0.8300E+02
     -7.908  0.1253E+00  0.4420E-02  0.8301E+02  0.8300E+02
     -7.833  0.1265E+02  0.1090E+02  0.8396E+02  0.8382E+02
     -7.758  0.0000E+00  0.2453E+01  0.8400E+02  0.8400E+02
     -7.683  0.3091E+01  0.1342E+01  0.8423E+02  0.8410E+02
     -7.608  0.5727E+01  0.7565E+01  0.8467E+02  0.8467E+02
     -7.533  0.4423E+01  0.4453E+01  0.8500E+02  0.8500E+02
     -7.459  0.1194E+02  0.1011E+02  0.8589E+02  0.8576E+02
     -7.384  0.2892E+01  0.3328E+01  0.8612E+02  0.8601E+02
     -7.309  0.1325E+02  0.1133E+02  0.8711E+02  0.8686E+02
     -7.234  0.7237E+01  0.1079E+02  0.8767E+02  0.8767E+02
     -7.159  0.3560E-01  0.2156E-03  0.8767E+02  0.8767E+02
     -7.084  0.1383E+02  0.1209E+02  0.8870E+02  0.8857E+02
     -7.009  0.1117E+02  0.1086E+02  0.8954E+02  0.8942E+02
     -6.935  0.5772E+01  0.7709E+01  0.9000E+02  0.9000E+02
     -6.860  0.7146E+01  0.5107E+01  0.9053E+02  0.9038E+02
     -6.785  0.1096E+02  0.1072E+02  0.9138E+02  0.9119E+02
     -6.710  0.2511E+02  0.2407E+02  0.9326E+02  0.9300E+02
     -6.635  0.1903E+02  0.1964E+02  0.9470E+02  0.9450E+02
     -6.560  0.3034E+02  0.2972E+02  0.9697E+02  0.9675E+02
     -6.485  0.2642E+02  0.2773E+02  0.9897E+02  0.9887E+02
     -6.411  0.2797E+02  0.2622E+02  0.1011E+03  0.1009E+03
     -6.336  0.2269E+02  0.2208E+02  0.1028E+03  0.1025E+03
     -6.261  0.3025E+02  0.3366E+02  0.1051E+03  0.1050E+03
     -6.186  0.3112E+02  0.2476E+02  0.1075E+03  0.1069E+03
     -6.111  0.2701E+02  0.3262E+02  0.1096E+03  0.1094E+03
     -6.036  0.2920E+02  0.2849E+02  0.1118E+03  0.1116E+03
     -5.961  0.3925E+02  0.3802E+02  0.1148E+03  0.1144E+03
     -5.887  0.3051E+02  0.3308E+02  0.1171E+03  0.1169E+03
     -5.812  0.2443E+02  0.2600E+02  0.1190E+03  0.1189E+03
     -5.737  0.3315E+02  0.3102E+02  0.1215E+03  0.1212E+03
     -5.662  0.2187E+02  0.2183E+02  0.1232E+03  0.1229E+03
     -5.587  0.1723E+02  0.1550E+02  0.1245E+03  0.1241E+03
     -5.512  0.3175E+02  0.3338E+02  0.1269E+03  0.1266E+03
     -5.438  0.2464E+02  0.2677E+02  0.1288E+03  0.1286E+03
     -5.363  0.1875E+02  0.1787E+02  0.1302E+03  0.1300E+03
     -5.288  0.3469E+02  0.3338E+02  0.1328E+03  0.1325E+03
     -5.213  0.3403E+02  0.3410E+02  0.1354E+03  0.1351E+03
     -5.138  0.3674E+02  0.3640E+02  0.1382E+03  0.1378E+03
     -5.063  0.2718E+02  0.2848E+02  0.1402E+03  0.1400E+03
     -4.988  0.3197E+02  0.2815E+02  0.1426E+03  0.1421E+03
     -4.914  0.2596E+02  0.2998E+02  0.1446E+03  0.1444E+03
     -4.839  0.2672E+02  0.2889E+02  0.1467E+03  0.1466E+03
     -4.764  0.4003E+02  0.3489E+02  0.1497E+03  0.1492E+03
     -4.689  0.4229E+02  0.4362E+02  0.1529E+03  0.1525E+03
     -4.614  0.2372E+02  0.2686E+02  0.1547E+03  0.1545E+03
     -4.539  0.2671E+02  0.2612E+02  0.1567E+03  0.1565E+03
     -4.464  0.2496E+02  0.2515E+02  0.1585E+03  0.1584E+03
     -4.390  0.2594E+02  0.2701E+02  0.1605E+03  0.1605E+03
     -4.315  0.3350E+02  0.3208E+02  0.1630E+03  0.1629E+03
     -4.240  0.2349E+02  0.2317E+02  0.1648E+03  0.1646E+03
     -4.165  0.1632E+02  0.1658E+02  0.1660E+03  0.1659E+03
     -4.090  0.3609E+02  0.3502E+02  0.1687E+03  0.1685E+03
     -4.015  0.2271E+02  0.2242E+02  0.1704E+03  0.1702E+03
     -3.941  0.3315E+02  0.3171E+02  0.1730E+03  0.1726E+03
     -3.866  0.2863E+02  0.2920E+02  0.1751E+03  0.1749E+03
     -3.791  0.3132E+02  0.3271E+02  0.1775E+03  0.1774E+03
     -3.716  0.3989E+02  0.3998E+02  0.1805E+03  0.1804E+03
     -3.641  0.3040E+02  0.2895E+02  0.1828E+03  0.1826E+03
     -3.566  0.2744E+02  0.2741E+02  0.1849E+03  0.1846E+03
     -3.491  0.2238E+02  0.2281E+02  0.1867E+03  0.1864E+03
     -3.417  0.3425E+02  0.3354E+02  0.1892E+03  0.1889E+03
     -3.342  0.2628E+02  0.2458E+02  0.1912E+03  0.1908E+03
     -3.267  0.2871E+02  0.3170E+02  0.1934E+03  0.1932E+03
     -3.192  0.1662E+02  0.1838E+02  0.1947E+03  0.1946E+03
     -3.117  0.1834E+02  0.1609E+02  0.1960E+03  0.1958E+03
     -3.042  0.2535E+02  0.2615E+02  0.1980E+03  0.1978E+03
     -2.967  0.2037E+02  0.2200E+02  0.1995E+03  0.1995E+03
     -2.893  0.2605E+02  0.2230E+02  0.2015E+03  0.2012E+03
     -2.818  0.2502E+02  0.2602E+02  0.2034E+03  0.2031E+03
     -2.743  0.3868E+02  0.3812E+02  0.2063E+03  0.2060E+03
     -2.668  0.3431E+02  0.3617E+02  0.2089E+03  0.2088E+03
     -2.593  0.4155E+02  0.3992E+02  0.2120E+03  0.2118E+03
     -2.518  0.3836E+02  0.3796E+02  0.2149E+03  0.2147E+03
     -2.444  0.4228E+02  0.3940E+02  0.2181E+03  0.2177E+03
     -2.369  0.3105E+02  0.3034E+02  0.2205E+03  0.2200E+03
     -2.294  0.2327E+02  0.2729E+02  0.2223E+03  0.2220E+03
     -2.219  0.3543E+02  0.3548E+02  0.2250E+03  0.2247E+03
     -2.144  0.2911E+02  0.2635E+02  0.2272E+03  0.2267E+03
     -2.069  0.2739E+02  0.3119E+02  0.2293E+03  0.2291E+03
     -1.994  0.4619E+02  0.4324E+02  0.2327E+03  0.2323E+03
     -1.920  0.3527E+02  0.3552E+02  0.2354E+03  0.2350E+03
     -1.845  0.3819E+02  0.3943E+02  0.2384E+03  0.2380E+03
     -1.770  0.3512E+02  0.3595E+02  0.2411E+03  0.2407E+03
     -1.695  0.5072E+02  0.4938E+02  0.2449E+03  0.2445E+03
     -1.620  0.3609E+02  0.3526E+02  0.2476E+03  0.2472E+03
     -1.545  0.4658E+02  0.4505E+02  0.2511E+03  0.2506E+03
     -1.470  0.4462E+02  0.4737E+02  0.2545E+03  0.2542E+03
     -1.396  0.3430E+02  0.3376E+02  0.2571E+03  0.2567E+03
     -1.321  0.4338E+02  0.4227E+02  0.2603E+03  0.2599E+03
     -1.246  0.3531E+02  0.3318E+02  0.2630E+03  0.2625E+03
     -1.171  0.3653E+02  0.3707E+02  0.2658E+03  0.2653E+03
     -1.096  0.4030E+02  0.4414E+02  0.2689E+03  0.2686E+03
     -1.021  0.3379E+02  0.3378E+02  0.2715E+03  0.2711E+03
     -0.947  0.3961E+02  0.4020E+02  0.2745E+03  0.2742E+03
     -0.872  0.2728E+02  0.2789E+02  0.2765E+03  0.2763E+03
     -0.797  0.4090E+02  0.3945E+02  0.2796E+03  0.2793E+03
     -0.722  0.3889E+02  0.4025E+02  0.2825E+03  0.2823E+03
     -0.647  0.3463E+02  0.3275E+02  0.2851E+03  0.2848E+03
     -0.572  0.2794E+02  0.2817E+02  0.2873E+03  0.2869E+03
     -0.497  0.3491E+02  0.3384E+02  0.2900E+03  0.2894E+03
     -0.423  0.3594E+02  0.3957E+02  0.2927E+03  0.2925E+03
     -0.348  0.3106E+02  0.2995E+02  0.2951E+03  0.2947E+03
     -0.273  0.2505E+02  0.2314E+02  0.2970E+03  0.2965E+03
     -0.198  0.2901E+02  0.3381E+02  0.2992E+03  0.2990E+03
     -0.123  0.3599E+02  0.3268E+02  0.3019E+03  0.3015E+03
     -0.048  0.3056E+02  0.3132E+02  0.3043E+03  0.3039E+03
      0.027  0.3960E+02  0.3910E+02  0.3072E+03  0.3068E+03
      0.101  0.3563E+02  0.3654E+02  0.3100E+03  0.3096E+03
      0.176  0.4140E+02  0.4034E+02  0.3131E+03  0.3127E+03
      0.251  0.4384E+02  0.4319E+02  0.3164E+03  0.3159E+03
      0.326  0.2589E+02  0.2977E+02  0.3184E+03  0.3182E+03
      0.401  0.4855E+02  0.4266E+02  0.3221E+03  0.3214E+03
      0.476  0.4129E+02  0.3985E+02  0.3253E+03  0.3244E+03
      0.551  0.4244E+02  0.4738E+02  0.3285E+03  0.3281E+03
      0.625  0.3887E+02  0.3785E+02  0.3314E+03  0.3310E+03
      0.700  0.4687E+02  0.4553E+02  0.3350E+03  0.3344E+03
      0.775  0.4744E+02  0.5079E+02  0.3386E+03  0.3383E+03
      0.850  0.3411E+02  0.3193E+02  0.3412E+03  0.3407E+03
      0.925  0.4905E+02  0.4825E+02  0.3449E+03  0.3444E+03
      1.000  0.4346E+02  0.4496E+02  0.3482E+03  0.3478E+03
      1.074  0.3197E+02  0.3296E+02  0.3506E+03  0.3503E+03
      1.149  0.4549E+02  0.4052E+02  0.3541E+03  0.3534E+03
      1.224  0.3692E+02  0.3949E+02  0.3569E+03  0.3564E+03
      1.299  0.4477E+02  0.4905E+02  0.3604E+03  0.3600E+03
      1.374  0.4331E+02  0.4048E+02  0.3636E+03  0.3631E+03
      1.449  0.4690E+02  0.4714E+02  0.3672E+03  0.3667E+03
      1.524  0.4467E+02  0.4755E+02  0.3706E+03  0.3703E+03
      1.598  0.4214E+02  0.3693E+02  0.3738E+03  0.3731E+03
      1.673  0.5165E+02  0.5308E+02  0.3777E+03  0.3772E+03
      1.748  0.4602E+02  0.4498E+02  0.3812E+03  0.3806E+03
      1.823  0.3527E+02  0.3994E+02  0.3839E+03  0.3836E+03
      1.898  0.5215E+02  0.4550E+02  0.3878E+03  0.3871E+03
      1.973  0.4465E+02  0.4613E+02  0.3911E+03  0.3905E+03
      2.048  0.4951E+02  0.4848E+02  0.3949E+03  0.3942E+03
      2.122  0.4744E+02  0.5035E+02  0.3985E+03  0.3980E+03
      2.197  0.5916E+02  0.5487E+02  0.4030E+03  0.4021E+03
      2.272  0.5087E+02  0.5533E+02  0.4068E+03  0.4063E+03
      2.347  0.5024E+02  0.4156E+02  0.4106E+03  0.4095E+03
      2.422  0.5012E+02  0.5386E+02  0.4144E+03  0.4136E+03
      2.497  0.4289E+02  0.4337E+02  0.4177E+03  0.4169E+03
      2.571  0.5340E+02  0.4741E+02  0.4218E+03  0.4205E+03
      2.646  0.4297E+02  0.5659E+02  0.4251E+03  0.4248E+03
      2.721  0.5134E+02  0.4249E+02  0.4289E+03  0.4280E+03
      2.796  0.4612E+02  0.4666E+02  0.4324E+03  0.4316E+03
      2.871  0.4516E+02  0.4735E+02  0.4358E+03  0.4352E+03
      2.946  0.5534E+02  0.5831E+02  0.4400E+03  0.4396E+03
      3.021  0.4176E+02  0.3668E+02  0.4432E+03  0.4424E+03
      3.095  0.4759E+02  0.4341E+02  0.4468E+03  0.4456E+03
      3.170  0.3773E+02  0.4435E+02  0.4496E+03  0.4490E+03
      3.245  0.4167E+02  0.4242E+02  0.4528E+03  0.4522E+03
      3.320  0.4878E+02  0.4548E+02  0.4565E+03  0.4556E+03
      3.395  0.3541E+02  0.4274E+02  0.4592E+03  0.4589E+03
      3.470  0.4142E+02  0.3040E+02  0.4623E+03  0.4612E+03
      3.545  0.4425E+02  0.4671E+02  0.4657E+03  0.4647E+03
      3.619  0.4084E+02  0.4001E+02  0.4687E+03  0.4677E+03
      3.694  0.3909E+02  0.3873E+02  0.4717E+03  0.4707E+03
      3.769  0.4580E+02  0.4594E+02  0.4751E+03  0.4742E+03
      3.844  0.4978E+02  0.4759E+02  0.4789E+03  0.4778E+03
      3.919  0.5183E+02  0.4192E+02  0.4829E+03  0.4810E+03
      3.994  0.4425E+02  0.5631E+02  0.4863E+03  0.4853E+03
      4.068  0.5012E+02  0.4796E+02  0.4900E+03  0.4889E+03
      4.143  0.5082E+02  0.4917E+02  0.4939E+03  0.4926E+03
      4.218  0.4083E+02  0.4435E+02  0.4970E+03  0.4959E+03
      4.293  0.4375E+02  0.4496E+02  0.5003E+03  0.4993E+03
      4.368  0.4293E+02  0.3928E+02  0.5035E+03  0.5023E+03
      4.443  0.4825E+02  0.5328E+02  0.5072E+03  0.5063E+03
      4.518  0.3778E+02  0.3737E+02  0.5100E+03  0.5091E+03
      4.592  0.5013E+02  0.5129E+02  0.5138E+03  0.5130E+03
      4.667  0.5148E+02  0.4639E+02  0.5177E+03  0.5166E+03
      4.742  0.4312E+02  0.4507E+02  0.5210E+03  0.5201E+03
      4.817  0.4491E+02  0.4696E+02  0.5244E+03  0.5236E+03
      4.892  0.4733E+02  0.4353E+02  0.5280E+03  0.5270E+03
      4.967  0.3279E+02  0.3747E+02  0.5306E+03  0.5298E+03
      5.042  0.3717E+02  0.3434E+02  0.5334E+03  0.5324E+03
      5.116  0.5017E+02  0.5163E+02  0.5371E+03  0.5363E+03
      5.191  0.3351E+02  0.3491E+02  0.5397E+03  0.5389E+03
      5.266  0.4194E+02  0.4738E+02  0.5429E+03  0.5425E+03
      5.341  0.3640E+02  0.3351E+02  0.5456E+03  0.5450E+03
      5.416  0.3414E+02  0.3791E+02  0.5482E+03  0.5479E+03
      5.491  0.3967E+02  0.3975E+02  0.5512E+03  0.5509E+03
      5.565  0.3277E+02  0.2576E+02  0.5537E+03  0.5529E+03
      5.640  0.3849E+02  0.3810E+02  0.5566E+03  0.5558E+03
      5.715  0.3425E+02  0.3717E+02  0.5592E+03  0.5586E+03
      5.790  0.4469E+02  0.4213E+02  0.5626E+03  0.5617E+03
      5.865  0.4134E+02  0.4476E+02  0.5658E+03  0.5651E+03
      5.940  0.4192E+02  0.3762E+02  0.5690E+03  0.5680E+03
      6.015  0.4653E+02  0.4979E+02  0.5725E+03  0.5717E+03
      6.089  0.2384E+02  0.2764E+02  0.5744E+03  0.5739E+03
      6.164  0.2083E+02  0.2432E+02  0.5759E+03  0.5758E+03
      6.239  0.8607E+00  0.2798E+01  0.5760E+03  0.5760E+03
      6.314  0.0000E+00  0.0000E+00  0.5760E+03  0.5760E+03
      6.389  0.0000E+00  0.0000E+00  0.5760E+03  0.5760E+03
      6.464  0.0000E+00  0.0000E+00  0.5760E+03  0.5760E+03
      6.539  0.0000E+00  0.0000E+00  0.5760E+03  0.5760E+03
      6.613  0.0000E+00  0.0000E+00  0.5760E+03  0.5760E+03
      6.688  0.0000E+00  0.0000E+00  0.5760E+03  0.5760E+03
      6.763  0.0000E+00  0.0000E+00  0.5760E+03  0.5760E+03
      6.838  0.0000E+00  0.0000E+00  0.5760E+03  0.5760E+03
      6.913  0.0000E+00  0.0000E+00  0.5760E+03  0.5760E+03
      6.988  0.0000E+00  0.0000E+00  0.5760E+03  0.5760E+03
      7.063  0.0000E+00  0.0000E+00  0.5760E+03  0.5760E+03
      7.137  0.0000E+00  0.0000E+00  0.5760E+03  0.5760E+03
      7.212  0.0000E+00  0.0000E+00  0.5760E+03  0.5760E+03
