  48  48   0   0
  0.2846444E+02  0.9177115E-09  0.1946760E-08  0.7647603E-09  0.5000000E-15
  1.000000000000000E-004
  CAR 
 Si and Ge interface calculation         
      7.54899777     -8.92105964  301      5.15245655      1.00000000
     -8.921  0.0000E+00  0.0000E+00  0.0000E+00  0.0000E+00
     -8.866  0.0000E+00  0.0000E+00  0.0000E+00  0.0000E+00
     -8.811  0.0000E+00  0.0000E+00  0.0000E+00  0.0000E+00
     -8.756  0.0000E+00  0.0000E+00  0.0000E+00  0.0000E+00
     -8.701  0.0000E+00  0.0000E+00  0.0000E+00  0.0000E+00
     -8.647  0.0000E+00  0.0000E+00  0.0000E+00  0.0000E+00
     -8.592  0.0000E+00  0.0000E+00  0.0000E+00  0.0000E+00
     -8.537  0.0000E+00  0.0000E+00  0.0000E+00  0.0000E+00
     -8.482  0.0000E+00  0.0000E+00  0.0000E+00  0.0000E+00
     -8.427  0.0000E+00  0.0000E+00  0.0000E+00  0.0000E+00
     -8.372  0.0000E+00  0.0000E+00  0.0000E+00  0.0000E+00
     -8.317  0.0000E+00  0.0000E+00  0.0000E+00  0.0000E+00
     -8.262  0.0000E+00  0.0000E+00  0.0000E+00  0.0000E+00
     -8.207  0.1163E-05  0.6961E-10  0.6385E-07  0.3822E-11
     -8.152  0.3029E+01  0.2675E+01  0.1663E+00  0.1468E+00
     -8.098  0.7284E-02  0.3611E+00  0.1667E+00  0.1667E+00
     -8.043  0.2618E-01  0.6306E-04  0.1681E+00  0.1667E+00
     -7.988  0.1212E+02  0.1194E+02  0.8332E+00  0.8219E+00
     -7.933  0.1621E-02  0.2079E+00  0.8333E+00  0.8333E+00
     -7.878  0.4398E+00  0.3753E-02  0.8575E+00  0.8335E+00
     -7.823  0.1170E+02  0.1214E+02  0.1500E+01  0.1500E+01
     -7.768  0.0000E+00  0.0000E+00  0.1500E+01  0.1500E+01
     -7.713  0.1904E+00  0.2414E-02  0.1510E+01  0.1500E+01
     -7.658  0.2854E+01  0.3033E+01  0.1667E+01  0.1667E+01
     -7.603  0.6063E+01  0.6067E+01  0.2000E+01  0.2000E+01
     -7.549  0.7818E+01  0.1925E+01  0.2429E+01  0.2105E+01
     -7.494  0.1149E+02  0.1631E+02  0.3060E+01  0.3001E+01
     -7.439  0.1105E+02  0.1212E+02  0.3667E+01  0.3667E+01
     -7.384  0.2366E+02  0.1641E+02  0.4966E+01  0.4568E+01
     -7.329  0.3647E+01  0.1044E+02  0.5166E+01  0.5140E+01
     -7.274  0.1601E-01  0.4772E+00  0.5167E+01  0.5167E+01
     -7.219  0.4877E-01  0.2311E-03  0.5169E+01  0.5167E+01
     -7.164  0.1188E+02  0.9638E+01  0.5822E+01  0.5696E+01
     -7.109  0.2244E+00  0.2505E+01  0.5834E+01  0.5833E+01
     -7.054  0.6185E+01  0.6068E+01  0.6173E+01  0.6166E+01
     -7.000  0.2416E+02  0.2427E+02  0.7500E+01  0.7499E+01
     -6.945  0.1039E+02  0.3591E+01  0.8071E+01  0.7696E+01
     -6.890  0.4337E+01  0.9496E+01  0.8309E+01  0.8218E+01
     -6.835  0.4482E+00  0.2108E+01  0.8333E+01  0.8333E+01
     -6.780  0.9934E+01  0.3602E+01  0.8879E+01  0.8531E+01
     -6.725  0.8280E+01  0.1461E+02  0.9333E+01  0.9333E+01
     -6.670  0.1095E+00  0.4448E-03  0.9339E+01  0.9333E+01
     -6.615  0.2042E+02  0.1386E+02  0.1046E+02  0.1009E+02
     -6.560  0.3754E+01  0.1042E+02  0.1067E+02  0.1067E+02
     -6.505  0.0000E+00  0.0000E+00  0.1067E+02  0.1067E+02
     -6.451  0.1084E-08  0.1677E-13  0.1067E+02  0.1067E+02
     -6.396  0.8019E+01  0.3101E+01  0.1111E+02  0.1084E+02
     -6.341  0.1613E+02  0.1830E+02  0.1199E+02  0.1184E+02
     -6.286  0.1165E+01  0.2901E+01  0.1206E+02  0.1200E+02
     -6.231  0.1122E+02  0.1212E+02  0.1267E+02  0.1267E+02
     -6.176  0.5974E+01  0.6071E+01  0.1300E+02  0.1300E+02
     -6.121  0.4683E+00  0.1466E-01  0.1303E+02  0.1300E+02
     -6.066  0.2571E+01  0.3021E+01  0.1317E+02  0.1317E+02
     -6.011  0.1252E+02  0.1212E+02  0.1385E+02  0.1383E+02
     -5.956  0.1174E+02  0.1132E+02  0.1450E+02  0.1445E+02
     -5.902  0.1265E+00  0.8502E+00  0.1451E+02  0.1450E+02
     -5.847  0.5971E+01  0.5988E+01  0.1483E+02  0.1483E+02
     -5.792  0.4096E+01  0.3963E+00  0.1506E+02  0.1485E+02
     -5.737  0.1109E+02  0.1469E+02  0.1567E+02  0.1566E+02
     -5.682  0.7691E+01  0.7451E+01  0.1609E+02  0.1607E+02
     -5.627  0.1413E+01  0.1830E+01  0.1617E+02  0.1617E+02
     -5.572  0.1883E-02  0.1374E-07  0.1617E+02  0.1617E+02
     -5.517  0.8709E+01  0.5917E+01  0.1664E+02  0.1649E+02
     -5.462  0.5374E+01  0.7746E+01  0.1694E+02  0.1692E+02
     -5.407  0.1269E+01  0.1516E+01  0.1701E+02  0.1700E+02
     -5.353  0.1316E+02  0.6986E+01  0.1773E+02  0.1738E+02
     -5.298  0.7132E+01  0.1133E+02  0.1812E+02  0.1801E+02
     -5.243  0.3824E+01  0.5968E+01  0.1833E+02  0.1833E+02
     -5.188  0.7954E+00  0.5963E-02  0.1838E+02  0.1833E+02
     -5.133  0.7787E+01  0.6085E+01  0.1880E+02  0.1867E+02
     -5.078  0.1168E+02  0.1214E+02  0.1945E+02  0.1933E+02
     -5.023  0.4025E+01  0.5544E+01  0.1967E+02  0.1964E+02
     -4.968  0.1138E+02  0.5025E+01  0.2029E+02  0.1991E+02
     -4.913  0.1638E+02  0.1905E+02  0.2119E+02  0.2096E+02
     -4.858  0.8681E+01  0.1281E+02  0.2167E+02  0.2166E+02
     -4.804  0.7743E+01  0.4589E+01  0.2209E+02  0.2192E+02
     -4.749  0.1046E+02  0.1255E+02  0.2267E+02  0.2260E+02
     -4.694  0.8460E+01  0.7126E+01  0.2313E+02  0.2300E+02
     -4.639  0.1912E+02  0.1830E+02  0.2418E+02  0.2400E+02
     -4.584  0.4988E+01  0.6292E+01  0.2445E+02  0.2435E+02
     -4.529  0.1298E+02  0.1483E+02  0.2517E+02  0.2516E+02
     -4.474  0.1408E+01  0.3337E+00  0.2524E+02  0.2518E+02
     -4.419  0.1634E+01  0.2555E+01  0.2533E+02  0.2532E+02
     -4.364  0.6348E+01  0.3569E+01  0.2568E+02  0.2551E+02
     -4.309  0.2021E+02  0.1618E+02  0.2679E+02  0.2640E+02
     -4.255  0.2263E+02  0.2199E+02  0.2803E+02  0.2761E+02
     -4.200  0.2773E+02  0.2596E+02  0.2956E+02  0.2904E+02
     -4.145  0.1364E+02  0.1993E+02  0.3031E+02  0.3013E+02
     -4.090  0.1628E+02  0.1322E+02  0.3120E+02  0.3086E+02
     -4.035  0.2450E+02  0.2964E+02  0.3254E+02  0.3248E+02
     -3.980  0.2056E+02  0.2025E+02  0.3367E+02  0.3359E+02
     -3.925  0.1840E+02  0.1767E+02  0.3468E+02  0.3456E+02
     -3.870  0.1330E+02  0.1048E+02  0.3541E+02  0.3514E+02
     -3.815  0.2204E+02  0.2277E+02  0.3662E+02  0.3639E+02
     -3.760  0.1294E+02  0.1668E+02  0.3733E+02  0.3731E+02
     -3.706  0.7176E+01  0.6427E+01  0.3773E+02  0.3766E+02
     -3.651  0.7783E+01  0.5806E+01  0.3815E+02  0.3798E+02
     -3.596  0.1230E+02  0.1257E+02  0.3883E+02  0.3867E+02
     -3.541  0.6069E+01  0.5145E+01  0.3916E+02  0.3895E+02
     -3.486  0.9336E+01  0.1148E+02  0.3968E+02  0.3958E+02
     -3.431  0.5958E+01  0.7648E+01  0.4000E+02  0.4000E+02
     -3.376  0.1188E+02  0.6321E+01  0.4066E+02  0.4035E+02
     -3.321  0.2487E+02  0.2576E+02  0.4202E+02  0.4176E+02
     -3.266  0.2461E+02  0.2641E+02  0.4337E+02  0.4321E+02
     -3.211  0.2829E+01  0.5256E+01  0.4353E+02  0.4350E+02
     -3.157  0.1769E+02  0.1011E+02  0.4450E+02  0.4406E+02
     -3.102  0.5572E+01  0.1129E+02  0.4480E+02  0.4467E+02
     -3.047  0.6515E+01  0.5317E+01  0.4516E+02  0.4497E+02
     -2.992  0.2206E+02  0.1416E+02  0.4637E+02  0.4574E+02
     -2.937  0.6296E+01  0.1587E+02  0.4672E+02  0.4662E+02
     -2.882  0.3436E+02  0.2834E+02  0.4861E+02  0.4817E+02
     -2.827  0.8217E+01  0.1515E+02  0.4906E+02  0.4900E+02
     -2.772  0.5980E+01  0.4437E+01  0.4938E+02  0.4925E+02
     -2.717  0.7928E+01  0.6178E+01  0.4982E+02  0.4959E+02
     -2.662  0.6021E+01  0.7364E+01  0.5015E+02  0.4999E+02
     -2.608  0.1599E+02  0.1309E+02  0.5103E+02  0.5071E+02
     -2.553  0.1282E+02  0.1598E+02  0.5173E+02  0.5159E+02
     -2.498  0.6341E+01  0.8137E+01  0.5208E+02  0.5203E+02
     -2.443  0.3051E+01  0.2698E+01  0.5225E+02  0.5218E+02
     -2.388  0.1468E+02  0.1216E+02  0.5305E+02  0.5285E+02
     -2.333  0.2058E+01  0.5799E+01  0.5317E+02  0.5317E+02
     -2.278  0.4722E+01  0.4501E+00  0.5343E+02  0.5319E+02
     -2.223  0.1579E+02  0.1786E+02  0.5429E+02  0.5417E+02
     -2.168  0.1593E+02  0.1602E+02  0.5517E+02  0.5505E+02
     -2.113  0.2221E+02  0.1805E+02  0.5639E+02  0.5604E+02
     -2.059  0.1696E+02  0.1749E+02  0.5732E+02  0.5700E+02
     -2.004  0.2144E+02  0.2400E+02  0.5849E+02  0.5832E+02
     -1.949  0.1259E+02  0.9437E+01  0.5919E+02  0.5884E+02
     -1.894  0.7462E+01  0.1209E+02  0.5960E+02  0.5950E+02
     -1.839  0.2529E+02  0.2028E+02  0.6098E+02  0.6062E+02
     -1.784  0.9282E+01  0.1129E+02  0.6149E+02  0.6124E+02
     -1.729  0.3155E+01  0.7845E+01  0.6167E+02  0.6167E+02
     -1.674  0.1227E+02  0.5599E+01  0.6234E+02  0.6197E+02
     -1.619  0.1229E+02  0.1620E+02  0.6302E+02  0.6286E+02
     -1.564  0.1353E+02  0.1036E+02  0.6376E+02  0.6343E+02
     -1.510  0.9095E+01  0.1232E+02  0.6426E+02  0.6411E+02
     -1.455  0.2911E+02  0.2717E+02  0.6586E+02  0.6560E+02
     -1.400  0.1376E+02  0.9734E+01  0.6661E+02  0.6613E+02
     -1.345  0.5665E+01  0.1331E+02  0.6692E+02  0.6687E+02
     -1.290  0.8322E+01  0.3252E+01  0.6738E+02  0.6704E+02
     -1.235  0.1521E+02  0.1769E+02  0.6821E+02  0.6802E+02
     -1.180  0.1375E+02  0.1149E+02  0.6897E+02  0.6865E+02
     -1.125  0.2010E+02  0.1676E+02  0.7007E+02  0.6957E+02
     -1.070  0.1335E+02  0.1669E+02  0.7080E+02  0.7048E+02
     -1.015  0.1031E+02  0.1116E+02  0.7137E+02  0.7110E+02
     -0.961  0.2325E+02  0.1838E+02  0.7265E+02  0.7210E+02
     -0.906  0.2339E+02  0.2498E+02  0.7393E+02  0.7348E+02
     -0.851  0.4289E+01  0.1259E+02  0.7417E+02  0.7417E+02
     -0.796  0.7214E+01  0.8117E+00  0.7456E+02  0.7421E+02
     -0.741  0.4992E+01  0.1133E+02  0.7484E+02  0.7483E+02
     -0.686  0.3816E+02  0.3029E+02  0.7693E+02  0.7650E+02
     -0.631  0.1170E+02  0.1708E+02  0.7757E+02  0.7743E+02
     -0.576  0.1866E+02  0.1446E+02  0.7860E+02  0.7823E+02
     -0.521  0.8713E+01  0.1074E+02  0.7908E+02  0.7882E+02
     -0.466  0.1400E+02  0.1844E+02  0.7985E+02  0.7983E+02
     -0.412  0.1308E+02  0.7145E+01  0.8056E+02  0.8022E+02
     -0.357  0.1423E+02  0.1212E+02  0.8134E+02  0.8089E+02
     -0.302  0.1015E+02  0.1492E+02  0.8190E+02  0.8171E+02
     -0.247  0.1460E+02  0.7415E+01  0.8270E+02  0.8211E+02
     -0.192  0.3428E+02  0.3354E+02  0.8459E+02  0.8395E+02
     -0.137  0.2197E+02  0.2972E+02  0.8579E+02  0.8559E+02
     -0.082  0.2415E+02  0.1962E+02  0.8712E+02  0.8666E+02
     -0.027  0.2298E+02  0.2547E+02  0.8838E+02  0.8806E+02
      0.028  0.2819E+02  0.2468E+02  0.8993E+02  0.8942E+02
      0.083  0.1519E+02  0.2137E+02  0.9076E+02  0.9059E+02
      0.137  0.1995E+02  0.1436E+02  0.9186E+02  0.9138E+02
      0.192  0.2690E+02  0.3186E+02  0.9333E+02  0.9313E+02
      0.247  0.1820E+02  0.1668E+02  0.9433E+02  0.9404E+02
      0.302  0.3808E+02  0.3317E+02  0.9642E+02  0.9586E+02
      0.357  0.7138E+01  0.1404E+02  0.9681E+02  0.9663E+02
      0.412  0.1255E+02  0.1018E+02  0.9750E+02  0.9719E+02
      0.467  0.1611E+02  0.1855E+02  0.9839E+02  0.9821E+02
      0.522  0.2844E+02  0.2544E+02  0.9995E+02  0.9961E+02
      0.577  0.2833E+02  0.3134E+02  0.1015E+03  0.1013E+03
      0.632  0.2329E+02  0.1526E+02  0.1028E+03  0.1022E+03
      0.686  0.1703E+02  0.2103E+02  0.1037E+03  0.1033E+03
      0.741  0.1525E+02  0.1887E+02  0.1046E+03  0.1044E+03
      0.796  0.1406E+02  0.1015E+02  0.1053E+03  0.1049E+03
      0.851  0.1662E+02  0.2157E+02  0.1062E+03  0.1061E+03
      0.906  0.2200E+02  0.1629E+02  0.1074E+03  0.1070E+03
      0.961  0.9010E+01  0.1653E+02  0.1079E+03  0.1079E+03
      1.016  0.1637E+02  0.1554E+02  0.1088E+03  0.1088E+03
      1.071  0.1933E+02  0.1188E+02  0.1099E+03  0.1094E+03
      1.126  0.2820E+01  0.9446E+01  0.1101E+03  0.1099E+03
      1.181  0.5372E+01  0.5849E+01  0.1104E+03  0.1102E+03
      1.235  0.1520E+02  0.1663E+02  0.1112E+03  0.1112E+03
      1.290  0.1865E+02  0.1418E+02  0.1122E+03  0.1119E+03
      1.345  0.1454E+02  0.1925E+02  0.1130E+03  0.1130E+03
      1.400  0.8967E+01  0.8953E+01  0.1135E+03  0.1135E+03
      1.455  0.5691E+01  0.2150E+01  0.1138E+03  0.1136E+03
      1.510  0.3195E+02  0.2414E+02  0.1156E+03  0.1149E+03
      1.565  0.4853E+01  0.1646E+02  0.1158E+03  0.1158E+03
      1.620  0.1363E+02  0.1077E+02  0.1166E+03  0.1164E+03
      1.675  0.3061E+01  0.5489E+01  0.1167E+03  0.1167E+03
      1.730  0.1098E+02  0.5491E+01  0.1174E+03  0.1170E+03
      1.784  0.1441E+02  0.1925E+02  0.1181E+03  0.1181E+03
      1.839  0.1304E+02  0.1041E+02  0.1189E+03  0.1187E+03
      1.894  0.4153E+02  0.3701E+02  0.1211E+03  0.1207E+03
      1.949  0.1276E+02  0.2047E+02  0.1218E+03  0.1218E+03
      2.004  0.1715E+02  0.8900E+01  0.1228E+03  0.1223E+03
      2.059  0.1167E+02  0.1943E+02  0.1234E+03  0.1234E+03
      2.114  0.1910E+02  0.1254E+02  0.1245E+03  0.1241E+03
      2.169  0.9503E+01  0.1259E+02  0.1250E+03  0.1247E+03
      2.224  0.1141E+02  0.1189E+02  0.1256E+03  0.1254E+03
      2.279  0.2592E+02  0.2151E+02  0.1270E+03  0.1266E+03
      2.333  0.2588E+02  0.2387E+02  0.1285E+03  0.1279E+03
      2.388  0.1087E+02  0.1754E+02  0.1291E+03  0.1289E+03
      2.443  0.2336E+02  0.1996E+02  0.1303E+03  0.1299E+03
      2.498  0.5837E+01  0.1156E+02  0.1307E+03  0.1306E+03
      2.553  0.3212E+02  0.2642E+02  0.1324E+03  0.1320E+03
      2.608  0.2482E+02  0.2267E+02  0.1338E+03  0.1333E+03
      2.663  0.1934E+02  0.1977E+02  0.1349E+03  0.1344E+03
      2.718  0.2537E+02  0.2450E+02  0.1362E+03  0.1357E+03
      2.773  0.1863E+02  0.2274E+02  0.1373E+03  0.1370E+03
      2.828  0.3453E+02  0.2621E+02  0.1392E+03  0.1384E+03
      2.882  0.7767E+01  0.2010E+02  0.1396E+03  0.1395E+03
      2.937  0.1776E+02  0.1398E+02  0.1406E+03  0.1403E+03
      2.992  0.3456E+02  0.3110E+02  0.1425E+03  0.1420E+03
      3.047  0.3467E+02  0.2972E+02  0.1444E+03  0.1436E+03
      3.102  0.1764E+02  0.2809E+02  0.1453E+03  0.1451E+03
      3.157  0.2647E+02  0.1818E+02  0.1468E+03  0.1461E+03
      3.212  0.2339E+02  0.2803E+02  0.1481E+03  0.1477E+03
      3.267  0.2298E+02  0.1697E+02  0.1493E+03  0.1486E+03
      3.322  0.2209E+02  0.3114E+02  0.1505E+03  0.1503E+03
      3.377  0.3398E+02  0.1875E+02  0.1524E+03  0.1514E+03
      3.431  0.2558E+02  0.3659E+02  0.1538E+03  0.1534E+03
      3.486  0.3195E+02  0.2610E+02  0.1556E+03  0.1548E+03
      3.541  0.2618E+02  0.3458E+02  0.1570E+03  0.1567E+03
      3.596  0.2796E+02  0.2401E+02  0.1585E+03  0.1580E+03
      3.651  0.3411E+02  0.3755E+02  0.1604E+03  0.1601E+03
      3.706  0.1931E+02  0.1756E+02  0.1615E+03  0.1610E+03
      3.761  0.2141E+02  0.2338E+02  0.1626E+03  0.1623E+03
      3.816  0.2452E+02  0.2008E+02  0.1640E+03  0.1634E+03
      3.871  0.1464E+02  0.1695E+02  0.1648E+03  0.1644E+03
      3.926  0.3756E+02  0.3868E+02  0.1669E+03  0.1665E+03
      3.980  0.2514E+02  0.1721E+02  0.1682E+03  0.1674E+03
      4.035  0.1856E+02  0.3212E+02  0.1693E+03  0.1692E+03
      4.090  0.1559E+02  0.8986E+01  0.1701E+03  0.1697E+03
      4.145  0.1271E+02  0.1666E+02  0.1708E+03  0.1706E+03
      4.200  0.2098E+02  0.1121E+02  0.1720E+03  0.1712E+03
      4.255  0.2948E+02  0.3518E+02  0.1736E+03  0.1731E+03
      4.310  0.2199E+02  0.2340E+02  0.1748E+03  0.1744E+03
      4.365  0.1662E+02  0.1570E+02  0.1757E+03  0.1753E+03
      4.420  0.1450E+02  0.1753E+02  0.1765E+03  0.1763E+03
      4.475  0.1559E+02  0.1354E+02  0.1774E+03  0.1770E+03
      4.529  0.1335E+02  0.1693E+02  0.1781E+03  0.1779E+03
      4.584  0.1027E+02  0.9248E+01  0.1787E+03  0.1784E+03
      4.639  0.6262E+01  0.7259E+01  0.1790E+03  0.1788E+03
      4.694  0.2325E+02  0.2164E+02  0.1803E+03  0.1800E+03
      4.749  0.2411E+02  0.1589E+02  0.1816E+03  0.1809E+03
      4.804  0.2560E+02  0.3539E+02  0.1830E+03  0.1828E+03
      4.859  0.2643E+02  0.1779E+02  0.1845E+03  0.1838E+03
      4.914  0.2413E+02  0.2267E+02  0.1858E+03  0.1851E+03
      4.969  0.2692E+02  0.2646E+02  0.1873E+03  0.1865E+03
      5.024  0.2934E+02  0.2824E+02  0.1889E+03  0.1881E+03
      5.078  0.2340E+02  0.2345E+02  0.1902E+03  0.1893E+03
      5.133  0.1760E+02  0.2551E+02  0.1911E+03  0.1907E+03
      5.188  0.3904E+02  0.3204E+02  0.1933E+03  0.1925E+03
      5.243  0.1575E+02  0.2742E+02  0.1941E+03  0.1940E+03
      5.298  0.2512E+02  0.1668E+02  0.1955E+03  0.1949E+03
      5.353  0.2365E+02  0.2418E+02  0.1968E+03  0.1963E+03
      5.408  0.2059E+02  0.2160E+02  0.1979E+03  0.1974E+03
      5.463  0.1908E+02  0.2061E+02  0.1990E+03  0.1986E+03
      5.518  0.1316E+02  0.1690E+02  0.1997E+03  0.1995E+03
      5.573  0.1170E+02  0.1220E+02  0.2003E+03  0.2002E+03
      5.627  0.1797E+02  0.1470E+02  0.2013E+03  0.2010E+03
      5.682  0.3955E+02  0.2647E+02  0.2035E+03  0.2024E+03
      5.737  0.9556E+01  0.2778E+02  0.2040E+03  0.2040E+03
      5.792  0.3525E+02  0.2755E+02  0.2060E+03  0.2055E+03
      5.847  0.4265E+02  0.3217E+02  0.2083E+03  0.2072E+03
      5.902  0.2162E+02  0.3596E+02  0.2095E+03  0.2092E+03
      5.957  0.4391E+02  0.3342E+02  0.2119E+03  0.2110E+03
      6.012  0.2180E+02  0.2492E+02  0.2131E+03  0.2124E+03
      6.067  0.3435E+02  0.4011E+02  0.2150E+03  0.2146E+03
      6.122  0.1232E+02  0.1664E+02  0.2157E+03  0.2155E+03
      6.176  0.1840E+02  0.1410E+02  0.2167E+03  0.2163E+03
      6.231  0.3537E+02  0.3497E+02  0.2186E+03  0.2182E+03
      6.286  0.3334E+02  0.2704E+02  0.2204E+03  0.2197E+03
      6.341  0.2475E+02  0.2416E+02  0.2218E+03  0.2210E+03
      6.396  0.2885E+02  0.3919E+02  0.2234E+03  0.2232E+03
      6.451  0.2702E+02  0.1785E+02  0.2249E+03  0.2242E+03
      6.506  0.2445E+02  0.2741E+02  0.2262E+03  0.2257E+03
      6.561  0.2651E+02  0.3203E+02  0.2277E+03  0.2274E+03
      6.616  0.1354E+02  0.9985E+01  0.2284E+03  0.2280E+03
      6.671  0.1967E+02  0.2363E+02  0.2295E+03  0.2293E+03
      6.725  0.2011E+02  0.1870E+02  0.2306E+03  0.2303E+03
      6.780  0.2447E+02  0.2177E+02  0.2319E+03  0.2315E+03
      6.835  0.1124E+01  0.9224E+01  0.2320E+03  0.2320E+03
      6.890  0.0000E+00  0.0000E+00  0.2320E+03  0.2320E+03
      6.945  0.0000E+00  0.0000E+00  0.2320E+03  0.2320E+03
      7.000  0.0000E+00  0.0000E+00  0.2320E+03  0.2320E+03
      7.055  0.0000E+00  0.0000E+00  0.2320E+03  0.2320E+03
      7.110  0.0000E+00  0.0000E+00  0.2320E+03  0.2320E+03
      7.165  0.0000E+00  0.0000E+00  0.2320E+03  0.2320E+03
      7.220  0.0000E+00  0.0000E+00  0.2320E+03  0.2320E+03
      7.274  0.0000E+00  0.0000E+00  0.2320E+03  0.2320E+03
      7.329  0.0000E+00  0.0000E+00  0.2320E+03  0.2320E+03
      7.384  0.0000E+00  0.0000E+00  0.2320E+03  0.2320E+03
      7.439  0.0000E+00  0.0000E+00  0.2320E+03  0.2320E+03
      7.494  0.0000E+00  0.0000E+00  0.2320E+03  0.2320E+03
      7.549  0.0000E+00  0.0000E+00  0.2320E+03  0.2320E+03
