Si and Ge interface calculation         
           1
     9.177114    0.000000    0.000000
     0.000000   19.467602    0.000000
     0.000000    0.000000    7.647603
   Sn
    48
Direct configuration=     1
   0.94351405  0.91213298  0.00000002
   0.69351405  0.52324402  0.10000000
   0.44351405  0.13435519  0.19999990
   0.19351393  0.74546611  0.29999995
   0.94351387  0.35657716  0.39999986
   0.69351387  0.96768808  0.49999997
   0.19351408  0.66213286  0.00000000
   0.94351405  0.27324393  0.09999999
   0.69351411  0.88435507  0.19999997
   0.44351399  0.49546599  0.29999992
   0.19351399  0.10657704  0.39999980
   0.94351387  0.71768808  0.49999982
   0.69351405  0.66213292  0.00000003
   0.44351399  0.27324396  0.10000002
   0.19351402  0.88435507  0.19999997
   0.94351393  0.49546599  0.29999995
   0.69351387  0.10657716  0.39999992
   0.44351381  0.71768808  0.49999982
   0.44351405  0.91213298  0.00000002
   0.19351403  0.52324402  0.09999996
   0.94351405  0.13435519  0.19999997
   0.69351405  0.74546611  0.29999995
   0.44351399  0.35657728  0.39999986
   0.19351393  0.96768832  0.49999997
   0.05648592  0.91213298  0.49999994
   0.30648595  0.52324402  0.59999996
   0.55648595  0.13435519  0.69999993
   0.80648607  0.74546611  0.79999995
   0.05648613  0.35657716  0.89999986
   0.30648613  0.96768808  0.99999988
   0.80648589  0.66213292  0.49999994
   0.05648589  0.27324396  0.60000002
   0.30648589  0.88435507  0.69999993
   0.55648601  0.49546593  0.79999995
   0.80648589  0.10657722  0.89999986
   0.05648613  0.71768808  0.99999988
   0.30648592  0.66213286  0.49999994
   0.55648595  0.27324393  0.59999996
   0.80648589  0.88435507  0.69999993
   0.05648601  0.49546599  0.79999995
   0.30648601  0.10657710  0.89999986
   0.55648625  0.71768808  0.99999976
   0.55648589  0.91213298  0.49999994
   0.80648595  0.52324402  0.59999996
   0.05648589  0.13435519  0.69999993
   0.30648601  0.74546611  0.79999995
   0.55648601  0.35657728  0.89999986
   0.80648613  0.96768832  0.99999988
