 168 168   0   0
  0.2644459E+02  0.1589523E-08  0.1589523E-08  0.2030401E-08  0.5000000E-15
  1.000000000000000E-004
  CAR 
 Si and Ge interface calculation         
      6.78103983     -9.48770046  301      3.73295690      1.00000000
     -9.488  0.0000E+00  0.0000E+00  0.0000E+00  0.0000E+00
     -9.433  0.0000E+00  0.0000E+00  0.0000E+00  0.0000E+00
     -9.379  0.0000E+00  0.0000E+00  0.0000E+00  0.0000E+00
     -9.325  0.0000E+00  0.0000E+00  0.0000E+00  0.0000E+00
     -9.271  0.0000E+00  0.0000E+00  0.0000E+00  0.0000E+00
     -9.217  0.0000E+00  0.0000E+00  0.0000E+00  0.0000E+00
     -9.162  0.0000E+00  0.0000E+00  0.0000E+00  0.0000E+00
     -9.108  0.0000E+00  0.0000E+00  0.0000E+00  0.0000E+00
     -9.054  0.0000E+00  0.0000E+00  0.0000E+00  0.0000E+00
     -9.000  0.0000E+00  0.0000E+00  0.0000E+00  0.0000E+00
     -8.945  0.0000E+00  0.0000E+00  0.0000E+00  0.0000E+00
     -8.891  0.0000E+00  0.0000E+00  0.0000E+00  0.0000E+00
     -8.837  0.0000E+00  0.0000E+00  0.0000E+00  0.0000E+00
     -8.783  0.4466E-05  0.2968E-07  0.2422E-06  0.1610E-08
     -8.728  0.9194E+01  0.8932E+01  0.4986E+00  0.4844E+00
     -8.674  0.2584E-01  0.2880E+00  0.5000E+00  0.5000E+00
     -8.620  0.4060E-08  0.7172E-11  0.5000E+00  0.5000E+00
     -8.566  0.4957E+02  0.3531E+02  0.3188E+01  0.2415E+01
     -8.512  0.5752E+01  0.2001E+02  0.3500E+01  0.3500E+01
     -8.457  0.0000E+00  0.0000E+00  0.3500E+01  0.3500E+01
     -8.403  0.0000E+00  0.0000E+00  0.3500E+01  0.3500E+01
     -8.349  0.1732E-01  0.8150E-03  0.3501E+01  0.3500E+01
     -8.295  0.9203E+01  0.9219E+01  0.4000E+01  0.4000E+01
     -8.240  0.9396E+01  0.1762E+01  0.4510E+01  0.4096E+01
     -8.186  0.4593E+02  0.5356E+02  0.7000E+01  0.7000E+01
     -8.132  0.5526E+02  0.5456E+02  0.9997E+01  0.9959E+01
     -8.078  0.1865E+02  0.1034E+02  0.1101E+02  0.1052E+02
     -8.024  0.3673E+02  0.4573E+02  0.1300E+02  0.1300E+02
     -7.969  0.0000E+00  0.1754E-01  0.1300E+02  0.1300E+02
     -7.915  0.0000E+00  0.0000E+00  0.1300E+02  0.1300E+02
     -7.861  0.5144E-09  0.1220E-11  0.1300E+02  0.1300E+02
     -7.807  0.4554E+02  0.2978E+02  0.1547E+02  0.1462E+02
     -7.752  0.9778E+01  0.2554E+02  0.1600E+02  0.1600E+02
     -7.698  0.1169E-04  0.3575E-06  0.1600E+02  0.1600E+02
     -7.644  0.2752E+02  0.2688E+02  0.1749E+02  0.1746E+02
     -7.590  0.6111E+02  0.4403E+02  0.2081E+02  0.1985E+02
     -7.535  0.7734E+02  0.9500E+02  0.2500E+02  0.2500E+02
     -7.481  0.9215E+01  0.9248E+01  0.2550E+02  0.2550E+02
     -7.427  0.9528E-03  0.2375E-01  0.2550E+02  0.2550E+02
     -7.373  0.8915E-04  0.8442E-06  0.2550E+02  0.2550E+02
     -7.319  0.5493E+02  0.5235E+02  0.2848E+02  0.2834E+02
     -7.264  0.5553E+02  0.5634E+02  0.3149E+02  0.3139E+02
     -7.210  0.1763E+00  0.1950E+01  0.3150E+02  0.3150E+02
     -7.156  0.5534E+02  0.5476E+02  0.3450E+02  0.3447E+02
     -7.102  0.5530E+02  0.5586E+02  0.3750E+02  0.3750E+02
     -7.047  0.0000E+00  0.1401E-01  0.3750E+02  0.3750E+02
     -6.993  0.5143E+01  0.7467E+00  0.3778E+02  0.3754E+02
     -6.939  0.5018E+02  0.5457E+02  0.4050E+02  0.4050E+02
     -6.885  0.3729E+02  0.1529E+02  0.4252E+02  0.4133E+02
     -6.830  0.7409E+02  0.9007E+02  0.4654E+02  0.4621E+02
     -6.776  0.8224E+02  0.8787E+02  0.5100E+02  0.5098E+02
     -6.722  0.2765E+02  0.2805E+02  0.5250E+02  0.5250E+02
     -6.668  0.7357E+02  0.7134E+02  0.5649E+02  0.5637E+02
     -6.614  0.2099E+00  0.2429E+01  0.5650E+02  0.5650E+02
     -6.559  0.9252E+01  0.9223E+01  0.5700E+02  0.5700E+02
     -6.505  0.3221E+02  0.3221E+02  0.5875E+02  0.5875E+02
     -6.451  0.5722E+02  0.5600E+02  0.6185E+02  0.6178E+02
     -6.397  0.1665E+02  0.1491E+02  0.6276E+02  0.6259E+02
     -6.342  0.9580E+02  0.8651E+02  0.6795E+02  0.6728E+02
     -6.288  0.6082E+02  0.6351E+02  0.7125E+02  0.7073E+02
     -6.234  0.9683E+02  0.1064E+03  0.7650E+02  0.7650E+02
     -6.180  0.7208E+01  0.2957E+01  0.7689E+02  0.7666E+02
     -6.125  0.5795E+02  0.6019E+02  0.8003E+02  0.7992E+02
     -6.071  0.3998E+01  0.6003E+01  0.8025E+02  0.8025E+02
     -6.017  0.6537E+02  0.5989E+02  0.8380E+02  0.8350E+02
     -5.963  0.2142E+02  0.2583E+02  0.8496E+02  0.8490E+02
     -5.909  0.5654E+02  0.5726E+02  0.8802E+02  0.8800E+02
     -5.854  0.6872E+02  0.6890E+02  0.9175E+02  0.9174E+02
     -5.800  0.4037E+02  0.3257E+02  0.9394E+02  0.9351E+02
     -5.746  0.4032E+02  0.3476E+02  0.9613E+02  0.9539E+02
     -5.692  0.8988E+02  0.1034E+03  0.1010E+03  0.1010E+03
     -5.637  0.1702E+02  0.1110E+02  0.1019E+03  0.1016E+03
     -5.583  0.1064E+02  0.1656E+02  0.1025E+03  0.1025E+03
     -5.529  0.1252E+01  0.2103E+00  0.1026E+03  0.1025E+03
     -5.475  0.7788E+02  0.5812E+02  0.1068E+03  0.1057E+03
     -5.421  0.6822E+02  0.8074E+02  0.1105E+03  0.1100E+03
     -5.366  0.6572E+02  0.7317E+02  0.1141E+03  0.1140E+03
     -5.312  0.5437E+02  0.4879E+02  0.1170E+03  0.1167E+03
     -5.258  0.4334E+02  0.4816E+02  0.1194E+03  0.1193E+03
     -5.204  0.9313E+02  0.9243E+02  0.1244E+03  0.1243E+03
     -5.149  0.1771E+01  0.4062E+01  0.1245E+03  0.1245E+03
     -5.095  0.3638E+02  0.2746E+02  0.1265E+03  0.1260E+03
     -5.041  0.6315E+02  0.6130E+02  0.1299E+03  0.1293E+03
     -4.987  0.3881E+02  0.4955E+02  0.1320E+03  0.1320E+03
     -4.932  0.5544E+02  0.4783E+02  0.1350E+03  0.1346E+03
     -4.878  0.8765E+02  0.8760E+02  0.1398E+03  0.1393E+03
     -4.824  0.6079E+02  0.6387E+02  0.1431E+03  0.1428E+03
     -4.770  0.5163E+02  0.5461E+02  0.1459E+03  0.1458E+03
     -4.716  0.1217E+03  0.1211E+03  0.1525E+03  0.1523E+03
     -4.661  0.1803E+02  0.1755E+02  0.1534E+03  0.1533E+03
     -4.607  0.4729E+02  0.5003E+02  0.1560E+03  0.1560E+03
     -4.553  0.3812E+02  0.3278E+02  0.1581E+03  0.1578E+03
     -4.499  0.1043E+02  0.1057E+02  0.1586E+03  0.1583E+03
     -4.444  0.4826E+02  0.5349E+02  0.1613E+03  0.1613E+03
     -4.390  0.1868E+02  0.1820E+02  0.1623E+03  0.1622E+03
     -4.336  0.3472E+02  0.2655E+02  0.1641E+03  0.1637E+03
     -4.282  0.1120E+03  0.1186E+03  0.1702E+03  0.1701E+03
     -4.227  0.2175E+02  0.1997E+02  0.1714E+03  0.1712E+03
     -4.173  0.5537E+02  0.5440E+02  0.1744E+03  0.1741E+03
     -4.119  0.4790E+02  0.5277E+02  0.1770E+03  0.1770E+03
     -4.065  0.1349E+02  0.4486E+01  0.1777E+03  0.1772E+03
     -4.011  0.6666E+02  0.6175E+02  0.1813E+03  0.1806E+03
     -3.956  0.3049E+02  0.4440E+02  0.1830E+03  0.1830E+03
     -3.902  0.1381E+02  0.1371E+02  0.1837E+03  0.1837E+03
     -3.848  0.2748E+02  0.2675E+02  0.1852E+03  0.1852E+03
     -3.794  0.5533E+02  0.5417E+02  0.1882E+03  0.1881E+03
     -3.739  0.6342E+02  0.6135E+02  0.1917E+03  0.1915E+03
     -3.685  0.5246E+02  0.4700E+02  0.1945E+03  0.1940E+03
     -3.631  0.2667E+02  0.2637E+02  0.1960E+03  0.1954E+03
     -3.577  0.7603E+02  0.7363E+02  0.2001E+03  0.1994E+03
     -3.522  0.3978E+02  0.5199E+02  0.2022E+03  0.2022E+03
     -3.468  0.4131E+02  0.3543E+02  0.2045E+03  0.2042E+03
     -3.414  0.5617E+02  0.6143E+02  0.2075E+03  0.2075E+03
     -3.360  0.8220E+02  0.8197E+02  0.2120E+03  0.2119E+03
     -3.306  0.1562E+00  0.9769E+00  0.2120E+03  0.2120E+03
     -3.251  0.5089E+02  0.4667E+02  0.2148E+03  0.2145E+03
     -3.197  0.2016E+02  0.1282E+02  0.2159E+03  0.2152E+03
     -3.143  0.8931E+02  0.8974E+02  0.2207E+03  0.2201E+03
     -3.089  0.6512E+02  0.6279E+02  0.2242E+03  0.2235E+03
     -3.034  0.7249E+02  0.8329E+02  0.2282E+03  0.2280E+03
     -2.980  0.2214E+02  0.1274E+02  0.2294E+03  0.2287E+03
     -2.926  0.7412E+02  0.7887E+02  0.2334E+03  0.2330E+03
     -2.872  0.9176E+02  0.9308E+02  0.2384E+03  0.2380E+03
     -2.818  0.9478E+02  0.1004E+03  0.2435E+03  0.2435E+03
     -2.763  0.7095E+01  0.2868E+01  0.2439E+03  0.2436E+03
     -2.709  0.6488E+02  0.6507E+02  0.2474E+03  0.2472E+03
     -2.655  0.7639E+02  0.7483E+02  0.2515E+03  0.2512E+03
     -2.601  0.3563E+02  0.3939E+02  0.2535E+03  0.2534E+03
     -2.546  0.5110E+02  0.5272E+02  0.2562E+03  0.2562E+03
     -2.492  0.7805E-01  0.6379E+00  0.2563E+03  0.2563E+03
     -2.438  0.7295E+02  0.6564E+02  0.2602E+03  0.2598E+03
     -2.384  0.3749E+02  0.4435E+02  0.2622E+03  0.2622E+03
     -2.329  0.4384E+02  0.4176E+02  0.2646E+03  0.2645E+03
     -2.275  0.6010E+02  0.5990E+02  0.2679E+03  0.2677E+03
     -2.221  0.1222E+03  0.1104E+03  0.2745E+03  0.2737E+03
     -2.167  0.1380E+02  0.2834E+02  0.2753E+03  0.2753E+03
     -2.113  0.4134E+02  0.3579E+02  0.2775E+03  0.2772E+03
     -2.058  0.4099E+02  0.4503E+02  0.2797E+03  0.2796E+03
     -2.004  0.1014E+01  0.2238E+01  0.2798E+03  0.2798E+03
     -1.950  0.4023E+02  0.3783E+02  0.2820E+03  0.2818E+03
     -1.896  0.1362E+01  0.3706E+01  0.2820E+03  0.2820E+03
     -1.841  0.5486E+02  0.5519E+02  0.2850E+03  0.2850E+03
     -1.787  0.3850E+02  0.3395E+02  0.2871E+03  0.2868E+03
     -1.733  0.5828E+02  0.6248E+02  0.2902E+03  0.2902E+03
     -1.679  0.4824E+02  0.4059E+02  0.2929E+03  0.2924E+03
     -1.624  0.7112E+01  0.1511E+02  0.2933E+03  0.2933E+03
     -1.570  0.6289E+02  0.5038E+02  0.2967E+03  0.2960E+03
     -1.516  0.8010E+02  0.8841E+02  0.3010E+03  0.3008E+03
     -1.462  0.5830E+02  0.6074E+02  0.3042E+03  0.3041E+03
     -1.408  0.1537E+02  0.1709E+02  0.3050E+03  0.3050E+03
     -1.353  0.4217E+00  0.1366E+00  0.3050E+03  0.3050E+03
     -1.299  0.3747E+02  0.3473E+02  0.3071E+03  0.3069E+03
     -1.245  0.3606E+01  0.6680E+01  0.3072E+03  0.3072E+03
     -1.191  0.5837E-08  0.1538E-10  0.3073E+03  0.3073E+03
     -1.136  0.2552E+02  0.1963E+02  0.3086E+03  0.3083E+03
     -1.082  0.2979E+02  0.3560E+02  0.3102E+03  0.3102E+03
     -1.028  0.1366E-01  0.9582E-01  0.3102E+03  0.3102E+03
     -0.974  0.2628E-01  0.1568E-02  0.3103E+03  0.3103E+03
     -0.919  0.2763E+02  0.2766E+02  0.3117E+03  0.3117E+03
     -0.865  0.0000E+00  0.0000E+00  0.3118E+03  0.3118E+03
     -0.811  0.1564E-10  0.6884E-13  0.3118E+03  0.3118E+03
     -0.757  0.1035E+02  0.5834E+01  0.3123E+03  0.3121E+03
     -0.703  0.3932E+02  0.3742E+02  0.3144E+03  0.3141E+03
     -0.648  0.4102E+02  0.4376E+02  0.3167E+03  0.3165E+03
     -0.594  0.4658E+02  0.4760E+02  0.3192E+03  0.3191E+03
     -0.540  0.5629E+02  0.5863E+02  0.3222E+03  0.3222E+03
     -0.486  0.2562E+01  0.8847E+00  0.3224E+03  0.3223E+03
     -0.431  0.2516E+02  0.2715E+02  0.3237E+03  0.3237E+03
     -0.377  0.0000E+00  0.0000E+00  0.3238E+03  0.3238E+03
     -0.323  0.1121E+01  0.4309E+00  0.3238E+03  0.3238E+03
     -0.269  0.5817E+02  0.5628E+02  0.3270E+03  0.3268E+03
     -0.215  0.9887E+02  0.8080E+02  0.3323E+03  0.3312E+03
     -0.160  0.1007E+03  0.1104E+03  0.3378E+03  0.3372E+03
     -0.106  0.5971E+02  0.6642E+02  0.3410E+03  0.3408E+03
     -0.052  0.1108E+03  0.9959E+02  0.3470E+03  0.3462E+03
      0.002  0.7055E+02  0.7047E+02  0.3509E+03  0.3500E+03
      0.057  0.8459E+02  0.9294E+02  0.3554E+03  0.3551E+03
      0.111  0.8955E+02  0.9575E+02  0.3603E+03  0.3603E+03
      0.165  0.1356E+02  0.1388E+02  0.3610E+03  0.3610E+03
      0.219  0.7287E+02  0.7072E+02  0.3650E+03  0.3648E+03
      0.274  0.1076E+03  0.9815E+02  0.3708E+03  0.3702E+03
      0.328  0.1399E+03  0.1388E+03  0.3784E+03  0.3777E+03
      0.382  0.9614E+02  0.7971E+02  0.3836E+03  0.3820E+03
      0.436  0.9097E+02  0.1151E+03  0.3886E+03  0.3883E+03
      0.490  0.8916E+02  0.8399E+02  0.3934E+03  0.3928E+03
      0.545  0.1203E+03  0.1198E+03  0.3999E+03  0.3993E+03
      0.599  0.5620E+02  0.6455E+02  0.4030E+03  0.4028E+03
      0.653  0.4142E+02  0.3629E+02  0.4052E+03  0.4048E+03
      0.707  0.4972E+02  0.5548E+02  0.4079E+03  0.4078E+03
      0.762  0.5207E+02  0.4497E+02  0.4107E+03  0.4102E+03
      0.816  0.1066E+03  0.9903E+02  0.4165E+03  0.4156E+03
      0.870  0.9428E+02  0.1008E+03  0.4216E+03  0.4211E+03
      0.924  0.1432E+03  0.1498E+03  0.4294E+03  0.4292E+03
      0.979  0.1453E+03  0.1302E+03  0.4373E+03  0.4362E+03
      1.033  0.1282E+03  0.1365E+03  0.4442E+03  0.4436E+03
      1.087  0.1200E+03  0.1219E+03  0.4507E+03  0.4503E+03
      1.141  0.7325E+02  0.6789E+02  0.4547E+03  0.4539E+03
      1.195  0.1453E+03  0.1401E+03  0.4626E+03  0.4615E+03
      1.250  0.7714E+02  0.9196E+02  0.4668E+03  0.4665E+03
      1.304  0.1132E+03  0.1125E+03  0.4729E+03  0.4726E+03
      1.358  0.1283E+03  0.1231E+03  0.4799E+03  0.4793E+03
      1.412  0.9223E+02  0.9529E+02  0.4849E+03  0.4845E+03
      1.467  0.1089E+03  0.1050E+03  0.4908E+03  0.4902E+03
      1.521  0.9520E+02  0.9640E+02  0.4959E+03  0.4954E+03
      1.575  0.1126E+03  0.1104E+03  0.5020E+03  0.5014E+03
      1.629  0.1631E+03  0.1680E+03  0.5109E+03  0.5105E+03
      1.684  0.1182E+03  0.1144E+03  0.5173E+03  0.5167E+03
      1.738  0.1121E+03  0.1133E+03  0.5234E+03  0.5228E+03
      1.792  0.1059E+03  0.9277E+02  0.5291E+03  0.5279E+03
      1.846  0.1251E+03  0.1356E+03  0.5359E+03  0.5352E+03
      1.900  0.9626E+02  0.1010E+03  0.5411E+03  0.5407E+03
      1.955  0.8654E+02  0.8368E+02  0.5458E+03  0.5452E+03
      2.009  0.6967E+02  0.6760E+02  0.5496E+03  0.5489E+03
      2.063  0.9738E+02  0.1005E+03  0.5549E+03  0.5544E+03
      2.117  0.7612E+02  0.8480E+02  0.5590E+03  0.5589E+03
      2.172  0.7545E+02  0.7379E+02  0.5631E+03  0.5630E+03
      2.226  0.1455E+03  0.1284E+03  0.5710E+03  0.5699E+03
      2.280  0.7991E+02  0.9244E+02  0.5753E+03  0.5749E+03
      2.334  0.1103E+03  0.1151E+03  0.5813E+03  0.5812E+03
      2.388  0.9840E+02  0.8632E+02  0.5866E+03  0.5859E+03
      2.443  0.5933E+02  0.6865E+02  0.5899E+03  0.5896E+03
      2.497  0.6611E+02  0.5654E+02  0.5934E+03  0.5926E+03
      2.551  0.9207E+02  0.1008E+03  0.5984E+03  0.5981E+03
      2.605  0.5233E+02  0.4920E+02  0.6013E+03  0.6008E+03
      2.660  0.6724E+02  0.7398E+02  0.6049E+03  0.6048E+03
      2.714  0.7282E+02  0.6886E+02  0.6089E+03  0.6085E+03
      2.768  0.1141E+03  0.1044E+03  0.6151E+03  0.6142E+03
      2.822  0.7882E+02  0.9328E+02  0.6193E+03  0.6192E+03
      2.877  0.9046E+02  0.8462E+02  0.6242E+03  0.6238E+03
      2.931  0.6815E+02  0.7262E+02  0.6279E+03  0.6278E+03
      2.985  0.7747E+02  0.7792E+02  0.6321E+03  0.6320E+03
      3.039  0.4790E+01  0.5387E+01  0.6324E+03  0.6323E+03
      3.093  0.3784E+02  0.2530E+02  0.6344E+03  0.6337E+03
      3.148  0.8869E+02  0.1031E+03  0.6392E+03  0.6392E+03
      3.202  0.1449E+02  0.1241E+02  0.6400E+03  0.6399E+03
      3.256  0.6326E+02  0.5342E+02  0.6435E+03  0.6428E+03
      3.310  0.1135E+03  0.1193E+03  0.6496E+03  0.6493E+03
      3.365  0.2201E+02  0.2296E+02  0.6508E+03  0.6505E+03
      3.419  0.8072E+02  0.5980E+02  0.6552E+03  0.6538E+03
      3.473  0.7013E+02  0.9433E+02  0.6590E+03  0.6589E+03
      3.527  0.2758E+02  0.1917E+02  0.6605E+03  0.6599E+03
      3.582  0.6011E+02  0.7038E+02  0.6638E+03  0.6637E+03
      3.636  0.2780E+02  0.2769E+02  0.6653E+03  0.6652E+03
      3.690  0.6745E+02  0.5556E+02  0.6689E+03  0.6683E+03
      3.744  0.6084E+02  0.6819E+02  0.6722E+03  0.6720E+03
      3.798  0.4152E+02  0.3263E+02  0.6745E+03  0.6737E+03
      3.853  0.8523E+01  0.1884E+02  0.6749E+03  0.6748E+03
      3.907  0.3816E+02  0.4140E+02  0.6770E+03  0.6770E+03
      3.961  0.2273E+01  0.9851E-01  0.6771E+03  0.6770E+03
      4.015  0.3000E+02  0.3221E+02  0.6788E+03  0.6787E+03
      4.070  0.7824E+01  0.6386E+01  0.6792E+03  0.6791E+03
      4.124  0.3396E+02  0.2706E+02  0.6810E+03  0.6806E+03
      4.178  0.2737E+02  0.3570E+02  0.6825E+03  0.6825E+03
      4.232  0.4622E+02  0.4197E+02  0.6850E+03  0.6848E+03
      4.286  0.5503E+02  0.4454E+02  0.6880E+03  0.6872E+03
      4.341  0.3725E+02  0.5185E+02  0.6900E+03  0.6900E+03
      4.395  0.4571E+02  0.3943E+02  0.6925E+03  0.6921E+03
      4.449  0.4450E+02  0.4973E+02  0.6949E+03  0.6948E+03
      4.503  0.3980E+02  0.3662E+02  0.6971E+03  0.6968E+03
      4.558  0.2224E+02  0.2543E+02  0.6983E+03  0.6982E+03
      4.612  0.2242E+02  0.1782E+02  0.6995E+03  0.6992E+03
      4.666  0.1061E+03  0.1052E+03  0.7052E+03  0.7049E+03
      4.720  0.2796E+02  0.3463E+02  0.7068E+03  0.7067E+03
      4.775  0.3735E+02  0.3425E+02  0.7088E+03  0.7086E+03
      4.829  0.7915E+02  0.7425E+02  0.7131E+03  0.7126E+03
      4.883  0.1012E+03  0.1003E+03  0.7186E+03  0.7181E+03
      4.937  0.7961E+02  0.7726E+02  0.7229E+03  0.7223E+03
      4.991  0.7558E+02  0.8563E+02  0.7270E+03  0.7269E+03
      5.046  0.1500E+02  0.1538E+02  0.7278E+03  0.7277E+03
      5.100  0.4153E+02  0.3937E+02  0.7300E+03  0.7299E+03
      5.154  0.6375E+02  0.6148E+02  0.7335E+03  0.7332E+03
      5.208  0.4711E+02  0.4994E+02  0.7360E+03  0.7359E+03
      5.263  0.1119E+03  0.1053E+03  0.7421E+03  0.7416E+03
      5.317  0.1333E+03  0.1341E+03  0.7493E+03  0.7489E+03
      5.371  0.5081E+02  0.5619E+02  0.7521E+03  0.7519E+03
      5.425  0.1015E+03  0.1022E+03  0.7576E+03  0.7575E+03
      5.480  0.6804E+02  0.6577E+02  0.7613E+03  0.7611E+03
      5.534  0.1012E+03  0.1039E+03  0.7668E+03  0.7667E+03
      5.588  0.5230E+02  0.4637E+02  0.7696E+03  0.7692E+03
      5.642  0.1187E+03  0.1164E+03  0.7761E+03  0.7755E+03
      5.696  0.1121E+03  0.1133E+03  0.7821E+03  0.7817E+03
      5.751  0.8987E+02  0.8519E+02  0.7870E+03  0.7863E+03
      5.805  0.8811E+02  0.9300E+02  0.7918E+03  0.7913E+03
      5.859  0.8686E+02  0.8817E+02  0.7965E+03  0.7961E+03
      5.913  0.1182E+03  0.1150E+03  0.8029E+03  0.8024E+03
      5.968  0.7603E+02  0.7636E+02  0.8070E+03  0.8065E+03
      6.022  0.1787E+02  0.2317E+02  0.8080E+03  0.8078E+03
      6.076  0.5840E-01  0.4598E+01  0.8080E+03  0.8080E+03
      6.130  0.0000E+00  0.0000E+00  0.8080E+03  0.8080E+03
      6.185  0.0000E+00  0.0000E+00  0.8080E+03  0.8080E+03
      6.239  0.0000E+00  0.0000E+00  0.8080E+03  0.8080E+03
      6.293  0.0000E+00  0.0000E+00  0.8080E+03  0.8080E+03
      6.347  0.0000E+00  0.0000E+00  0.8080E+03  0.8080E+03
      6.401  0.0000E+00  0.0000E+00  0.8080E+03  0.8080E+03
      6.456  0.0000E+00  0.0000E+00  0.8080E+03  0.8080E+03
      6.510  0.0000E+00  0.0000E+00  0.8080E+03  0.8080E+03
      6.564  0.0000E+00  0.0000E+00  0.8080E+03  0.8080E+03
      6.618  0.0000E+00  0.0000E+00  0.8080E+03  0.8080E+03
      6.673  0.0000E+00  0.0000E+00  0.8080E+03  0.8080E+03
      6.727  0.0000E+00  0.0000E+00  0.8080E+03  0.8080E+03
      6.781  0.0000E+00  0.0000E+00  0.8080E+03  0.8080E+03
