 vasp.6.4.3 19Mar24 (build Oct 22 2024 11:23:12) complex                        
  
 executed on             LinuxIFC date 2025.06.09  05:01:43
 running   64 mpi-ranks, on    4 nodes
 distrk:  each k-point on   64 cores,    1 groups
 distr:  one band on NCORE=  16 cores,    4 groups


--------------------------------------------------------------------------------------------------------


 INCAR:
   SYSTEM = Si and Ge interface calculation
   ISTART = 0
   ICHARG = 2
   LWAVE = .FALSE.
   LREAL = AUTO
   ENCUT = 700
   ENAUG = 900
   ADDGRID = .TRUE.
   LMAXMIX = 6
   LASPH = .TRUE.
   LMIXTAU = .TRUE.
   NCORE = 16
   NELM = 100
   NBANDS = 404
   EDIFF = 1d-7
   AMIX = 0.6
   ISMEAR = 0
   SIGMA = 0.01
   NELECT = 672
   ISPIN = 2
   NUPDOWN = 1
   LVTOT = .FALSE.
   LVHAR = .TRUE.

 POTCAR:    PAW_PBE Sn 08Apr2002                  
 POTCAR:    PAW_PBE Ge 05Jan2001                  
 -----------------------------------------------------------------------------
|                                                                             |
|           W    W    AA    RRRRR   N    N  II  N    N   GGGG   !!!           |
|           W    W   A  A   R    R  NN   N  II  NN   N  G    G  !!!           |
|           W    W  A    A  R    R  N N  N  II  N N  N  G       !!!           |
|           W WW W  AAAAAA  RRRRR   N  N N  II  N  N N  G  GGG   !            |
|           WW  WW  A    A  R   R   N   NN  II  N   NN  G    G                |
|           W    W  A    A  R    R  N    N  II  N    N   GGGG   !!!           |
|                                                                             |
|     You use a magnetic or noncollinear calculation, but did not specify     |
|     the initial magnetic moment with the MAGMOM tag. Note that a            |
|     default of 5.952e-3 will be used for all atoms. This ferromagnetic      |
|     setup may break the symmetry of the crystal, in particular it may       |
|     rule out finding an antiferromagnetic solution. Thence, we              |
|     recommend setting the initial magnetic moment manually or verifying     |
|     carefully that this magnetic setup is desired.                          |
|                                                                             |
 -----------------------------------------------------------------------------

 POTCAR:    PAW_PBE Sn 08Apr2002                  
   VRHFIN =Sn: s2p2                                                                                 
   LEXCH  = PE                                                                                      
   EATOM  =    94.0860 eV,    6.9151 Ry                                                             
                                                                                                    
   TITEL  = PAW_PBE Sn 08Apr2002                                                                    
   LULTRA =        F    use ultrasoft PP ?                                                          
   IUNSCR =        1    unscreen: 0-lin 1-nonlin 2-no                                               
   RPACOR =    2.000    partial core radius                                                         
   POMASS =  118.710; ZVAL   =    4.000    mass and valenz                                          
   RCORE  =    3.000    outmost cutoff radius                                                       
   RWIGS  =    2.960; RWIGS  =    1.566    wigner-seitz radius (au A)                               
   ENMAX  =  103.236; ENMIN  =   77.427 eV                                                          
   ICORE  =        3    local potential                                                             
   LCOR   =        T    correct aug charges                                                         
   LPAW   =        T    paw PP                                                                      
   EAUG   =  263.585                                                                                
   DEXC   =    0.000                                                                                
   RMAX   =    3.078    core radius for proj-oper                                                   
   RAUG   =    1.300    factor for augmentation sphere                                              
   RDEP   =    3.022    radius for radial grids                                                     
   RDEPT  =    2.655    core radius for aug-charge                                                  
                                                                                                    
   Atomic configuration                                                                             
   13 entries                                                                                       
     n  l   j            E        occ.                                                              
     1  0  0.50    -29007.2859   2.0000                                                             
     2  0  0.50     -4378.8056   2.0000                                                             
     2  1  1.50     -3930.4293   6.0000                                                             
     3  0  0.50      -845.0264   2.0000                                                             
     3  1  1.50      -698.5725   6.0000                                                             
     3  2  2.50      -473.2839  10.0000                                                             
     4  0  0.50      -133.9036   2.0000                                                             
     4  1  1.50       -89.6752   6.0000                                                             
     4  2  2.50       -25.8375  10.0000                                                             
     5  0  0.50       -10.5484   2.0000                                                             
     5  1  0.50        -3.6940   2.0000                                                             
     5  2  1.50        -1.3606   0.0000                                                             
     4  3  2.50        -4.0817   0.0000                                                             
   Description                                                                                      
     l       E           TYP  RCUT    TYP  RCUT                                                     
     0    -10.5483727     23  3.000                                                                 
     0     27.2116520     23  3.000                                                                 
     1     -3.6939829     23  3.000                                                                 
     1      1.9821976     23  3.000                                                                 
     2     -1.3605826     23  3.000                                                                 
     3     -2.7211652     23  3.000                                                                 
  local pseudopotential read in
  partial core-charges read in
  partial kinetic energy density read in
  atomic valenz-charges read in
  non local Contribution for L=           0  read in
    real space projection operators read in
  non local Contribution for L=           0  read in
    real space projection operators read in
  non local Contribution for L=           1  read in
    real space projection operators read in
  non local Contribution for L=           1  read in
    real space projection operators read in
  non local Contribution for L=           2  read in
    real space projection operators read in
    PAW grid and wavefunctions read in
 
   number of l-projection  operators is LMAX  =           5
   number of lm-projection operators is LMMAX =          13
 
 POTCAR:    PAW_PBE Ge 05Jan2001                  
   VRHFIN =Ge: s2p2                                                                                 
   LEXCH  = PE                                                                                      
   EATOM  =   104.9960 eV,    7.7170 Ry                                                             
                                                                                                    
   TITEL  = PAW_PBE Ge 05Jan2001                                                                    
   LULTRA =        F    use ultrasoft PP ?                                                          
   IUNSCR =        1    unscreen: 0-lin 1-nonlin 2-no                                               
   RPACOR =    2.170    partial core radius                                                         
   POMASS =   72.610; ZVAL   =    4.000    mass and valenz                                          
   RCORE  =    2.300    outmost cutoff radius                                                       
   RWIGS  =    2.300; RWIGS  =    1.217    wigner-seitz radius (au A)                               
   ENMAX  =  173.807; ENMIN  =  130.355 eV                                                          
   ICORE  =        3    local potential                                                             
   LCOR   =        T    correct aug charges                                                         
   LPAW   =        T    paw PP                                                                      
   EAUG   =  385.843                                                                                
   DEXC   =    0.000                                                                                
   RMAX   =    2.342    core radius for proj-oper                                                   
   RAUG   =    1.300    factor for augmentation sphere                                              
   RDEP   =    2.318    radius for radial grids                                                     
   RDEPT  =    2.103    core radius for aug-charge                                                  
                                                                                                    
   Atomic configuration                                                                             
   10 entries                                                                                       
     n  l   j            E        occ.                                                              
     1  0  0.50    -10959.8463   2.0000                                                             
     2  0  0.50     -1371.6056   2.0000                                                             
     2  1  1.50     -1198.4791   6.0000                                                             
     3  0  0.50      -168.4733   2.0000                                                             
     3  1  1.50      -115.6019   6.0000                                                             
     3  2  2.50       -29.3106  10.0000                                                             
     4  0  0.50       -11.7309   2.0000                                                             
     4  1  0.50        -3.8952   2.0000                                                             
     4  2  1.50        -4.0817   0.0000                                                             
     4  3  2.50        -4.0817   0.0000                                                             
   Description                                                                                      
     l       E           TYP  RCUT    TYP  RCUT                                                     
     0    -11.7309493     23  2.300                                                                 
     0     -7.4578696     23  2.300                                                                 
     1     -3.8952261     23  2.300                                                                 
     1      6.1178114     23  2.300                                                                 
     2     -4.0817478     23  2.300                                                                 
     3     -1.3605826      7  2.300                                                                 
  local pseudopotential read in
  partial core-charges read in
  partial kinetic energy density read in
  atomic valenz-charges read in
  non local Contribution for L=           0  read in
    real space projection operators read in
  non local Contribution for L=           0  read in
    real space projection operators read in
  non local Contribution for L=           1  read in
    real space projection operators read in
  non local Contribution for L=           1  read in
    real space projection operators read in
  non local Contribution for L=           2  read in
    real space projection operators read in
    PAW grid and wavefunctions read in
 
   number of l-projection  operators is LMAX  =           5
   number of lm-projection operators is LMMAX =          13
 
 Optimization of the real space projectors (new method)

 maximal supplied QI-value         = 12.47
 optimisation between [QCUT,QGAM] = [ 12.47, 27.06] = [ 43.56,205.12] Ry 
 Optimized for a Real-space Cutoff    1.58 Angstroem

   l    n(q)    QCUT    max X(q) W(low)/X(q) W(high)/X(q)  e(spline) 
   0     13    12.472    14.688    0.45E-04    0.45E-04    0.25E-05
   0     13    12.472     7.308    0.94E-04    0.11E-03    0.61E-05
   1     12    12.472    45.102    0.34E-03    0.14E-03    0.21E-05
   1     12    12.472    30.691    0.31E-03    0.13E-03    0.20E-05
   2     12    12.472     7.156    0.86E-04    0.11E-03    0.17E-05
 WARNING: PSMAXN for non-local potential too small
          PSMAXN should be >   13.5545592237991       NTYP=           1
 Optimization of the real space projectors (new method)

 maximal supplied QI-value         = 16.25
 optimisation between [QCUT,QGAM] = [ 13.49, 26.98] = [ 50.95,203.80] Ry 
 Optimized for a Real-space Cutoff    1.25 Angstroem

   l    n(q)    QCUT    max X(q) W(low)/X(q) W(high)/X(q)  e(spline) 
   0     10    13.489    65.336    0.91E-04    0.11E-03    0.34E-06
   0     10    13.489    52.220    0.89E-04    0.11E-03    0.34E-06
   1     10    13.489    36.409    0.22E-03    0.27E-03    0.14E-06
   1     10    13.489    21.334    0.21E-03    0.27E-03    0.14E-06
   2      9    13.489     4.673    0.11E-03    0.12E-03    0.19E-06
  PAW_PBE Sn 08Apr2002                  :
 energy of atom  1       EATOM=  -94.0860
 kinetic energy error for atom=    0.0000 (will be added to EATOM!!)
  PAW_PBE Ge 05Jan2001                  :
 energy of atom  2       EATOM= -104.9960
 kinetic energy error for atom=    0.0001 (will be added to EATOM!!)
 
 
 POSCAR: Sn+Ge
  positions in direct lattice
  No initial velocities read in


 exchange-correlation table for PE
   RHO(1)=    0.500       N(1)  =     2000
   RHO(2)=  100.500       N(2)  =     4000
 


--------------------------------------------------------------------------------------------------------


 ion  position               nearest neighbor table
   1  0.000  0.012  0.000- 162 2.64  34 2.81  46 2.81  64 2.81 102 3.34
   2  0.000  0.346  0.185-  35 2.81  47 2.81  65 2.81  10 2.81
   3  0.000  0.679  0.369-  48 2.81  36 2.81  66 2.81  11 2.81  79 3.20
   4  0.333  0.679  0.000- 135 2.62  67 2.81  28 2.81  49 2.81
   5  0.333  0.012  0.185-  68 2.81  29 2.81  13 2.81  50 2.81
   6  0.333  0.346  0.369-  69 2.81  14 2.81  51 2.81  30 2.81
   7  0.667  0.346  0.000- 117 2.60  70 2.81  31 2.81  52 2.81
   8  0.667  0.679  0.185-  71 2.81  16 2.81  32 2.81  53 2.81
   9  0.667  0.012  0.369-  17 2.81  72 2.81  33 2.81  54 2.81
  10  0.000  0.346  0.046-  61 2.81  37 2.81  19 2.81   2 2.81
  11  0.000  0.679  0.231-  62 2.81  20 2.81   3 2.81  38 2.81
  12  0.000  0.012  0.415- 151 2.64  63 2.81  21 2.81  39 2.81
  13  0.333  0.012  0.046-  22 2.81  55 2.81  40 2.81   5 2.81
  14  0.333  0.346  0.231-  23 2.81   6 2.81  41 2.81  56 2.81
  15  0.333  0.679  0.415- 127 2.62  42 2.81  24 2.81  57 2.81 115 3.34
  16  0.667  0.679  0.046-  43 2.81   8 2.81  25 2.81  58 2.81
  17  0.667  0.012  0.231-   9 2.81  44 2.81  26 2.81  59 2.81
  18  0.667  0.346  0.415- 100 2.60  27 2.81  60 2.81  45 2.81
  19  0.167  0.346  0.000- 111 2.60  49 2.81  10 2.81  64 2.81
  20  0.167  0.679  0.185-  50 2.81  11 2.81  28 2.81  65 2.81
  21  0.167  0.012  0.369-  12 2.81  51 2.81  29 2.81  66 2.81
  22  0.500  0.012  0.000- 168 2.64  13 2.81  52 2.81  67 2.81 108 3.34
  23  0.500  0.346  0.185-  14 2.81  68 2.81  53 2.81  31 2.81
  24  0.500  0.679  0.369-  15 2.81  54 2.81  32 2.81  69 2.81  73 3.20
  25  0.833  0.679  0.000- 141 2.62  46 2.81  70 2.81  16 2.81
  26  0.833  0.012  0.185-  47 2.81  17 2.81  34 2.81  71 2.81
  27  0.833  0.346  0.369-  18 2.81  48 2.81  72 2.81  35 2.81
  28  0.167  0.679  0.046-  55 2.81   4 2.81  37 2.81  20 2.81
  29  0.167  0.012  0.231-  56 2.81   5 2.81  38 2.81  21 2.81
  30  0.167  0.346  0.415- 106 2.60  57 2.81   6 2.81  39 2.81
  31  0.500  0.346  0.046-  58 2.81   7 2.81  40 2.81  23 2.81
  32  0.500  0.679  0.231-  41 2.81   8 2.81  59 2.81  24 2.81
  33  0.500  0.012  0.415- 145 2.64  60 2.81  42 2.81   9 2.81
  34  0.833  0.012  0.046-   1 2.81  43 2.81  61 2.81  26 2.81
  35  0.833  0.346  0.231-   2 2.81  44 2.81  62 2.81  27 2.81
  36  0.833  0.679  0.415- 121 2.62   3 2.81  45 2.81  63 2.81 109 3.34
  37  0.000  0.512  0.000- 159 2.64  70 2.81  10 2.81  28 2.81  99 3.34
  38  0.000  0.846  0.185-  71 2.81  46 2.81  29 2.81  11 2.81
  39  0.000  0.179  0.369-  72 2.81  12 2.81  30 2.81  47 2.81  82 3.20
  40  0.333  0.179  0.000- 138 2.62  64 2.81  13 2.81  31 2.81
  41  0.333  0.512  0.185-  65 2.81  32 2.81  14 2.81  49 2.81
  42  0.333  0.846  0.369-  15 2.81  66 2.81  33 2.81  50 2.81
  43  0.667  0.846  0.000- 120 2.60  34 2.81  16 2.81  67 2.81
  44  0.667  0.179  0.185-  35 2.81  17 2.81  52 2.81  68 2.81
  45  0.667  0.512  0.369-  36 2.81  69 2.81  53 2.81  18 2.81
  46  0.000  0.846  0.046-   1 2.81  25 2.81  55 2.81  38 2.81
  47  0.000  0.179  0.231-   2 2.81  26 2.81  56 2.81  39 2.81
  48  0.000  0.512  0.415- 154 2.64   3 2.81  27 2.81  57 2.81
  49  0.333  0.512  0.046-  58 2.81  19 2.81   4 2.81  41 2.81
  50  0.333  0.846  0.231-  59 2.81  20 2.81   5 2.81  42 2.81
  51  0.333  0.179  0.415- 130 2.62   6 2.81  21 2.81  60 2.81 118 3.34
  52  0.667  0.179  0.046-  61 2.81  22 2.81  44 2.81   7 2.81
  53  0.667  0.512  0.231-  62 2.81  23 2.81   8 2.81  45 2.81
  54  0.667  0.846  0.415-  97 2.60  63 2.81  24 2.81   9 2.81
  55  0.167  0.846  0.000- 114 2.60  28 2.81  13 2.81  46 2.81
  56  0.167  0.179  0.185-  29 2.81  64 2.81  14 2.81  47 2.81
  57  0.167  0.512  0.369-  30 2.81  65 2.81  15 2.81  48 2.81
  58  0.500  0.512  0.000- 165 2.64  49 2.81  31 2.81  16 2.81 105 3.34
  59  0.500  0.846  0.185-  50 2.81  67 2.81  32 2.81  17 2.81
  60  0.500  0.179  0.369-  68 2.81  33 2.81  18 2.81  51 2.81  76 3.20
  61  0.833  0.179  0.000- 144 2.62  52 2.81  10 2.81  34 2.81
  62  0.833  0.512  0.185-  53 2.81  11 2.81  35 2.81  70 2.81
  63  0.833  0.846  0.369-  12 2.81  54 2.81  71 2.81  36 2.81
  64  0.167  0.179  0.046-  40 2.81   1 2.81  56 2.81  19 2.81
  65  0.167  0.512  0.231-  57 2.81  41 2.81   2 2.81  20 2.81
  66  0.167  0.846  0.415- 103 2.60  42 2.81   3 2.81  21 2.81
  67  0.500  0.846  0.046-   4 2.81  22 2.81  59 2.81  43 2.81
  68  0.500  0.179  0.231-  60 2.81   5 2.81  23 2.81  44 2.81
  69  0.500  0.512  0.415- 148 2.64   6 2.81  45 2.81  24 2.81
  70  0.833  0.512  0.046-  37 2.81   7 2.81  25 2.81  62 2.81
  71  0.833  0.846  0.231-  38 2.81   8 2.81  63 2.81  26 2.81
  72  0.833  0.179  0.415- 124 2.62  39 2.81   9 2.81  27 2.81 112 3.34
  73  0.498  0.676  0.527- 142 2.44 115 2.44 157 2.44  24 3.20
  74  0.165  0.510  0.687- 116 2.44 143 2.44 158 2.44  94 2.45
  75  0.832  0.343  0.848- 144 2.44 117 2.44 159 2.44  95 2.45
  76  0.498  0.176  0.527- 118 2.44 160 2.44 139 2.44  60 3.20
  77  0.165  0.010  0.687- 119 2.44 140 2.44 161 2.44  91 2.45
  78  0.832  0.843  0.848- 120 2.44 141 2.44 162 2.44  92 2.45
  79  0.998  0.676  0.527- 136 2.44 109 2.44 163 2.44   3 3.20
  80  0.665  0.510  0.687- 137 2.44 110 2.44 164 2.44  88 2.45
  81  0.332  0.343  0.848- 111 2.44 138 2.44 165 2.44  89 2.45
  82  0.998  0.176  0.527- 112 2.44 166 2.44 133 2.44  39 3.20
  83  0.665  0.010  0.687- 134 2.44 167 2.44 113 2.44  85 2.45
  84  0.332  0.843  0.848- 114 2.44 135 2.44 168 2.44  86 2.45
  85  0.665  0.010  0.567-  97 2.44 145 2.44 124 2.44  83 2.45
  86  0.332  0.843  0.728- 146 2.44  98 2.44 125 2.44  84 2.45
  87  0.998  0.676  0.889-  99 2.44 147 2.44 126 2.44
  88  0.665  0.510  0.567- 100 2.44 148 2.44 121 2.44  80 2.45
  89  0.332  0.343  0.728- 149 2.44 122 2.44 101 2.44  81 2.45
  90  0.998  0.176  0.889- 123 2.44 150 2.44 102 2.44
  91  0.165  0.010  0.567- 151 2.44 103 2.44 130 2.44  77 2.45
  92  0.832  0.843  0.728- 152 2.44 104 2.44 131 2.44  78 2.45
  93  0.498  0.676  0.889- 105 2.44 153 2.44 132 2.44
  94  0.165  0.510  0.567- 154 2.44 106 2.44 127 2.44  74 2.45
  95  0.832  0.343  0.728- 155 2.44 107 2.44 128 2.44  75 2.45
  96  0.498  0.176  0.889- 108 2.44 129 2.44 156 2.44
  97  0.748  0.926  0.527-  85 2.44 133 2.44 157 2.44  54 2.60
  98  0.415  0.760  0.687- 134 2.44  86 2.44 158 2.44 115 2.45
  99  0.082  0.593  0.848-  87 2.44 159 2.44 135 2.44 116 2.45  37 3.34
 100  0.748  0.426  0.527- 136 2.44 160 2.44  88 2.44  18 2.60
 101  0.415  0.260  0.687- 137 2.44 161 2.44  89 2.44 118 2.45
 102  0.082  0.093  0.848- 162 2.44  90 2.44 138 2.44 119 2.45   1 3.34
 103  0.248  0.926  0.527-  91 2.44 163 2.44 139 2.44  66 2.60
 104  0.915  0.760  0.687- 140 2.44  92 2.44 164 2.44 109 2.45
 105  0.582  0.593  0.848-  93 2.44 165 2.44 141 2.44 110 2.45  58 3.34
 106  0.248  0.426  0.527- 166 2.44  94 2.44 142 2.44  30 2.60
 107  0.915  0.260  0.687- 167 2.44  95 2.44 143 2.44 112 2.45
 108  0.582  0.093  0.848-  96 2.44 168 2.44 144 2.44 113 2.45  22 3.34
 109  0.915  0.760  0.567-  79 2.44 121 2.44 151 2.44 104 2.45  36 3.34
 110  0.582  0.593  0.728- 122 2.44  80 2.44 152 2.44 105 2.45
 111  0.248  0.426  0.889-  81 2.44 153 2.44 123 2.44  19 2.60
 112  0.915  0.260  0.567- 124 2.44  82 2.44 154 2.44 107 2.45  72 3.34
 113  0.582  0.093  0.728- 125 2.44 155 2.44  83 2.44 108 2.45
 114  0.248  0.926  0.889-  84 2.44 156 2.44 126 2.44  55 2.60
 115  0.415  0.760  0.567-  73 2.44 127 2.44 145 2.44  98 2.45  15 3.34
 116  0.082  0.593  0.728-  74 2.44 128 2.44 146 2.44  99 2.45
 117  0.748  0.426  0.889-  75 2.44 147 2.44 129 2.44   7 2.60
 118  0.415  0.260  0.567-  76 2.44 148 2.44 130 2.44 101 2.45  51 3.34
 119  0.082  0.093  0.728- 149 2.44  77 2.44 131 2.44 102 2.45
 120  0.748  0.926  0.889-  78 2.44 150 2.44 132 2.44  43 2.60
 121  0.748  0.676  0.527- 157 2.44 109 2.44  88 2.44  36 2.62
 122  0.415  0.510  0.687- 110 2.44 158 2.44  89 2.44 142 2.45
 123  0.082  0.343  0.848-  90 2.44 159 2.44 111 2.44 143 2.45
 124  0.748  0.176  0.527- 112 2.44 160 2.44  85 2.44  72 2.62
 125  0.415  0.010  0.687- 113 2.44 161 2.44  86 2.44 139 2.45
 126  0.082  0.843  0.848- 162 2.44 114 2.44  87 2.44 140 2.45
 127  0.248  0.676  0.527- 163 2.44  94 2.44 115 2.44  15 2.62
 128  0.915  0.510  0.687- 164 2.44  95 2.44 116 2.44 136 2.45
 129  0.582  0.343  0.848- 165 2.44  96 2.44 117 2.44 137 2.45
 130  0.248  0.176  0.527- 166 2.44 118 2.44  91 2.44  51 2.62
 131  0.915  0.010  0.687- 167 2.44 119 2.44  92 2.44 133 2.45
 132  0.582  0.843  0.848- 168 2.44  93 2.44 120 2.44 134 2.45
 133  0.915  0.010  0.567- 151 2.44  97 2.44  82 2.44 131 2.45
 134  0.582  0.843  0.728-  98 2.44 152 2.44  83 2.44 132 2.45
 135  0.248  0.676  0.889- 153 2.44  84 2.44  99 2.44   4 2.62
 136  0.915  0.510  0.567-  79 2.44 100 2.44 154 2.44 128 2.45
 137  0.582  0.343  0.728-  80 2.44 101 2.44 155 2.44 129 2.45
 138  0.248  0.176  0.889-  81 2.44 156 2.44 102 2.44  40 2.62
 139  0.415  0.010  0.567- 145 2.44 103 2.44  76 2.44 125 2.45
 140  0.082  0.843  0.728- 104 2.44 146 2.44  77 2.44 126 2.45
 141  0.748  0.676  0.889- 147 2.44  78 2.44 105 2.44  25 2.62
 142  0.415  0.510  0.567-  73 2.44 148 2.44 106 2.44 122 2.45
 143  0.082  0.343  0.728-  74 2.44 149 2.44 107 2.44 123 2.45
 144  0.748  0.176  0.889-  75 2.44 150 2.44 108 2.44  61 2.62
 145  0.498  0.926  0.527- 139 2.44  85 2.44 115 2.44  33 2.64
 146  0.165  0.760  0.687-  86 2.44 140 2.44 116 2.44 163 2.45
 147  0.832  0.593  0.848- 141 2.44  87 2.44 117 2.44 164 2.45
 148  0.498  0.426  0.527- 142 2.44 118 2.44  88 2.44  69 2.64
 149  0.165  0.260  0.687- 119 2.44  89 2.44 143 2.44 166 2.45
 150  0.832  0.093  0.848- 144 2.44 120 2.44  90 2.44 167 2.45
 151  0.998  0.926  0.527- 133 2.44  91 2.44 109 2.44  12 2.64
 152  0.665  0.760  0.687- 134 2.44  92 2.44 110 2.44 157 2.45
 153  0.332  0.593  0.848- 135 2.44 111 2.44  93 2.44 158 2.45
 154  0.998  0.426  0.527-  94 2.44 112 2.44 136 2.44  48 2.64
 155  0.665  0.260  0.687-  95 2.44 113 2.44 137 2.44 160 2.45
 156  0.332  0.093  0.848- 138 2.44 114 2.44  96 2.44 161 2.45
 157  0.665  0.760  0.567- 121 2.44  73 2.44  97 2.44 152 2.45
 158  0.332  0.593  0.728- 122 2.44  98 2.44  74 2.44 153 2.45
 159  0.998  0.426  0.889-  99 2.44 123 2.44  75 2.44  37 2.64
 160  0.665  0.260  0.567- 124 2.44 100 2.44  76 2.44 155 2.45
 161  0.332  0.093  0.728- 125 2.44 101 2.44  77 2.44 156 2.45
 162  0.998  0.926  0.889- 126 2.44 102 2.44  78 2.44   1 2.64
 163  0.165  0.760  0.567- 127 2.44 103 2.44  79 2.44 146 2.45
 164  0.832  0.593  0.728- 128 2.44 104 2.44  80 2.44 147 2.45
 165  0.498  0.426  0.889- 129 2.44 105 2.44  81 2.44  58 2.64
 166  0.165  0.260  0.567- 130 2.44 106 2.44  82 2.44 149 2.45
 167  0.832  0.093  0.728- 131 2.44 107 2.44  83 2.44 150 2.45
 168  0.498  0.926  0.889- 132 2.44 108 2.44  84 2.44  22 2.64
 
  LATTYP: Found a hexagonal cell.
 ALAT       =    15.8952283860
 C/A-ratio  =     1.2773651248
  
  Lattice vectors:
  
 A1 = (  15.8952283860,   0.0000000000,   0.0000000000)
 A2 = (  -7.9476151470,  13.7656726840,   0.0000000000)
 A3 = (   0.0000000000,   0.0000000000,  20.3040103910)


Analysis of symmetry for initial positions (statically):
=====================================================================
 Subroutine PRICEL returns following result:
 
  LATTYP: Found a hexagonal cell.
 ALAT       =     7.9476141056
 C/A-ratio  =     2.5547302777
  
  Lattice vectors:
  
 A1 = (   7.9476141056,   0.0000001514,   0.0000000609)
 A2 = (  -3.9738078676,   6.8828368513,   0.0000000000)
 A3 = (   0.0000000000,   0.0000000000,  20.3040103910)
 
   4 primitive cells build up your supercell.
 

 Routine SETGRP: Setting up the symmetry group for a 
 hexagonal supercell.


 Subroutine GETGRP returns: Found  1 space group operations
 (whereof  1 operations were pure point group operations)
 out of a pool of 24 trial point group operations.


The static configuration has the point symmetry C_1 .


Analysis of symmetry for dynamics (positions and initial velocities):
=====================================================================
 Subroutine PRICEL returns following result:
 
  LATTYP: Found a hexagonal cell.
 ALAT       =     7.9476141056
 C/A-ratio  =     2.5547302777
  
  Lattice vectors:
  
 A1 = (   7.9476141056,   0.0000001514,   0.0000000609)
 A2 = (  -3.9738078676,   6.8828368513,   0.0000000000)
 A3 = (   0.0000000000,   0.0000000000,  20.3040103910)
 
   4 primitive cells build up your supercell.
 

 Routine SETGRP: Setting up the symmetry group for a 
 hexagonal supercell.


 Subroutine GETGRP returns: Found  1 space group operations
 (whereof  1 operations were pure point group operations)
 out of a pool of 24 trial point group operations.


The dynamic configuration has the point symmetry C_1 .


Analysis of structural, dynamic, and magnetic symmetry:
=====================================================================
 Subroutine PRICEL returns following result:
 
  LATTYP: Found a hexagonal cell.
 ALAT       =     7.9476141056
 C/A-ratio  =     2.5547302777
  
  Lattice vectors:
  
 A1 = (   7.9476141056,   0.0000001514,   0.0000000609)
 A2 = (  -3.9738078676,   6.8828368513,   0.0000000000)
 A3 = (   0.0000000000,   0.0000000000,  20.3040103910)
 
   4 primitive cells build up your supercell.
 

 Routine SETGRP: Setting up the symmetry group for a 
 hexagonal supercell.


 Subroutine GETGRP returns: Found  1 space group operations
 (whereof  1 operations were pure point group operations)
 out of a pool of 24 trial point group operations.


The overall configuration has the point symmetry C_1 .


 Subroutine INISYM returns: Found  1 space group operations
 (whereof  1 operations are pure point group operations),
 and found     4 'primitive' translations


----------------------------------------------------------------------------------------

                                     Primitive cell                                     

  volume of cell :    1110.6727

  direct lattice vectors                    reciprocal lattice vectors
     7.947614106  0.000000151  0.000000061     0.125823923  0.072644479  0.000000000
    -3.973807868  6.882836851  0.000000000    -0.000000003  0.145288928  0.000000000
     0.000000000  0.000000000 20.304010391    -0.000000000 -0.000000000  0.049251354

  length of vectors
     7.947614106  7.947615497 20.304010391     0.145288954  0.145288928  0.049251354

  position of ions in fractional coordinates (direct lattice)
     0.000000000  0.024818344  0.000000020
     0.000000000  0.691485041  0.184522256
     0.000000000  0.358151885  0.369044572
     0.666666746  0.358151671  0.000000025
     0.666666866  0.024818619  0.184522251
     0.666666746  0.691485242  0.369044508
     0.333333402  0.691485033  0.000000029
     0.333333402  0.358151640  0.184522255
     0.333333374  0.024818649  0.369044571
     0.000000000  0.691485041  0.046130553
     0.000000000  0.358151885  0.230652809
     0.000000000  0.024818418  0.415175140
     0.666666866  0.024818381  0.046130511
     0.666666866  0.691485004  0.230652834
     0.666666866  0.358151849  0.415175075
     0.333333374  0.358151522  0.046130589
     0.333333402  0.024818649  0.230652793
     0.333333374  0.691484915  0.415175139
     0.996850968  0.352855850  0.526596302
     0.330184222  0.019522419  0.687477528
     0.663517476  0.686188775  0.848358686
     0.330184222  0.019522181  0.566816627
     0.663517476  0.686188775  0.727697725
     0.996850848  0.352855612  0.888578945
     0.496850968  0.852855534  0.526596307
     0.830184222  0.519522349  0.687477524
     0.163517476  0.186188919  0.848358691
     0.830184340  0.519522469  0.566816563
     0.163517714  0.186189157  0.727697730
     0.496850968  0.852855534  0.888578950
     0.496850968  0.352855883  0.526596307
     0.830184222  0.019522386  0.687477524
     0.163517476  0.686188808  0.848358691
     0.830184340  0.019522386  0.566816563
     0.163517476  0.686188808  0.727697670
     0.496850968  0.352855645  0.888578950
     0.996850968  0.852855739  0.526596302
     0.330184222  0.519522322  0.687477528
     0.663517476  0.186188886  0.848358686
     0.330184460  0.519522562  0.566816567
     0.663517714  0.186189124  0.727697725
     0.996850968  0.852855501  0.888578945

  ion indices of the primitive-cell ions
   primitive index   ion index
                 1           1
                 2          38
                 3          39
                 4          61
                 5          26
                 6          63
                 7          55
                 8          56
                 9          21
                10          46
                11          47
                12          12
                13          34
                14          71
                15          72
                16          64
                17          29
                18          66
                19          82
                20          77
                21          78
                22          91
                23          92
                24          90
                25         103
                26         107
                27         102
                28         112
                29         119
                30         114
                31         130
                32         131
                33         126
                34         133
                35         140
                36         138
                37         151
                38         149
                39         150
                40         166
                41         167
                42         162

----------------------------------------------------------------------------------------

 
 
 KPOINTS: Automatic KPOINTS generated             

Automatic generation of k-mesh.
 Grid dimensions read from file:
 generate k-points for:    2    2    2

 Generating k-lattice:

  Cartesian coordinates                     Fractional coordinates (reciprocal lattice)
     0.031455981  0.018161120  0.000000000     0.500000000 -0.000000000  0.000000000
     0.000000000  0.036322235  0.000000000     0.000000000  0.500000000  0.000000000
     0.000000000  0.000000000  0.024625677     0.000000000  0.000000000  0.500000000

  Length of vectors
     0.036322238  0.036322235  0.024625677

  Shift w.r.t. Gamma in fractional coordinates (k-lattice)
     0.000000000  0.000000000  0.000000000

 
 Subroutine IBZKPT returns following result:
 ===========================================
 
 Found      8 irreducible k-points:
 
 Following reciprocal coordinates:
            Coordinates               Weight
  0.000000  0.000000  0.000000      1.000000
  0.500000  0.000000  0.000000      1.000000
  0.000000  0.500000  0.000000      1.000000
  0.500000  0.500000  0.000000      1.000000
  0.000000  0.000000  0.500000      1.000000
  0.500000  0.000000  0.500000      1.000000
  0.000000  0.500000  0.500000      1.000000
  0.500000  0.500000  0.500000      1.000000
 
 Following cartesian coordinates:
            Coordinates               Weight
  0.000000  0.000000  0.000000      1.000000
  0.031456  0.018161  0.000000      1.000000
  0.000000  0.036322  0.000000      1.000000
  0.031456  0.054483  0.000000      1.000000
  0.000000  0.000000  0.024626      1.000000
  0.031456  0.018161  0.024626      1.000000
  0.000000  0.036322  0.024626      1.000000
  0.031456  0.054483  0.024626      1.000000
 


--------------------------------------------------------------------------------------------------------




 Dimension of arrays:
   k-points           NKPTS =      8   k-points in BZ     NKDIM =      8   number of bands    NBANDS=    404
   number of dos      NEDOS =    301   number of ions     NIONS =    168
   non local maximal  LDIM  =      5   non local SUM 2l+1 LMDIM =     13
   total plane-waves  NPLWV = ******
   max r-space proj   IRMAX =   6105   max aug-charges    IRDMAX= 283212
   dimension x,y,z NGX =   108 NGY =  108 NGZ =  140
   dimension x,y,z NGXF=   216 NGYF=  216 NGZF=  280
   support grid    NGXF=   432 NGYF=  432 NGZF=  560
   ions per type =              72  96
   NGX,Y,Z   is equivalent  to a cutoff of  11.30, 11.30, 11.46 a.u.
   NGXF,Y,Z  is equivalent  to a cutoff of  22.59, 22.59, 22.93 a.u.

 SYSTEM =  Si and Ge interface calculation         
 POSCAR =  Sn+Ge                                   

 Startparameter for this run:
   NWRITE =      2    write-flag & timer
   PREC   = normal    normal or accurate (medium, high low for compatibility)
   ISTART =      0    job   : 0-new  1-cont  2-samecut
   ICHARG =      2    charge: 1-file 2-atom 10-const
   ISPIN  =      2    spin polarized calculation?
   LNONCOLLINEAR =      F non collinear calculations
   LSORBIT =      F    spin-orbit coupling
   INIWAV =      1    electr: 0-lowe 1-rand  2-diag
   LASPH  =      T    aspherical Exc in radial PAW
 Electronic Relaxation 1
   ENCUT  =  700.0 eV  51.45 Ry    7.17 a.u.  34.29 34.29 43.80*2*pi/ulx,y,z
   ENINI  =  700.0     initial cutoff
   ENAUG  =  900.0 eV  augmentation charge cutoff
   NELM   =    100;   NELMIN=  2; NELMDL= -5     # of ELM steps 
   EDIFF  = 0.1E-06   stopping-criterion for ELM
   LREAL  =      T    real-space projection
   NLSPLINE    = F    spline interpolate recip. space projectors
   LCOMPAT=      F    compatible to vasp.4.4
   GGA_COMPAT  = T    GGA compatible to vasp.4.4-vasp.4.6
   LMAXPAW     = -100 max onsite density
   LMAXMIX     =    6 max onsite mixed and CHGCAR
   VOSKOWN=      0    Vosko Wilk Nusair interpolation
   ROPT   =   -0.00050  -0.00050
 Ionic relaxation
   EDIFFG = 0.1E-05   stopping-criterion for IOM
   NSW    =      0    number of steps for IOM
   NBLOCK =      1;   KBLOCK =      1    inner block; outer block 
   IBRION =     -1    ionic relax: 0-MD 1-quasi-New 2-CG
   NFREE  =      0    steps in history (QN), initial steepest desc. (CG)
   ISIF   =      2    stress and relaxation
   IWAVPR =     10    prediction:  0-non 1-charg 2-wave 3-comb
   ISYM   =      2    0-nonsym 1-usesym 2-fastsym
   LCORR  =      T    Harris-Foulkes like correction to forces

   POTIM  = 0.5000    time-step for ionic-motion
   TEIN   =    0.0    initial temperature
   TEBEG  =    0.0;   TEEND  =   0.0 temperature during run
   SMASS  =  -3.00    Nose mass-parameter (am)
   estimated Nose-frequenzy (Omega)   =  0.10E-29 period in steps = 0.13E+47 mass=  -0.577E-26a.u.
   SCALEE = 1.0000    scale energy and forces
   NPACO  =    256;   APACO  = 10.0  distance and # of slots for P.C.
   PSTRESS=    0.0 pullay stress

  Mass of Ions in am
   POMASS = 118.71 72.61
  Ionic Valenz
   ZVAL   =   4.00  4.00
  Atomic Wigner-Seitz radii
   RWIGS  =  -1.00 -1.00
  virtual crystal weights 
   VCA    =   1.00  1.00
   NELECT =     672.0000    total number of electrons
   NUPDOWN=       1.0000    fix difference up-down

 DOS related values:
   EMIN   =  10.00;   EMAX   =-10.00  energy-range for DOS
   EFERMI =   0.00;   METHOD = LEGACY      
   ISMEAR =     0;   SIGMA  =   0.01  broadening in eV -4-tet -1-fermi 0-gaus

 Electronic relaxation 2 (details)
   IALGO  =     38    algorithm
   LDIAG  =      T    sub-space diagonalisation (order eigenvalues)
   LSUBROT=      F    optimize rotation matrix (better conditioning)
   TURBO    =      0    0=normal 1=particle mesh
   IRESTART =      0    0=no restart 2=restart with 2 vectors
   NREBOOT  =      0    no. of reboots
   NMIN     =      0    reboot dimension
   EREF     =   0.00    reference energy to select bands
   IMIX   =      4    mixing-type and parameters
     AMIX     =   0.60;   BMIX     =  1.00
     AMIX_MAG =   2.40;   BMIX_MAG =  1.00
     AMIN     =   0.10
     WC   =   100.;   INIMIX=   1;  MIXPRE=   1;  MAXMIX= -45

 Intra band minimization:
   WEIMIN = 0.0000     energy-eigenvalue tresh-hold
   EBREAK =  0.62E-10  absolut break condition
   DEPER  =   0.30     relativ break condition  

   TIME   =   0.40     timestep for ELM

  volume/ion in A,a.u.               =      26.44       178.46
  Fermi-wavevector in a.u.,A,eV,Ry     =   0.872267  1.648345 10.351979  0.760849
  Thomas-Fermi vector in A             =   1.991492
 
 Write flags
   LWAVE        =      F    write WAVECAR
   LDOWNSAMPLE  =      F    k-point downsampling of WAVECAR
   LCHARG       =      T    write CHGCAR
   LVTOT        =      F    write LOCPOT, total local potential
   LVHAR        =      T    write LOCPOT, Hartree potential only
   WRT_POTENTIAL=  hartree ionic  ! write potential to hdf5 file
   LELF         =      F    write electronic localiz. function (ELF)
   LORBIT       =      0    0 simple, 1 ext, 2 COOP (PROOUT), +10 PAW based schemes


 Dipole corrections
   LMONO      =      F    monopole corrections only (constant potential shift)
   LDIPOL     =      F    correct potential (dipole corrections)
   IDIPOL     =      0    1-x, 2-y, 3-z, 4-all directions 
   EPSILON    =  1.0000000 bulk dielectric constant
   LVACPOTAV  =      F  vacuum potentials using an averaging scheme for the charge density
   VACPOTFLAT =  0.1000000 required flatness to determine vacuum potential
 Exchange correlation treatment:
   GGA     = PE    functional components
   XC_C    = 1    coefficients multiplying the functional components
   LIBXC   =     F    Libxc                    
   VOSKOWN =     0    Vosko Wilk Nusair interpolation
   LHFCALC =     F    Hartree Fock is set to
   LHFONE  =     F    Hartree Fock one center treatment
   AEXX    =    0.0000 exact exchange contribution

 Parameters of functionals:
   PE:
     No parameter
 
 Van der Waals corrections
   IVDW    =     0    specifies the selected vdW correction

 Linear response parameters
   LEPSILON=     F    determine dielectric tensor
   LRPA    =     F    only Hartree local field effects (RPA)
   LNABLA  =     F    use nabla operator in PAW spheres
   LVEL    =     F    velocity operator in full k-point grid
   CSHIFT  =0.1000    complex shift for real part using Kramers Kronig
   OMEGAMAX=  -1.0    maximum frequency
   DEG_THRESHOLD= 0.2000000E-02 threshold for treating states as degnerate
   RTIME   =   -0.100 relaxation time in fs
  (WPLASMAI=    0.000 imaginary part of plasma frequency in eV, 0.658/RTIME)
   DFIELD  = 0.0000000 0.0000000 0.0000000 field for delta impulse in time
 
  Optional k-point grid parameters
   LKPOINTS_OPT  =     F    use optional k-point grid
   KPOINTS_OPT_MODE=     1    mode for optional k-point grid
 
 Orbital magnetization related:
   ORBITALMAG=     F  switch on orbital magnetization
   LCHIMAG   =     F  perturbation theory with respect to B field
   DQ        =  0.001000  dq finite difference perturbation B field
   LLRAUG    =     F  two centre corrections for induced B field
   LBONE     =     F  B-component reconstruction in AE one-centre
   LVGVCALC  =     T  calculate vGv susceptibility
   LVGVAPPL  =     F  apply vGv susceptibility instead of pGv for G=0

 Random number generation:
   RANDOM_GENERATOR = DEFAULT
   PCG_SEED         = not used


--------------------------------------------------------------------------------------------------------


 Static calculation
 charge density and potential will be updated during run
 spin polarized calculation
 Variant of blocked Davidson
 Davidson routine will perform the subspace rotation
 perform sub-space diagonalisation
    after iterative eigenvector-optimisation
 modified Broyden-mixing scheme, WC =      100.0
 initial mixing is a Kerker type mixing with AMIX =  0.6000 and BMIX =      1.0000
 Hartree-type preconditioning will be used
 using additional bands           68
 real space projection scheme for non local part
 use partial core corrections
 calculate Harris-corrections to forces 
   (improved forces if not selfconsistent)
 use gradient corrections 
 use of overlap-Matrix (Vanderbilt PP)
 Gauss-broadening in eV      SIGMA  =   0.01


--------------------------------------------------------------------------------------------------------


  energy-cutoff  :      700.00
  volume of cell :     4442.69
      direct lattice vectors                 reciprocal lattice vectors
    15.895228386  0.000000000  0.000000000     0.062911962  0.036322239  0.000000000
    -7.947615147 13.765672684  0.000000000     0.000000000  0.072644470  0.000000000
     0.000000000  0.000000000 20.304010391     0.000000000  0.000000000  0.049251354

  length of vectors
    15.895228386 15.895229818 20.304010391     0.072644477  0.072644470  0.049251354


 
 k-points in units of 2pi/SCALE and weight: Automatic KPOINTS generated             
   0.00000000  0.00000000  0.00000000       0.125
   0.03145598  0.01816112  0.00000000       0.125
   0.00000000  0.03632224  0.00000000       0.125
   0.03145598  0.05448335  0.00000000       0.125
   0.00000000  0.00000000  0.02462568       0.125
   0.03145598  0.01816112  0.02462568       0.125
   0.00000000  0.03632224  0.02462568       0.125
   0.03145598  0.05448335  0.02462568       0.125
 
 k-points in reciprocal lattice and weights: Automatic KPOINTS generated             
   0.00000000  0.00000000  0.00000000       0.125
   0.50000000  0.00000000  0.00000000       0.125
   0.00000000  0.50000000  0.00000000       0.125
   0.50000000  0.50000000  0.00000000       0.125
   0.00000000  0.00000000  0.50000000       0.125
   0.50000000  0.00000000  0.50000000       0.125
   0.00000000  0.50000000  0.50000000       0.125
   0.50000000  0.50000000  0.50000000       0.125
 
 position of ions in fractional coordinates (direct lattice) 
   0.00000000  0.01240917  0.00000002
   0.00000000  0.34574255  0.18452229
   0.00000000  0.67907596  0.36904457
   0.33333337  0.67907590  0.00000000
   0.33333340  0.01240933  0.18452227
   0.33333340  0.34574270  0.36904451
   0.66666675  0.34574255  0.00000002
   0.66666675  0.67907596  0.18452227
   0.66666675  0.01240933  0.36904451
   0.00000000  0.34574255  0.04613059
   0.00000000  0.67907590  0.23065287
   0.00000000  0.01240921  0.41517514
   0.33333340  0.01240921  0.04613056
   0.33333340  0.34574258  0.23065284
   0.33333340  0.67907608  0.41517514
   0.66666675  0.67907596  0.04613060
   0.66666675  0.01240933  0.23065287
   0.66666675  0.34574258  0.41517508
   0.16666669  0.34574255  0.00000002
   0.16666670  0.67907596  0.18452229
   0.16666669  0.01240933  0.36904457
   0.50000000  0.01240918  0.00000002
   0.50000000  0.34574258  0.18452229
   0.50000000  0.67907602  0.36904457
   0.83333343  0.67907590  0.00000000
   0.83333343  0.01240933  0.18452226
   0.83333343  0.34574270  0.36904457
   0.16666670  0.67907596  0.04613055
   0.16666670  0.01240933  0.23065279
   0.16666672  0.34574282  0.41517508
   0.50000006  0.34574258  0.04613055
   0.50000006  0.67907596  0.23065284
   0.50000006  0.01240933  0.41517508
   0.83333343  0.01240921  0.04613052
   0.83333343  0.34574258  0.23065279
   0.83333343  0.67907596  0.41517508
   0.00000000  0.51240921  0.00000001
   0.00000000  0.84574258  0.18452226
   0.00000000  0.17907596  0.36904457
   0.33333337  0.17907585  0.00000002
   0.33333337  0.51240927  0.18452229
   0.33333337  0.84574264  0.36904457
   0.66666675  0.84574258  0.00000000
   0.66666675  0.17907596  0.18452226
   0.66666681  0.51240945  0.36904457
   0.00000000  0.84574258  0.04613055
   0.00000000  0.17907596  0.23065281
   0.00000000  0.51240945  0.41517508
   0.33333337  0.51240921  0.04613055
   0.33333337  0.84574258  0.23065281
   0.33333340  0.17907608  0.41517514
   0.66666675  0.17907581  0.04613055
   0.66666675  0.51240921  0.23065282
   0.66666675  0.84574264  0.41517514
   0.16666670  0.84574258  0.00000003
   0.16666670  0.17907584  0.18452226
   0.16666670  0.51240933  0.36904451
   0.50000000  0.51240921  0.00000001
   0.50000000  0.84574264  0.18452229
   0.50000006  0.17907596  0.36904451
   0.83333337  0.17907587  0.00000003
   0.83333337  0.51240927  0.18452229
   0.83333337  0.84574270  0.36904451
   0.16666669  0.17907578  0.04613059
   0.16666669  0.51240915  0.23065288
   0.16666669  0.84574252  0.41517514
   0.50000000  0.84574252  0.04613059
   0.50000000  0.17907596  0.23065288
   0.50000000  0.51240921  0.41517514
   0.83333343  0.51240921  0.04613056
   0.83333343  0.84574258  0.23065284
   0.83333343  0.17907596  0.41517508
   0.49842548  0.67642784  0.52659631
   0.16509211  0.50976115  0.68747753
   0.83175874  0.34309441  0.84835863
   0.49842548  0.17642796  0.52659631
   0.16509211  0.00976121  0.68747753
   0.83175874  0.84309447  0.84835869
   0.99842548  0.67642790  0.52659631
   0.66509211  0.50976115  0.68747753
   0.33175874  0.34309444  0.84835869
   0.99842548  0.17642796  0.52659631
   0.66509211  0.00976121  0.68747753
   0.33175874  0.84309447  0.84835869
   0.66509217  0.00976121  0.56681663
   0.33175874  0.84309447  0.72769773
   0.99842542  0.67642772  0.88857895
   0.66509217  0.50976121  0.56681663
   0.33175874  0.34309453  0.72769773
   0.99842542  0.17642784  0.88857895
   0.16509211  0.00976110  0.56681663
   0.83175874  0.84309447  0.72769773
   0.49842548  0.67642772  0.88857895
   0.16509211  0.50976121  0.56681663
   0.83175874  0.34309453  0.72769773
   0.49842548  0.17642784  0.88857895
   0.74842548  0.92642796  0.52659631
   0.41509211  0.75976121  0.68747753
   0.08175862  0.59309447  0.84835869
   0.74842554  0.42642793  0.52659631
   0.41509211  0.25976121  0.68747753
   0.08175874  0.09309447  0.84835869
   0.24842548  0.92642784  0.52659631
   0.91509211  0.75976121  0.68747753
   0.58175862  0.59309441  0.84835869
   0.24842548  0.42642790  0.52659631
   0.91509211  0.25976121  0.68747753
   0.58175868  0.09309447  0.84835869
   0.91509217  0.75976121  0.56681657
   0.58175874  0.59309447  0.72769773
   0.24842548  0.42642778  0.88857895
   0.91509217  0.25976127  0.56681657
   0.58175874  0.09309459  0.72769773
   0.24842548  0.92642784  0.88857895
   0.41509223  0.75976121  0.56681657
   0.08175886  0.59309447  0.72769767
   0.74842548  0.42642778  0.88857895
   0.41509223  0.25976127  0.56681657
   0.08175886  0.09309459  0.72769773
   0.74842548  0.92642784  0.88857895
   0.74842548  0.67642790  0.52659631
   0.41509211  0.50976115  0.68747753
   0.08175874  0.34309441  0.84835869
   0.74842554  0.17642796  0.52659631
   0.41509211  0.00976121  0.68747753
   0.08175874  0.84309447  0.84835869
   0.24842548  0.67642790  0.52659631
   0.91509211  0.50976121  0.68747753
   0.58175862  0.34309441  0.84835869
   0.24842548  0.17642796  0.52659631
   0.91509211  0.00976121  0.68747753
   0.58175868  0.84309447  0.84835869
   0.91509217  0.00976121  0.56681657
   0.58175874  0.84309447  0.72769767
   0.24842548  0.67642778  0.88857895
   0.91509217  0.50976133  0.56681657
   0.58175874  0.34309456  0.72769773
   0.24842548  0.17642784  0.88857895
   0.41509223  0.00976121  0.56681657
   0.08175874  0.84309447  0.72769767
   0.74842548  0.67642778  0.88857883
   0.41509223  0.50976127  0.56681657
   0.08175886  0.34309456  0.72769773
   0.74842548  0.17642784  0.88857895
   0.49842548  0.92642796  0.52659631
   0.16509223  0.75976121  0.68747753
   0.83175874  0.59309447  0.84835863
   0.49842548  0.42642793  0.52659631
   0.16509211  0.25976118  0.68747753
   0.83175874  0.09309447  0.84835869
   0.99842548  0.92642796  0.52659631
   0.66509211  0.75976121  0.68747753
   0.33175874  0.59309441  0.84835869
   0.99842548  0.42642793  0.52659631
   0.66509211  0.25976121  0.68747753
   0.33175874  0.09309447  0.84835869
   0.66509223  0.75976121  0.56681657
   0.33175886  0.59309453  0.72769773
   0.99842548  0.42642784  0.88857895
   0.66509223  0.25976127  0.56681657
   0.33175886  0.09309459  0.72769773
   0.99842548  0.92642784  0.88857895
   0.16509223  0.75976121  0.56681663
   0.83175886  0.59309453  0.72769773
   0.49842548  0.42642784  0.88857895
   0.16509223  0.25976130  0.56681657
   0.83175886  0.09309459  0.72769773
   0.49842548  0.92642784  0.88857895
 
 position of ions in cartesian coordinates  (Angst):
  -0.09862333  0.17082061  0.00000041
  -2.74782875  4.75937882  3.74654241
  -5.39703435  9.34793734  7.49308482
  -0.09862379  9.34793653  0.00000000
   5.19978600  0.17082276  3.74654211
   2.55058063  4.75938087  7.49308363
   7.84899143  4.75937882  0.00000032
   5.19978583  9.34793734  3.74654211
  10.49819561  0.17082276  7.49308363
  -2.74782875  4.75937882  0.93663590
  -5.39703388  9.34793653  4.68317825
  -0.09862363  0.17082112  8.42972036
   5.19978694  0.17082112  0.93663545
   2.55058158  4.75937923  4.68317764
  -0.09862474  9.34793899  8.42972036
   5.19978583  9.34793734  0.93663614
  10.49819561  0.17082276  4.68317825
   7.84899120  4.75937923  8.42971914
  -0.09862370  4.75937882  0.00000032
  -2.74782908  9.34793734  3.74654241
   2.55058048  0.17082276  7.49308482
   7.84899077  0.17082077  0.00000047
   5.19978520  4.75937923  3.74654241
   2.55057936  9.34793816  7.49308482
   7.84899135  9.34793653  0.00000000
  13.14740067  0.17082276  3.74654180
  10.49819530  4.75938087  7.49308482
  -2.74782908  9.34793734  0.93663523
   2.55058071  0.17082276  4.68317673
  -0.09862537  4.75938252  8.42971914
   5.19978616  4.75937923  0.93663523
   2.55058079  9.34793734  4.68317764
   7.84899058  0.17082276  8.42971914
  13.14740161  0.17082112  0.93663448
  10.49819625  4.75937923  4.68317673
   7.84899089  9.34793734  8.42971914
  -4.07243120  7.05365747  0.00000030
  -6.72163656 11.64221557  3.74654180
  -1.42322678  2.46510100  7.49308482
   3.87518414  2.46509956  0.00000032
   1.22597842  7.05365829  3.74654241
  -1.42322695 11.64221640  7.49308482
   3.87518362 11.64221557  0.00000000
   9.17359340  2.46510100  3.74654180
   6.52438804  7.05366076  7.49308482
  -6.72163656 11.64221557  0.93663523
  -1.42322678  2.46510100  4.68317703
  -4.07243310  7.05366076  8.42971914
   1.22597889  7.05365747  0.93663523
  -1.42322647 11.64221557  4.68317703
   3.87518284  2.46510265  8.42972036
   9.17359459  2.46509894  0.93663515
   6.52438899  7.05365747  4.68317734
   3.87518315 11.64221640  8.42972036
  -4.07243129 11.64221557  0.00000061
   1.22597944  2.46509936  3.74654180
  -1.42322687  7.05365910  7.49308363
   3.87518299  7.05365747  0.00000028
   1.22597715 11.64221640  3.74654241
   6.52438837  2.46510100  7.49308363
  11.82279821  2.46509977  0.00000061
   9.17359261  7.05365829  3.74654241
   6.52438678 11.64221721  7.49308363
   1.22597969  2.46509855  0.93663598
  -1.42322568  7.05365665  4.68317855
  -4.07243104 11.64221476  8.42972036
   1.22597810 11.64221476  0.93663606
   6.52438741  2.46510100  4.68317855
   3.87518299  7.05365747  8.42972036
   9.17359404  7.05365747  0.93663545
   6.52438868 11.64221557  4.68317764
  11.82279846  2.46510100  8.42971914
   2.54659875  9.31148425 10.69201691
  -1.42720867  7.01720521 13.95855089
  10.49421278  4.72292533 17.22508246
   6.52040537  2.42864955 10.69201691
   2.54659844  0.13436968 13.95855089
   6.52040474 11.60576249 17.22508368
  10.49421246  9.31148508 10.69201691
   6.52040553  7.01720521 13.95855089
   2.54659836  4.72292573 17.22508368
  14.46801957  2.42864955 10.69201691
  10.49421263  0.13436968 13.95855089
  -1.42720945 11.60576249 17.22508368
  10.49421357  0.13436968 11.50865070
  -1.42720945 11.60576249 14.77518227
  10.49421293  9.31148262 18.04171625
   6.52040599  7.01720602 11.50865070
   2.54659764  4.72292697 14.77518227
  14.46801956  2.42864791 18.04171625
   2.54659938  0.13436804 11.50865070
   6.52040474 11.60576249 14.77518227
   2.54659969  9.31148262 18.04171625
  -1.42720914  7.01720602 11.50865070
  10.49421183  4.72292697 14.77518227
   6.52040632  2.42864791 18.04171625
   4.53350111 12.75290406 10.69201691
   0.55969417 10.45862419 13.95855089
  -3.41411467  8.16434432 17.22508368
   8.50730985  5.87006732 10.69201691
   4.53350175  3.57578785 13.95855089
   0.55969481  1.28150798 17.22508368
  -3.41411214 12.75290242 10.69201691
   8.50730837 10.45862419 13.95855089
   4.53349999  8.16434351 17.22508368
   0.55969496  5.87006691 10.69201691
  12.48111594  3.57578785 13.95855089
   8.50730805  1.28150798 17.22508368
   8.50730930 10.45862419 11.50864949
   4.53350143  8.16434432 14.77518227
   0.55969591  5.87006527 18.04171625
  12.48111640  3.57578867 11.50864949
   8.50730806  1.28150961 14.77518227
  -3.41411214 12.75290242 18.04171625
   0.55969606 10.45862419 11.50864949
  -3.41411087  8.16434432 14.77518105
   8.50731010  5.87006527 18.04171625
   4.53350316  3.57578867 11.50864949
   0.55969575  1.28150961 14.77518227
   4.53350206 12.75290242 18.04171625
   6.52040537  9.31148508 10.69201691
   2.54659843  7.01720521 13.95855089
  -1.42720851  4.72292533 17.22508368
  10.49421341  2.42864955 10.69201691
   6.52040553  0.13436968 13.95855089
  -5.40101655 11.60576249 17.22508368
  -1.42720883  9.31148508 10.69201691
  10.49421215  7.01720602 13.95855089
   6.52040378  4.72292533 17.22508368
   2.54659828  2.42864955 10.69201691
  14.46801973  0.13436968 13.95855089
   2.54659669 11.60576249 17.22508368
  14.46802066  0.13436968 11.50864949
   2.54659764 11.60576249 14.77518105
  -1.42720788  9.31148344 18.04171625
  10.49421214  7.01720766 11.50864949
   6.52040450  4.72292739 14.77518227
   2.54659922  2.42864791 18.04171625
   6.52040742  0.13436968 11.50864949
  -5.40101655 11.60576249 14.77518105
   6.52040631  9.31148344 18.04171384
   2.54659937  7.01720684 11.50864949
  -1.42720780  4.72292739 14.77518227
  10.49421342  2.42864791 18.04171625
   0.55969401 12.75290406 10.69201691
  -3.41411103 10.45862419 13.95855089
   8.50730853  8.16434432 17.22508246
   4.53350182  5.87006732 10.69201691
   0.55969489  3.57578743 13.95855089
  12.48111610  1.28150798 17.22508368
   8.50730821 12.75290406 10.69201691
   4.53350127 10.45862419 13.95855089
   0.55969480  8.16434351 17.22508368
  12.48111601  5.87006732 10.69201691
   8.50730884  3.57578785 13.95855089
   4.53350191  1.28150798 17.22508368
   4.53350316 10.45862419 11.50864949
   0.55969575  8.16434514 14.77518227
  12.48111673  5.87006608 18.04171625
   8.50731026  3.57578867 11.50864949
   4.53350285  1.28150961 14.77518227
   8.50730915 12.75290242 18.04171625
  -3.41411103 10.45862419 11.50865070
   8.50730994  8.16434514 14.77518227
   4.53350253  5.87006608 18.04171625
   0.55969583  3.57578909 11.50864949
  12.48111704  1.28150961 14.77518227
   0.55969496 12.75290242 18.04171625
 


--------------------------------------------------------------------------------------------------------


 k-point     1 :   0.0000 0.0000 0.0000  plane waves:  186879
 k-point     2 :   0.5000 0.0000 0.0000  plane waves:  186842
 k-point     3 :   0.0000 0.5000 0.0000  plane waves:  186842
 k-point     4 :   0.5000 0.5000 0.0000  plane waves:  186842
 k-point     5 :   0.0000 0.0000 0.5000  plane waves:  186880
 k-point     6 :   0.5000 0.0000 0.5000  plane waves:  186856
 k-point     7 :   0.0000 0.5000 0.5000  plane waves:  186856
 k-point     8 :   0.5000 0.5000 0.5000  plane waves:  186856

 maximum and minimum number of plane-waves per node :     11726    11620

 maximum number of plane-waves:    186880
 maximum index in each direction: 
   IXMAX=   34   IYMAX=   34   IZMAX=   43
   IXMIN=  -34   IYMIN=  -34   IZMIN=  -44


 real space projection operators:
  total allocation   :      71163.62 KBytes
  max/ min on nodes  :       4669.03       3879.28


 parallel 3D FFT for wavefunctions:
    minimum data exchange during FFTs selected (reduces bandwidth)
 parallel 3D FFT for charge:
    minimum data exchange during FFTs selected (reduces bandwidth)


 total amount of memory used by VASP MPI-rank0   422162. kBytes
=======================================================================

   base      :      30000. kBytes
   nonlr-proj:      23014. kBytes
   fftplans  :      34260. kBytes
   grid      :      27955. kBytes
   one-center:        178. kBytes
   wavefun   :     306755. kBytes
 
     INWAV:  cpu time      0.0000: real time      0.0002
 Broyden mixing: mesh for mixing (old mesh)
   NGX = 69   NGY = 69   NGZ = 87
  (NGX  =216   NGY  =216   NGZ  =280)
  gives a total of 414207 points

 initial charge density was supplied:
 charge density of overlapping atoms calculated
 number of electron     672.0000000 magnetization       1.0000000
 keeping initial charge density in first step


--------------------------------------------------------------------------------------------------------


 Maximum index for non-local projection operator          416
 Maximum index for augmentation-charges         4666 (set IRDMAX)


--------------------------------------------------------------------------------------------------------


 First call to EWALD:  gamma=   0.108
 Maximum number of real-space cells 3x 3x 2
 Maximum number of reciprocal cells 3x 3x 3

    FEWALD:  cpu time      0.0053: real time      0.0053


--------------------------------------- Ionic step        1  -------------------------------------------




--------------------------------------- Iteration      1(   1)  ---------------------------------------


    POTLOK:  cpu time      0.4135: real time      0.4171
    SETDIJ:  cpu time      2.5719: real time      2.5901
     EDDAV:  cpu time     76.2981: real time     77.0264
       DOS:  cpu time      0.0053: real time      0.0054
    --------------------------------------------
      LOOP:  cpu time     79.2888: real time     80.0389

 eigenvalue-minimisations  : 12928
 total energy-change (2. order) : 0.3404471E+04  (-0.2827612E+05)
 number of electron     672.0000000 magnetization       1.0000000
 augmentation part      672.0000000 magnetization       1.0000000

 Free energy of the ion-electron system (eV)
  ---------------------------------------------------
  alpha Z        PSCENC =      1034.43981023
  Ewald energy   TEWEN  =    -14154.81858012
  -Hartree energ DENC   =     -4384.11767027
  -exchange      EXHF   =         0.00000000
  -V(xc)+E(xc)   XCENC  =     -9232.52663340
  PAW double counting   =     22099.84193803   -11791.56227843
  entropy T*S    EENTRO =        -0.00229562
  eigenvalues    EBANDS =      2979.41895812
  atomic energy  EATOM  =     16853.79812076
  Solvation  Ediel_sol  =         0.00000000
  ---------------------------------------------------
  free energy    TOTEN  =      3404.47136930 eV

  energy without entropy =     3404.47366493  energy(sigma->0) =     3404.47251711


--------------------------------------------------------------------------------------------------------




--------------------------------------- Iteration      1(   2)  ---------------------------------------


     EDDAV:  cpu time     85.8260: real time     86.6656
       DOS:  cpu time      0.0041: real time      0.0042
    --------------------------------------------
      LOOP:  cpu time     85.8302: real time     86.6697

 eigenvalue-minimisations  : 15112
 total energy-change (2. order) :-0.3675609E+04  (-0.3551728E+04)
 number of electron     672.0000000 magnetization       1.0000000
 augmentation part      672.0000000 magnetization       1.0000000

 Free energy of the ion-electron system (eV)
  ---------------------------------------------------
  alpha Z        PSCENC =      1034.43981023
  Ewald energy   TEWEN  =    -14154.81858012
  -Hartree energ DENC   =     -4384.11767027
  -exchange      EXHF   =         0.00000000
  -V(xc)+E(xc)   XCENC  =     -9232.52663340
  PAW double counting   =     22099.84193803   -11791.56227843
  entropy T*S    EENTRO =        -0.00147516
  eigenvalues    EBANDS =      -696.19118967
  atomic energy  EATOM  =     16853.79812076
  Solvation  Ediel_sol  =         0.00000000
  ---------------------------------------------------
  free energy    TOTEN  =      -271.13795803 eV

  energy without entropy =     -271.13648287  energy(sigma->0) =     -271.13722045


--------------------------------------------------------------------------------------------------------




--------------------------------------- Iteration      1(   3)  ---------------------------------------


     EDDAV:  cpu time     89.7634: real time     90.6297
       DOS:  cpu time      0.0044: real time      0.0044
    --------------------------------------------
      LOOP:  cpu time     89.7678: real time     90.6342

 eigenvalue-minimisations  : 15960
 total energy-change (2. order) :-0.4037151E+03  (-0.3914798E+03)
 number of electron     672.0000000 magnetization       1.0000000
 augmentation part      672.0000000 magnetization       1.0000000

 Free energy of the ion-electron system (eV)
  ---------------------------------------------------
  alpha Z        PSCENC =      1034.43981023
  Ewald energy   TEWEN  =    -14154.81858012
  -Hartree energ DENC   =     -4384.11767027
  -exchange      EXHF   =         0.00000000
  -V(xc)+E(xc)   XCENC  =     -9232.52663340
  PAW double counting   =     22099.84193803   -11791.56227843
  entropy T*S    EENTRO =        -0.00200434
  eigenvalues    EBANDS =     -1099.90575734
  atomic energy  EATOM  =     16853.79812076
  Solvation  Ediel_sol  =         0.00000000
  ---------------------------------------------------
  free energy    TOTEN  =      -674.85305487 eV

  energy without entropy =     -674.85105053  energy(sigma->0) =     -674.85205270


--------------------------------------------------------------------------------------------------------




--------------------------------------- Iteration      1(   4)  ---------------------------------------


     EDDAV:  cpu time     87.8492: real time     88.6761
       DOS:  cpu time      0.0043: real time      0.0043
    --------------------------------------------
      LOOP:  cpu time     87.8535: real time     88.6804

 eigenvalue-minimisations  : 15560
 total energy-change (2. order) :-0.1648416E+02  (-0.1616281E+02)
 number of electron     672.0000000 magnetization       1.0000000
 augmentation part      672.0000000 magnetization       1.0000000

 Free energy of the ion-electron system (eV)
  ---------------------------------------------------
  alpha Z        PSCENC =      1034.43981023
  Ewald energy   TEWEN  =    -14154.81858012
  -Hartree energ DENC   =     -4384.11767027
  -exchange      EXHF   =         0.00000000
  -V(xc)+E(xc)   XCENC  =     -9232.52663340
  PAW double counting   =     22099.84193803   -11791.56227843
  entropy T*S    EENTRO =        -0.00234509
  eigenvalues    EBANDS =     -1116.38957540
  atomic energy  EATOM  =     16853.79812076
  Solvation  Ediel_sol  =         0.00000000
  ---------------------------------------------------
  free energy    TOTEN  =      -691.33721369 eV

  energy without entropy =     -691.33486860  energy(sigma->0) =     -691.33604114


--------------------------------------------------------------------------------------------------------




--------------------------------------- Iteration      1(   5)  ---------------------------------------


     EDDAV:  cpu time     94.2442: real time     95.1556
       DOS:  cpu time      0.0050: real time      0.0051
    CHARGE:  cpu time      4.5848: real time      4.6340
    MIXING:  cpu time      0.0203: real time      0.0204
    --------------------------------------------
      LOOP:  cpu time     98.8544: real time     99.8151

 eigenvalue-minimisations  : 16992
 total energy-change (2. order) :-0.6956505E+00  (-0.6906323E+00)
 number of electron     671.9999993 magnetization       1.0000000
 augmentation part     -141.4110209 magnetization      -0.1415529

 Broyden mixing:
  rms(total) = 0.28894E+01    rms(broyden)= 0.28894E+01
  rms(prec ) = 0.30933E+01
  weight for this iteration     100.00

 Free energy of the ion-electron system (eV)
  ---------------------------------------------------
  alpha Z        PSCENC =      1034.43981023
  Ewald energy   TEWEN  =    -14154.81858012
  -Hartree energ DENC   =     -4384.11767027
  -exchange      EXHF   =         0.00000000
  -V(xc)+E(xc)   XCENC  =     -9232.52663340
  PAW double counting   =     22099.84193803   -11791.56227843
  entropy T*S    EENTRO =        -0.00233313
  eigenvalues    EBANDS =     -1117.08523785
  atomic energy  EATOM  =     16853.79812076
  Solvation  Ediel_sol  =         0.00000000
  ---------------------------------------------------
  free energy    TOTEN  =      -692.03286417 eV

  energy without entropy =     -692.03053104  energy(sigma->0) =     -692.03169760


--------------------------------------------------------------------------------------------------------




--------------------------------------- Iteration      1(   6)  ---------------------------------------


    POTLOK:  cpu time      0.3978: real time      0.4021
    SETDIJ:  cpu time      2.5583: real time      2.5761
     EDDAV:  cpu time    106.4248: real time    107.5155
       DOS:  cpu time      0.0035: real time      0.0035
    CHARGE:  cpu time      4.6659: real time      4.7164
    MIXING:  cpu time      0.0203: real time      0.0209
    --------------------------------------------
      LOOP:  cpu time    114.0705: real time    115.2344

 eigenvalue-minimisations  : 19584
 total energy-change (2. order) : 0.9056069E+01  (-0.1781356E+01)
 number of electron     671.9999993 magnetization       1.0000000
 augmentation part     -141.4895111 magnetization      -0.1102600

 Broyden mixing:
  rms(total) = 0.14211E+01    rms(broyden)= 0.14211E+01
  rms(prec ) = 0.15593E+01
  weight for this iteration     100.00

 eigenvalues of (default mixing * dielectric matrix)
  average eigenvalue GAMMA=   1.7653
  1.7653

 Free energy of the ion-electron system (eV)
  ---------------------------------------------------
  alpha Z        PSCENC =      1034.43981023
  Ewald energy   TEWEN  =    -14154.81858012
  -Hartree energ DENC   =     -4552.81015548
  -exchange      EXHF   =         0.00000000
  -V(xc)+E(xc)   XCENC  =     -9204.80133806
  PAW double counting   =     31568.36916184   -21282.18282712
  entropy T*S    EENTRO =        -0.00666312
  eigenvalues    EBANDS =      -944.96432424
  atomic energy  EATOM  =     16853.79812076
  Solvation  Ediel_sol  =         0.00000000
  ---------------------------------------------------
  free energy    TOTEN  =      -682.97679531 eV

  energy without entropy =     -682.97013219  energy(sigma->0) =     -682.97346375


--------------------------------------------------------------------------------------------------------




--------------------------------------- Iteration      1(   7)  ---------------------------------------


    POTLOK:  cpu time      0.3985: real time      0.4026
    SETDIJ:  cpu time      2.5720: real time      2.5896
     EDDAV:  cpu time     92.5680: real time     93.5185
       DOS:  cpu time      0.0075: real time      0.0075
    CHARGE:  cpu time      4.6560: real time      4.7073
    MIXING:  cpu time      0.0100: real time      0.0100
    --------------------------------------------
      LOOP:  cpu time    100.2120: real time    101.2356

 eigenvalue-minimisations  : 16456
 total energy-change (2. order) :-0.4640312E+00  (-0.2020570E+01)
 number of electron     671.9999993 magnetization       1.0000000
 augmentation part     -140.5679198 magnetization      -0.1369421

 Broyden mixing:
  rms(total) = 0.59552E+00    rms(broyden)= 0.59552E+00
  rms(prec ) = 0.94612E+00
  weight for this iteration     100.00

 eigenvalues of (default mixing * dielectric matrix)
  average eigenvalue GAMMA=   1.2023
  1.8742  0.5305

 Free energy of the ion-electron system (eV)
  ---------------------------------------------------
  alpha Z        PSCENC =      1034.43981023
  Ewald energy   TEWEN  =    -14154.81858012
  -Hartree energ DENC   =     -4577.98231076
  -exchange      EXHF   =         0.00000000
  -V(xc)+E(xc)   XCENC  =     -9187.33313152
  PAW double counting   =     39419.32769016   -29148.16830013
  entropy T*S    EENTRO =        -0.00395800
  eigenvalues    EBANDS =      -922.70016717
  atomic energy  EATOM  =     16853.79812076
  Solvation  Ediel_sol  =         0.00000000
  ---------------------------------------------------
  free energy    TOTEN  =      -683.44082655 eV

  energy without entropy =     -683.43686855  energy(sigma->0) =     -683.43884755


--------------------------------------------------------------------------------------------------------




--------------------------------------- Iteration      1(   8)  ---------------------------------------


    POTLOK:  cpu time      0.3981: real time      0.4020
    SETDIJ:  cpu time      2.5716: real time      2.5897
     EDDAV:  cpu time     91.0659: real time     92.0200
       DOS:  cpu time      0.0054: real time      0.0054
    CHARGE:  cpu time      4.6421: real time      4.6938
    MIXING:  cpu time      0.0184: real time      0.0185
    --------------------------------------------
      LOOP:  cpu time     98.7014: real time     99.7294

 eigenvalue-minimisations  : 16128
 total energy-change (2. order) : 0.1803283E+01  (-0.6400194E+00)
 number of electron     671.9999993 magnetization       1.0000000
 augmentation part     -140.4024374 magnetization      -0.1052322

 Broyden mixing:
  rms(total) = 0.17461E+00    rms(broyden)= 0.17461E+00
  rms(prec ) = 0.24890E+00
  weight for this iteration     100.00

 eigenvalues of (default mixing * dielectric matrix)
  average eigenvalue GAMMA=   1.0651
  1.8780  0.6587  0.6587

 Free energy of the ion-electron system (eV)
  ---------------------------------------------------
  alpha Z        PSCENC =      1034.43981023
  Ewald energy   TEWEN  =    -14154.81858012
  -Hartree energ DENC   =     -4617.86790147
  -exchange      EXHF   =         0.00000000
  -V(xc)+E(xc)   XCENC  =     -9180.63751653
  PAW double counting   =     43163.83762884   -32898.23482586
  entropy T*S    EENTRO =        -0.00533623
  eigenvalues    EBANDS =      -882.14894316
  atomic energy  EATOM  =     16853.79812076
  Solvation  Ediel_sol  =         0.00000000
  ---------------------------------------------------
  free energy    TOTEN  =      -681.63754355 eV

  energy without entropy =     -681.63220732  energy(sigma->0) =     -681.63487543


--------------------------------------------------------------------------------------------------------




--------------------------------------- Iteration      1(   9)  ---------------------------------------


    POTLOK:  cpu time      0.3990: real time      0.4022
    SETDIJ:  cpu time      2.5827: real time      2.6001
     EDDAV:  cpu time     88.5072: real time     89.3776
       DOS:  cpu time      0.0057: real time      0.0057
    CHARGE:  cpu time      4.6437: real time      4.6921
    MIXING:  cpu time      0.0211: real time      0.0215
    --------------------------------------------
      LOOP:  cpu time     96.1594: real time     97.0993

 eigenvalue-minimisations  : 15560
 total energy-change (2. order) :-0.4575859E-01  (-0.2042420E+00)
 number of electron     671.9999993 magnetization       1.0000000
 augmentation part     -140.3351530 magnetization      -0.0961280

 Broyden mixing:
  rms(total) = 0.10874E+00    rms(broyden)= 0.10874E+00
  rms(prec ) = 0.11931E+00
  weight for this iteration     100.00

 eigenvalues of (default mixing * dielectric matrix)
  average eigenvalue GAMMA=   1.1098
  1.7119  1.6167  0.5554  0.5554

 Free energy of the ion-electron system (eV)
  ---------------------------------------------------
  alpha Z        PSCENC =      1034.43981023
  Ewald energy   TEWEN  =    -14154.81858012
  -Hartree energ DENC   =     -4623.21676143
  -exchange      EXHF   =         0.00000000
  -V(xc)+E(xc)   XCENC  =     -9180.40036864
  PAW double counting   =     43697.09698561   -33431.87283169
  entropy T*S    EENTRO =        -0.00441012
  eigenvalues    EBANDS =      -876.70526673
  atomic energy  EATOM  =     16853.79812076
  Solvation  Ediel_sol  =         0.00000000
  ---------------------------------------------------
  free energy    TOTEN  =      -681.68330213 eV

  energy without entropy =     -681.67889201  energy(sigma->0) =     -681.68109707


--------------------------------------------------------------------------------------------------------




--------------------------------------- Iteration      1(  10)  ---------------------------------------


    POTLOK:  cpu time      0.3968: real time      0.4011
    SETDIJ:  cpu time      2.5804: real time      2.5961
     EDDAV:  cpu time     86.1896: real time     87.0315
       DOS:  cpu time      0.0061: real time      0.0061
    CHARGE:  cpu time      4.6440: real time      4.6924
    MIXING:  cpu time      0.0189: real time      0.0190
    --------------------------------------------
      LOOP:  cpu time     93.8358: real time     94.7463

 eigenvalue-minimisations  : 15048
 total energy-change (2. order) : 0.3518241E-02  (-0.3219567E-01)
 number of electron     671.9999993 magnetization       1.0000000
 augmentation part     -140.3561956 magnetization      -0.0960968

 Broyden mixing:
  rms(total) = 0.54676E-01    rms(broyden)= 0.54676E-01
  rms(prec ) = 0.58965E-01
  weight for this iteration     100.00

 eigenvalues of (default mixing * dielectric matrix)
  average eigenvalue GAMMA=   1.1031
  1.8532  1.8532  0.6035  0.6035  0.6021

 Free energy of the ion-electron system (eV)
  ---------------------------------------------------
  alpha Z        PSCENC =      1034.43981023
  Ewald energy   TEWEN  =    -14154.81858012
  -Hartree energ DENC   =     -4616.45703745
  -exchange      EXHF   =         0.00000000
  -V(xc)+E(xc)   XCENC  =     -9180.95617843
  PAW double counting   =     43811.14352846   -33545.68178450
  entropy T*S    EENTRO =        -0.00415284
  eigenvalues    EBANDS =      -883.14351000
  atomic energy  EATOM  =     16853.79812076
  Solvation  Ediel_sol  =         0.00000000
  ---------------------------------------------------
  free energy    TOTEN  =      -681.67978389 eV

  energy without entropy =     -681.67563105  energy(sigma->0) =     -681.67770747


--------------------------------------------------------------------------------------------------------




--------------------------------------- Iteration      1(  11)  ---------------------------------------


    POTLOK:  cpu time      0.3955: real time      0.4004
    SETDIJ:  cpu time      2.5643: real time      2.5812
     EDDAV:  cpu time     88.0480: real time     88.9646
       DOS:  cpu time      0.0062: real time      0.0063
    CHARGE:  cpu time      4.4848: real time      4.5345
    MIXING:  cpu time      0.0140: real time      0.0141
    --------------------------------------------
      LOOP:  cpu time     95.5128: real time     96.5011

 eigenvalue-minimisations  : 15448
 total energy-change (2. order) :-0.2227050E-02  (-0.5108821E-02)
 number of electron     671.9999993 magnetization       1.0000000
 augmentation part     -140.3651491 magnetization      -0.0925374

 Broyden mixing:
  rms(total) = 0.27549E-01    rms(broyden)= 0.27549E-01
  rms(prec ) = 0.29139E-01
  weight for this iteration     100.00

 eigenvalues of (default mixing * dielectric matrix)
  average eigenvalue GAMMA=   1.0355
  1.8249  1.8249  0.6700  0.6700  0.6625  0.5610

 Free energy of the ion-electron system (eV)
  ---------------------------------------------------
  alpha Z        PSCENC =      1034.43981023
  Ewald energy   TEWEN  =    -14154.81858012
  -Hartree energ DENC   =     -4613.12425425
  -exchange      EXHF   =         0.00000000
  -V(xc)+E(xc)   XCENC  =     -9181.09907459
  PAW double counting   =     43974.07654783   -33708.58646141
  entropy T*S    EENTRO =        -0.00491467
  eigenvalues    EBANDS =      -886.36320473
  atomic energy  EATOM  =     16853.79812076
  Solvation  Ediel_sol  =         0.00000000
  ---------------------------------------------------
  free energy    TOTEN  =      -681.68201094 eV

  energy without entropy =     -681.67709627  energy(sigma->0) =     -681.67955361


--------------------------------------------------------------------------------------------------------




--------------------------------------- Iteration      1(  12)  ---------------------------------------


    POTLOK:  cpu time      0.3995: real time      0.4025
    SETDIJ:  cpu time      2.5642: real time      2.5806
     EDDAV:  cpu time     84.2558: real time     85.1276
       DOS:  cpu time      0.0053: real time      0.0054
    CHARGE:  cpu time      4.5549: real time      4.6037
    MIXING:  cpu time      0.0122: real time      0.0123
    --------------------------------------------
      LOOP:  cpu time     91.7919: real time     92.7320

 eigenvalue-minimisations  : 14616
 total energy-change (2. order) : 0.1121789E-03  (-0.9635243E-03)
 number of electron     671.9999993 magnetization       1.0000000
 augmentation part     -140.3655354 magnetization      -0.0976194

 Broyden mixing:
  rms(total) = 0.18530E-01    rms(broyden)= 0.18530E-01
  rms(prec ) = 0.18926E-01
  weight for this iteration     100.00

 eigenvalues of (default mixing * dielectric matrix)
  average eigenvalue GAMMA=   1.0136
  1.8798  1.7348  0.8764  0.8764  0.6235  0.6235  0.4805

 Free energy of the ion-electron system (eV)
[...]
   -.317E+00 0.117E+00 -.851E+01   -.459E-01 -.153E-02 0.877E+01   0.898E-01 -.280E-01 -.327E+00   -.342E-05 -.988E-05 -.149E-03
   0.628E+01 0.463E+00 -.795E+02   -.587E+01 -.241E+00 0.792E+02   -.164E+00 -.101E+00 -.228E-02   -.196E-04 0.100E-04 0.742E-04
   -.349E+01 0.706E+01 0.810E+02   0.373E+01 -.659E+01 -.810E+02   -.178E+00 -.194E+00 0.111E+00   -.258E-04 0.340E-04 -.196E-04
   0.703E-01 -.318E+00 0.876E+01   0.259E-01 -.461E-01 -.878E+01   -.242E-01 0.106E+00 0.130E+00   0.115E-04 0.285E-04 -.168E-03
   -.757E+00 0.236E+01 -.558E+02   0.768E+00 -.141E+01 0.554E+02   0.802E-03 -.756E+00 -.976E-01   -.510E-04 -.668E-04 0.179E-04
   -.349E+01 0.706E+01 0.810E+02   0.373E+01 -.659E+01 -.810E+02   -.178E+00 -.194E+00 0.111E+00   0.964E-05 -.534E-04 -.225E-04
   0.702E-01 -.318E+00 0.876E+01   0.259E-01 -.461E-01 -.878E+01   -.242E-01 0.106E+00 0.130E+00   0.723E-05 -.796E-05 -.172E-03
   -.757E+00 0.236E+01 -.558E+02   0.768E+00 -.141E+01 0.554E+02   0.802E-03 -.756E+00 -.976E-01   -.423E-04 -.111E-04 0.159E-04
   -.349E+01 0.706E+01 0.810E+02   0.373E+01 -.659E+01 -.810E+02   -.178E+00 -.194E+00 0.111E+00   0.934E-08 0.181E-04 -.228E-04
   0.702E-01 -.318E+00 0.876E+01   0.260E-01 -.461E-01 -.878E+01   -.242E-01 0.106E+00 0.130E+00   0.121E-04 0.228E-04 -.164E-03
   -.757E+00 0.236E+01 -.558E+02   0.768E+00 -.141E+01 0.554E+02   0.802E-03 -.756E+00 -.976E-01   -.607E-04 -.568E-04 0.135E-04
   -.349E+01 0.706E+01 0.810E+02   0.373E+01 -.659E+01 -.810E+02   -.178E+00 -.194E+00 0.111E+00   0.797E-05 -.379E-04 -.246E-04
   0.702E-01 -.318E+00 0.876E+01   0.260E-01 -.461E-01 -.878E+01   -.242E-01 0.106E+00 0.130E+00   -.270E-05 -.129E-04 -.166E-03
   -.757E+00 0.236E+01 -.558E+02   0.768E+00 -.141E+01 0.554E+02   0.802E-03 -.756E+00 -.976E-01   -.261E-04 -.165E-04 0.132E-04
   -.148E+01 0.246E+01 0.563E+02   0.103E+01 -.182E+01 -.558E+02   0.492E+00 -.440E+00 -.262E-01   -.135E-04 -.147E-04 -.770E-04
   0.546E-01 -.331E+00 -.850E+01   0.219E-01 -.397E-01 0.877E+01   -.359E-01 0.100E+00 -.331E+00   -.248E-04 -.215E-04 -.154E-03
   -.315E+01 0.528E+01 -.797E+02   0.276E+01 -.507E+01 0.795E+02   0.157E+00 -.573E-01 0.299E-01   -.305E-05 -.488E-04 0.847E-04
   -.148E+01 0.246E+01 0.563E+02   0.103E+01 -.182E+01 -.558E+02   0.492E+00 -.440E+00 -.262E-01   -.752E-04 -.580E-04 -.749E-04
   0.546E-01 -.331E+00 -.850E+01   0.219E-01 -.398E-01 0.877E+01   -.359E-01 0.100E+00 -.331E+00   -.472E-05 0.829E-05 -.162E-03
   -.315E+01 0.528E+01 -.797E+02   0.276E+01 -.507E+01 0.795E+02   0.157E+00 -.573E-01 0.299E-01   -.274E-05 0.206E-04 0.833E-04
   -.148E+01 0.246E+01 0.563E+02   0.103E+01 -.182E+01 -.558E+02   0.492E+00 -.440E+00 -.262E-01   -.227E-04 0.190E-05 -.756E-04
   0.546E-01 -.331E+00 -.850E+01   0.219E-01 -.398E-01 0.877E+01   -.359E-01 0.100E+00 -.331E+00   -.200E-04 -.269E-04 -.152E-03
   -.315E+01 0.528E+01 -.797E+02   0.276E+01 -.507E+01 0.795E+02   0.157E+00 -.573E-01 0.299E-01   0.135E-04 -.490E-04 0.851E-04
   -.148E+01 0.246E+01 0.563E+02   0.103E+01 -.182E+01 -.558E+02   0.492E+00 -.440E+00 -.262E-01   -.395E-04 -.451E-04 -.786E-04
   0.546E-01 -.331E+00 -.850E+01   0.219E-01 -.398E-01 0.877E+01   -.359E-01 0.100E+00 -.331E+00   -.219E-04 0.116E-04 -.145E-03
   -.315E+01 0.528E+01 -.797E+02   0.276E+01 -.507E+01 0.795E+02   0.157E+00 -.573E-01 0.299E-01   -.356E-05 0.277E-04 0.787E-04
 -----------------------------------------------------------------------------------------------
   0.941E-01 0.529E+00 0.617E+01   0.555E-13 0.136E-12 -.128E-12   -.259E+00 -.379E+00 -.612E+01   -.119E-06 -.441E-05 -.134E-02
 
 
 POSITION                                       TOTAL-FORCE (eV/Angst)
 -----------------------------------------------------------------------------------
     -0.09862      0.17082      0.00000        -0.152267      0.045948      0.436269
     -2.74783      4.75938      3.74654         0.079732     -0.109906      0.142212
     -5.39703      9.34794      7.49308        -0.002538      0.021402      0.679935
     -0.09862      9.34794      0.00000         0.145943      0.068084      0.483677
      5.19979      0.17082      3.74654         0.053131      0.111614      0.130960
      2.55058      4.75938      7.49308        -0.013074      0.010451     -0.604126
      7.84899      4.75938      0.00000         0.010418     -0.196737      0.598953
      5.19979      9.34794      3.74654        -0.125546     -0.024124      0.139311
     10.49820      0.17082      7.49308         0.007010      0.014055     -0.753697
     -2.74783      4.75938      0.93664        -0.069784      0.122956      0.262270
     -5.39703      9.34794      4.68318         0.000224      0.004108     -0.402968
     -0.09862      0.17082      8.42972         0.326865     -0.381048     -0.480014
      5.19979      0.17082      0.93664        -0.076924     -0.143190      0.290532
      2.55058      4.75938      4.68318         0.002148      0.001247     -0.064912
     -0.09862      9.34794      8.42972        -0.459173     -0.094287     -0.562943
      5.19979      9.34794      0.93664         0.157730      0.006537      0.271926
     10.49820      0.17082      4.68318        -0.002817      0.000492     -0.026932
      7.84899      4.75938      8.42972         0.131344      0.390107     -0.646781
     -0.09862      4.75938      0.00000         0.010418     -0.196737      0.598953
     -2.74783      9.34794      3.74654        -0.125546     -0.024124      0.139311
      2.55058      0.17082      7.49308         0.007010      0.014055     -0.753697
      7.84899      0.17082      0.00000        -0.152267      0.045948      0.436269
      5.19979      4.75938      3.74654         0.079732     -0.109906      0.142212
      2.55058      9.34794      7.49308        -0.002538      0.021402      0.679935
      7.84899      9.34794      0.00000         0.145943      0.068084      0.483677
     13.14740      0.17082      3.74654         0.053131      0.111614      0.130960
     10.49820      4.75938      7.49308        -0.013074      0.010451     -0.604126
     -2.74783      9.34794      0.93664         0.157730      0.006537      0.271926
      2.55058      0.17082      4.68318        -0.002817      0.000492     -0.026932
     -0.09863      4.75938      8.42972         0.131344      0.390107     -0.646781
      5.19979      4.75938      0.93664        -0.069784      0.122956      0.262270
      2.55058      9.34794      4.68318         0.000224      0.004108     -0.402968
      7.84899      0.17082      8.42972         0.326865     -0.381048     -0.480014
     13.14740      0.17082      0.93663        -0.076924     -0.143190      0.290532
     10.49820      4.75938      4.68318         0.002148      0.001247     -0.064912
      7.84899      9.34794      8.42972        -0.459173     -0.094287     -0.562943
     -4.07243      7.05366      0.00000        -0.152267      0.045948      0.436269
     -6.72164     11.64222      3.74654         0.079732     -0.109906      0.142212
     -1.42323      2.46510      7.49308        -0.002538      0.021402      0.679935
      3.87518      2.46510      0.00000         0.145943      0.068084      0.483677
      1.22598      7.05366      3.74654         0.053131      0.111614      0.130960
     -1.42323     11.64222      7.49308        -0.013074      0.010451     -0.604126
      3.87518     11.64222      0.00000         0.010418     -0.196737      0.598953
      9.17359      2.46510      3.74654        -0.125546     -0.024124      0.139311
      6.52439      7.05366      7.49308         0.007010      0.014055     -0.753697
     -6.72164     11.64222      0.93664        -0.069784      0.122956      0.262270
     -1.42323      2.46510      4.68318         0.000224      0.004108     -0.402968
     -4.07243      7.05366      8.42972         0.326865     -0.381048     -0.480014
      1.22598      7.05366      0.93664        -0.076924     -0.143190      0.290532
     -1.42323     11.64222      4.68318         0.002148      0.001247     -0.064912
      3.87518      2.46510      8.42972        -0.459173     -0.094287     -0.562943
      9.17359      2.46510      0.93664         0.157730      0.006537      0.271926
      6.52439      7.05366      4.68318        -0.002817      0.000492     -0.026932
      3.87518     11.64222      8.42972         0.131344      0.390107     -0.646781
     -4.07243     11.64222      0.00000         0.010418     -0.196737      0.598953
      1.22598      2.46510      3.74654        -0.125546     -0.024124      0.139311
     -1.42323      7.05366      7.49308         0.007010      0.014055     -0.753697
      3.87518      7.05366      0.00000        -0.152267      0.045948      0.436269
      1.22598     11.64222      3.74654         0.079732     -0.109906      0.142212
      6.52439      2.46510      7.49308        -0.002538      0.021402      0.679935
     11.82280      2.46510      0.00000         0.145943      0.068084      0.483677
      9.17359      7.05366      3.74654         0.053131      0.111614      0.130960
      6.52439     11.64222      7.49308        -0.013074      0.010451     -0.604126
      1.22598      2.46510      0.93664         0.157730      0.006537      0.271926
     -1.42323      7.05366      4.68318        -0.002817      0.000492     -0.026932
     -4.07243     11.64221      8.42972         0.131344      0.390107     -0.646781
      1.22598     11.64221      0.93664        -0.069784      0.122956      0.262270
      6.52439      2.46510      4.68318         0.000224      0.004108     -0.402968
      3.87518      7.05366      8.42972         0.326865     -0.381048     -0.480014
      9.17359      7.05366      0.93664        -0.076924     -0.143190      0.290532
      6.52439     11.64222      4.68318         0.002148      0.001247     -0.064912
     11.82280      2.46510      8.42972        -0.459173     -0.094287     -0.562943
      2.54660      9.31148     10.69202         0.004390     -0.017308     -0.458793
     -1.42721      7.01721     13.95855         0.002300      0.008037     -0.138546
     10.49421      4.72293     17.22508        -0.015405      0.000100     -0.182276
      6.52041      2.42865     10.69202         0.004390     -0.017308     -0.458793
      2.54660      0.13437     13.95855         0.002300      0.008037     -0.138546
      6.52040     11.60576     17.22508        -0.015405      0.000100     -0.182276
     10.49421      9.31149     10.69202         0.004390     -0.017308     -0.458793
      6.52041      7.01721     13.95855         0.002300      0.008037     -0.138546
      2.54660      4.72293     17.22508        -0.015405      0.000100     -0.182276
     14.46802      2.42865     10.69202         0.004390     -0.017308     -0.458793
     10.49421      0.13437     13.95855         0.002300      0.008037     -0.138546
     -1.42721     11.60576     17.22508        -0.015405      0.000100     -0.182276
     10.49421      0.13437     11.50865         0.010050      0.006719      0.354543
     -1.42721     11.60576     14.77518        -0.007476      0.004606     -0.021016
     10.49421      9.31148     18.04172        -0.008476     -0.006209      1.075823
      6.52041      7.01721     11.50865         0.010050      0.006719      0.354543
      2.54660      4.72293     14.77518        -0.007476      0.004606     -0.021016
     14.46802      2.42865     18.04172        -0.008476     -0.006209      1.075823
      2.54660      0.13437     11.50865         0.010050      0.006719      0.354543
      6.52040     11.60576     14.77518        -0.007476      0.004606     -0.021016
      2.54660      9.31148     18.04172        -0.008476     -0.006209      1.075823
     -1.42721      7.01721     11.50865         0.010050      0.006719      0.354543
     10.49421      4.72293     14.77518        -0.007476      0.004606     -0.021016
      6.52041      2.42865     18.04172        -0.008476     -0.006209      1.075823
      4.53350     12.75290     10.69202        -0.231827     -0.024857      0.276829
      0.55969     10.45862     13.95855         0.196163      0.202159      0.112504
     -3.41411      8.16434     17.22508        -0.188349     -0.074202     -0.548922
      8.50731      5.87007     10.69202        -0.231827     -0.024857      0.276829
      4.53350      3.57579     13.95855         0.196163      0.202159      0.112504
      0.55969      1.28151     17.22508        -0.188349     -0.074202     -0.548922
     -3.41411     12.75290     10.69202        -0.231827     -0.024857      0.276829
      8.50731     10.45862     13.95855         0.196163      0.202159      0.112504
      4.53350      8.16434     17.22508        -0.188349     -0.074202     -0.548922
      0.55969      5.87007     10.69202        -0.231827     -0.024857      0.276829
     12.48112      3.57579     13.95855         0.196163      0.202159      0.112504
      8.50731      1.28151     17.22508        -0.188349     -0.074202     -0.548922
      8.50731     10.45862     11.50865        -0.171763     -0.052910      0.472257
      4.53350      8.16434     14.77518         0.203085      0.176372     -0.074993
      0.55970      5.87007     18.04172         0.011668     -0.207407     -0.395063
     12.48112      3.57579     11.50865        -0.171763     -0.052910      0.472257
      8.50731      1.28151     14.77518         0.203085      0.176372     -0.074993
     -3.41411     12.75290     18.04172         0.011668     -0.207407     -0.395063
      0.55970     10.45862     11.50865        -0.171763     -0.052910      0.472257
     -3.41411      8.16434     14.77518         0.203085      0.176372     -0.074993
      8.50731      5.87007     18.04172         0.011668     -0.207407     -0.395063
      4.53350      3.57579     11.50865        -0.171763     -0.052910      0.472257
      0.55970      1.28151     14.77518         0.203085      0.176372     -0.074993
      4.53350     12.75290     18.04172         0.011668     -0.207407     -0.395063
      6.52041      9.31149     10.69202         0.160527     -0.184067      0.160567
      2.54660      7.01721     13.95855        -0.266309      0.064482      0.100766
     -1.42721      4.72293     17.22508         0.155155     -0.111666     -0.535872
     10.49421      2.42865     10.69202         0.160527     -0.184067      0.160567
      6.52041      0.13437     13.95855        -0.266309      0.064482      0.100766
     -5.40102     11.60576     17.22508         0.155155     -0.111666     -0.535872
     -1.42721      9.31149     10.69202         0.160527     -0.184067      0.160567
     10.49421      7.01721     13.95855        -0.266309      0.064482      0.100766
      6.52040      4.72293     17.22508         0.155155     -0.111666     -0.535872
      2.54660      2.42865     10.69202         0.160527     -0.184067      0.160567
     14.46802      0.13437     13.95855        -0.266309      0.064482      0.100766
      2.54660     11.60576     17.22508         0.155155     -0.111666     -0.535872
     14.46802      0.13437     11.50865         0.143946     -0.116117      0.462222
      2.54660     11.60576     14.77518        -0.272527      0.086144     -0.074424
     -1.42721      9.31148     18.04172         0.243979      0.119324     -0.298402
     10.49421      7.01721     11.50865         0.143946     -0.116117      0.462222
      6.52040      4.72293     14.77518        -0.272527      0.086144     -0.074424
      2.54660      2.42865     18.04172         0.243979      0.119324     -0.298402
      6.52041      0.13437     11.50865         0.143946     -0.116117      0.462222
     -5.40102     11.60576     14.77518        -0.272527      0.086144     -0.074424
      6.52041      9.31148     18.04171         0.243979      0.119324     -0.298402
      2.54660      7.01721     11.50865         0.143946     -0.116117      0.462222
     -1.42721      4.72293     14.77518        -0.272527      0.086144     -0.074424
     10.49421      2.42865     18.04172         0.243979      0.119324     -0.298402
      0.55969     12.75290     10.69202         0.066877      0.276283      0.101879
     -3.41411     10.45862     13.95855         0.072972     -0.258943      0.107997
      8.50731      8.16434     17.22508         0.012845      0.191273     -0.531925
      4.53350      5.87007     10.69202         0.066877      0.276283      0.101879
      0.55969      3.57579     13.95855         0.072972     -0.258943      0.107997
     12.48112      1.28151     17.22508         0.012845      0.191273     -0.531925
      8.50731     12.75290     10.69202         0.066877      0.276283      0.101879
      4.53350     10.45862     13.95855         0.072972     -0.258943      0.107997
      0.55969      8.16434     17.22508         0.012845      0.191273     -0.531925
     12.48112      5.87007     10.69202         0.066877      0.276283      0.101879
      8.50731      3.57579     13.95855         0.072972     -0.258943      0.107997
      4.53350      1.28151     17.22508         0.012845      0.191273     -0.531925
      4.53350     10.45862     11.50865         0.048493      0.190205      0.441605
      0.55970      8.16435     14.77518         0.041567     -0.271971     -0.062958
     12.48112      5.87007     18.04172        -0.224305      0.152245     -0.237474
      8.50731      3.57579     11.50865         0.048493      0.190205      0.441605
      4.53350      1.28151     14.77518         0.041567     -0.271971     -0.062958
      8.50731     12.75290     18.04172        -0.224305      0.152245     -0.237474
     -3.41411     10.45862     11.50865         0.048493      0.190205      0.441605
      8.50731      8.16435     14.77518         0.041567     -0.271971     -0.062958
      4.53350      5.87007     18.04172        -0.224305      0.152245     -0.237474
      0.55970      3.57579     11.50865         0.048493      0.190205      0.441605
     12.48112      1.28151     14.77518         0.041567     -0.271971     -0.062958
      0.55969     12.75290     18.04172        -0.224305      0.152245     -0.237474
 -----------------------------------------------------------------------------------
    total drift:                               -0.164853      0.150657      0.043217


--------------------------------------------------------------------------------------------------------



  FREE ENERGIE OF THE ION-ELECTRON SYSTEM (eV)
  ---------------------------------------------------
  free  energy   TOTEN  =      -681.68263722 eV

  energy  without entropy=     -681.67780979  energy(sigma->0) =     -681.68022351
 


--------------------------------------------------------------------------------------------------------


    POTLOK:  cpu time      2.9455: real time      2.9648


--------------------------------------------------------------------------------------------------------


     LOOP+:  cpu time   2125.2537: real time   2147.3460
    4ORBIT:  cpu time      0.0000: real time      0.0000

 total amount of memory used by VASP MPI-rank0   422162. kBytes
=======================================================================

   base      :      30000. kBytes
   nonlr-proj:      23014. kBytes
   fftplans  :      34260. kBytes
   grid      :      27955. kBytes
   one-center:        178. kBytes
   wavefun   :     306755. kBytes
 
  
  
 General timing and accounting informations for this job:
 ========================================================
  
                  Total CPU time used (sec):     2283.884
                            User time (sec):     2173.100
                          System time (sec):      110.784
                         Elapsed time (sec):     2311.222
  
                   Maximum memory used (kb):      740452.
                   Average memory used (kb):          N/A
  
                          Minor page faults:       456366
                          Major page faults:          468
                 Voluntary context switches:         2921
