Si and Ge interface calculation         
           1
    11.315600    0.000000    0.000000
     0.000000   17.891535    0.000000
     0.000000   -0.000000   13.867381
   Ge   Sn
    48    48
Direct configuration=     1
   0.94556874  0.07620380  0.00000001
   0.69556868  0.42620391  0.06450953
   0.44556868  0.77620399  0.12901904
   0.19556862  0.12620413  0.19352862
   0.94556868  0.47620416  0.25803810
   0.69556868  0.82620430  0.32254755
   0.44556874  0.07620380  0.00000001
   0.19556871  0.42620391  0.06450953
   0.94556868  0.77620399  0.12901904
   0.69556868  0.12620413  0.19352862
   0.44556868  0.47620416  0.25803810
   0.19556862  0.82620430  0.32254755
   0.07056873  0.82620394  0.00000003
   0.82056868  0.17620409  0.06450951
   0.57056868  0.52620411  0.12901899
   0.32056862  0.87620413  0.19352861
   0.07056862  0.22620416  0.25803813
   0.82056856  0.57620430  0.32254761
   0.57056874  0.82620394  0.00000003
   0.32056874  0.17620409  0.06450951
   0.07056871  0.52620411  0.12901899
   0.82056868  0.87620413  0.19352861
   0.57056868  0.22620416  0.25803813
   0.32056862  0.57620430  0.32254761
   0.94556874  0.57620382  0.00000002
   0.69556868  0.92620391  0.06450950
   0.44556868  0.27620399  0.12901905
   0.19556862  0.62620413  0.19352855
   0.94556868  0.97620416  0.25803810
   0.69556868  0.32620430  0.32254761
   0.44556874  0.57620382  0.00000002
   0.19556871  0.92620391  0.06450950
   0.94556868  0.27620399  0.12901905
   0.69556868  0.62620413  0.19352855
   0.44556868  0.97620416  0.25803810
   0.19556862  0.32620430  0.32254761
   0.07056873  0.32620382  0.00000000
   0.82056868  0.67620397  0.06450953
   0.57056868  0.02620399  0.12901904
   0.32056862  0.37620413  0.19352856
   0.07056862  0.72620416  0.25803807
   0.82056856  0.07620430  0.32254752
   0.57056874  0.32620382  0.00000000
   0.32056874  0.67620397  0.06450953
   0.07056871  0.02620399  0.12901904
   0.82056868  0.37620413  0.19352856
   0.57056868  0.72620416  0.25803807
   0.32056862  0.07620430  0.32254752
   0.05700040  0.70818543  0.42247537
   0.72366691  0.58318543  0.51799476
   0.39033362  0.45818543  0.61351401
   0.05700028  0.33318543  0.70903337
   0.72366673  0.20818543  0.80455279
   0.39033327  0.08318532  0.90007210
   0.05700040  0.20818543  0.42247537
   0.72366691  0.08318543  0.51799476
   0.39033362  0.95818537  0.61351401
   0.05700028  0.83318537  0.70903337
   0.72366673  0.70818537  0.80455279
   0.39033327  0.58318526  0.90007210
   0.30700034  0.95818543  0.42247537
   0.97366697  0.83318543  0.51799476
   0.64033359  0.70818543  0.61351407
   0.30700025  0.58318543  0.70903337
   0.97366685  0.45818541  0.80455279
   0.64033323  0.33318532  0.90007222
   0.30700034  0.45818543  0.42247537
   0.97366691  0.33318541  0.51799476
   0.64033359  0.20818543  0.61351401
   0.30700025  0.08318543  0.70903337
   0.97366685  0.95818537  0.80455267
   0.64033323  0.83318532  0.90007222
   0.05700028  0.95818543  0.42247537
   0.72366691  0.83318543  0.51799476
   0.39033362  0.70818543  0.61351401
   0.05700028  0.58318543  0.70903337
   0.72366673  0.45818537  0.80455279
   0.39033338  0.33318528  0.90007210
   0.05700040  0.45818543  0.42247537
   0.72366691  0.33318541  0.51799476
   0.39033362  0.20818543  0.61351401
   0.05700028  0.08318543  0.70903337
   0.72366685  0.95818537  0.80455279
   0.39033327  0.83318526  0.90007210
   0.30700040  0.70818543  0.42247540
   0.97366697  0.58318543  0.51799476
   0.64033359  0.45818546  0.61351401
   0.30700025  0.33318543  0.70903337
   0.97366685  0.20818543  0.80455279
   0.64033335  0.08318543  0.90007210
   0.30700037  0.20818543  0.42247537
   0.97366697  0.08318543  0.51799476
   0.64033359  0.95818537  0.61351401
   0.30700025  0.83318537  0.70903337
   0.97366685  0.70818537  0.80455279
   0.64033335  0.58318532  0.90007210
