 264 264   0   0
  0.2774202E+02  0.1958175E-08  0.1958175E-08  0.1910025E-08  0.5000000E-15
  1.000000000000000E-004
  CAR 
 Si and Ge interface calculation         
      6.63555142     -9.12502766  301      4.04329805      1.00000000
     -9.125  0.0000E+00  0.0000E+00  0.0000E+00  0.0000E+00
     -9.072  0.0000E+00  0.0000E+00  0.0000E+00  0.0000E+00
     -9.020  0.0000E+00  0.0000E+00  0.0000E+00  0.0000E+00
     -8.967  0.0000E+00  0.0000E+00  0.0000E+00  0.0000E+00
     -8.915  0.0000E+00  0.0000E+00  0.0000E+00  0.0000E+00
     -8.862  0.0000E+00  0.0000E+00  0.0000E+00  0.0000E+00
     -8.810  0.0000E+00  0.0000E+00  0.0000E+00  0.0000E+00
     -8.757  0.0000E+00  0.0000E+00  0.0000E+00  0.0000E+00
     -8.705  0.0000E+00  0.0000E+00  0.0000E+00  0.0000E+00
     -8.652  0.0000E+00  0.0000E+00  0.0000E+00  0.0000E+00
     -8.600  0.0000E+00  0.0000E+00  0.0000E+00  0.0000E+00
     -8.547  0.0000E+00  0.0000E+00  0.0000E+00  0.0000E+00
     -8.495  0.0000E+00  0.0000E+00  0.0000E+00  0.0000E+00
     -8.442  0.1071E-04  0.3773E-05  0.5624E-06  0.1982E-06
     -8.390  0.1423E+02  0.1341E+02  0.7478E+00  0.7047E+00
     -8.337  0.2381E+02  0.2461E+02  0.1999E+01  0.1998E+01
     -8.284  0.1420E+00  0.1161E+00  0.2006E+01  0.2004E+01
     -8.232  0.1860E+02  0.1848E+02  0.2983E+01  0.2975E+01
     -8.179  0.9830E+01  0.9981E+01  0.3499E+01  0.3499E+01
     -8.127  0.9534E+01  0.9503E+01  0.4000E+01  0.3998E+01
     -8.074  0.3424E+02  0.3347E+02  0.5799E+01  0.5756E+01
     -8.022  0.6512E+01  0.6738E+01  0.6141E+01  0.6110E+01
     -7.969  0.2872E+02  0.2831E+02  0.7650E+01  0.7598E+01
     -7.917  0.1687E+02  0.1764E+02  0.8537E+01  0.8524E+01
     -7.864  0.2234E+02  0.2160E+02  0.9710E+01  0.9659E+01
     -7.812  0.7422E+01  0.7873E+01  0.1010E+02  0.1007E+02
     -7.759  0.2177E+02  0.2114E+02  0.1124E+02  0.1118E+02
     -7.707  0.1019E+02  0.1050E+02  0.1178E+02  0.1173E+02
     -7.654  0.4207E+01  0.5046E+01  0.1200E+02  0.1200E+02
     -7.602  0.3448E+02  0.3362E+02  0.1381E+02  0.1377E+02
     -7.549  0.2086E+02  0.2122E+02  0.1491E+02  0.1488E+02
     -7.496  0.2954E+02  0.2964E+02  0.1646E+02  0.1644E+02
     -7.444  0.1206E+02  0.1190E+02  0.1709E+02  0.1706E+02
     -7.391  0.1704E+02  0.1747E+02  0.1799E+02  0.1798E+02
     -7.339  0.8477E+01  0.8138E+01  0.1843E+02  0.1841E+02
     -7.286  0.6827E+01  0.6336E+01  0.1879E+02  0.1874E+02
     -7.234  0.3432E+02  0.3435E+02  0.2060E+02  0.2055E+02
     -7.181  0.2225E+02  0.2227E+02  0.2176E+02  0.2172E+02
     -7.129  0.3304E+02  0.3397E+02  0.2350E+02  0.2350E+02
     -7.076  0.2986E+02  0.2752E+02  0.2507E+02  0.2495E+02
     -7.024  0.3968E+02  0.4001E+02  0.2715E+02  0.2705E+02
     -6.971  0.3826E+02  0.3789E+02  0.2916E+02  0.2904E+02
     -6.919  0.2034E+02  0.2142E+02  0.3023E+02  0.3016E+02
     -6.866  0.2567E+02  0.2622E+02  0.3158E+02  0.3154E+02
     -6.813  0.4698E+02  0.4564E+02  0.3405E+02  0.3394E+02
     -6.761  0.7793E+02  0.7662E+02  0.3814E+02  0.3796E+02
     -6.708  0.4584E+02  0.4877E+02  0.4055E+02  0.4053E+02
     -6.656  0.2715E+02  0.2718E+02  0.4198E+02  0.4195E+02
     -6.603  0.2460E+02  0.2399E+02  0.4327E+02  0.4321E+02
     -6.551  0.2559E+02  0.2581E+02  0.4461E+02  0.4457E+02
     -6.498  0.7167E+02  0.6981E+02  0.4838E+02  0.4824E+02
     -6.446  0.2749E+02  0.2877E+02  0.4982E+02  0.4975E+02
     -6.393  0.5191E+02  0.5279E+02  0.5255E+02  0.5252E+02
     -6.341  0.3649E+02  0.3616E+02  0.5447E+02  0.5442E+02
     -6.288  0.3460E+02  0.3380E+02  0.5629E+02  0.5620E+02
     -6.236  0.6891E+02  0.6771E+02  0.5991E+02  0.5975E+02
     -6.183  0.6493E+02  0.6500E+02  0.6332E+02  0.6317E+02
     -6.131  0.6905E+02  0.6914E+02  0.6694E+02  0.6680E+02
     -6.078  0.7364E+02  0.7412E+02  0.7081E+02  0.7070E+02
     -6.025  0.7053E+02  0.6942E+02  0.7452E+02  0.7434E+02
     -5.973  0.6814E+02  0.6676E+02  0.7810E+02  0.7785E+02
     -5.920  0.7844E+02  0.8054E+02  0.8222E+02  0.8208E+02
     -5.868  0.5809E+02  0.5862E+02  0.8527E+02  0.8516E+02
     -5.815  0.5229E+02  0.4991E+02  0.8802E+02  0.8778E+02
     -5.763  0.7343E+02  0.7280E+02  0.9188E+02  0.9161E+02
     -5.710  0.9239E+02  0.9362E+02  0.9673E+02  0.9653E+02
     -5.658  0.1098E+03  0.1110E+03  0.1025E+03  0.1024E+03
     -5.605  0.6632E+02  0.6648E+02  0.1060E+03  0.1059E+03
     -5.553  0.7253E+02  0.7170E+02  0.1098E+03  0.1096E+03
     -5.500  0.5237E+02  0.5173E+02  0.1125E+03  0.1123E+03
     -5.448  0.8049E+02  0.8131E+02  0.1168E+03  0.1166E+03
     -5.395  0.7503E+02  0.7371E+02  0.1207E+03  0.1205E+03
     -5.342  0.1000E+03  0.9987E+02  0.1260E+03  0.1257E+03
     -5.290  0.7901E+02  0.8060E+02  0.1301E+03  0.1300E+03
     -5.237  0.6772E+02  0.6643E+02  0.1337E+03  0.1335E+03
     -5.185  0.7687E+02  0.7857E+02  0.1377E+03  0.1376E+03
     -5.132  0.6837E+02  0.6631E+02  0.1413E+03  0.1411E+03
     -5.080  0.7709E+02  0.7698E+02  0.1454E+03  0.1451E+03
     -5.027  0.7218E+02  0.7446E+02  0.1492E+03  0.1490E+03
     -4.975  0.5679E+02  0.5596E+02  0.1521E+03  0.1520E+03
     -4.922  0.7892E+02  0.8046E+02  0.1563E+03  0.1562E+03
     -4.870  0.7249E+02  0.7074E+02  0.1601E+03  0.1599E+03
     -4.817  0.9904E+02  0.9554E+02  0.1653E+03  0.1649E+03
     -4.765  0.1054E+03  0.1066E+03  0.1708E+03  0.1705E+03
     -4.712  0.1153E+03  0.1168E+03  0.1769E+03  0.1767E+03
     -4.660  0.9140E+02  0.9016E+02  0.1817E+03  0.1814E+03
     -4.607  0.1023E+03  0.1017E+03  0.1871E+03  0.1867E+03
     -4.554  0.8813E+02  0.8794E+02  0.1917E+03  0.1914E+03
     -4.502  0.1061E+03  0.1034E+03  0.1973E+03  0.1968E+03
     -4.449  0.1214E+03  0.1217E+03  0.2036E+03  0.2032E+03
     -4.397  0.1076E+03  0.1094E+03  0.2093E+03  0.2089E+03
     -4.344  0.7125E+02  0.6812E+02  0.2130E+03  0.2125E+03
     -4.292  0.8488E+02  0.9294E+02  0.2175E+03  0.2174E+03
     -4.239  0.5917E+02  0.5528E+02  0.2206E+03  0.2203E+03
     -4.187  0.1031E+03  0.1046E+03  0.2260E+03  0.2258E+03
     -4.134  0.7576E+02  0.7691E+02  0.2300E+03  0.2298E+03
     -4.082  0.7069E+02  0.6926E+02  0.2337E+03  0.2335E+03
     -4.029  0.7134E+02  0.7278E+02  0.2375E+03  0.2373E+03
     -3.977  0.5323E+02  0.5248E+02  0.2403E+03  0.2401E+03
     -3.924  0.3353E+02  0.3398E+02  0.2420E+03  0.2418E+03
     -3.872  0.6212E+02  0.6052E+02  0.2453E+03  0.2450E+03
     -3.819  0.5580E+02  0.5800E+02  0.2482E+03  0.2481E+03
     -3.766  0.5369E+02  0.5099E+02  0.2510E+03  0.2507E+03
     -3.714  0.6675E+02  0.6808E+02  0.2545E+03  0.2543E+03
     -3.661  0.6705E+02  0.6592E+02  0.2581E+03  0.2578E+03
     -3.609  0.7058E+02  0.7258E+02  0.2618E+03  0.2616E+03
     -3.556  0.6189E+02  0.6333E+02  0.2650E+03  0.2649E+03
     -3.504  0.8361E+02  0.8056E+02  0.2694E+03  0.2692E+03
     -3.451  0.6768E+02  0.6862E+02  0.2730E+03  0.2728E+03
     -3.399  0.7032E+02  0.6934E+02  0.2767E+03  0.2764E+03
     -3.346  0.9777E+02  0.9707E+02  0.2818E+03  0.2815E+03
     -3.294  0.6270E+02  0.6286E+02  0.2851E+03  0.2848E+03
     -3.241  0.7985E+02  0.7948E+02  0.2893E+03  0.2890E+03
     -3.189  0.6653E+02  0.7026E+02  0.2928E+03  0.2927E+03
     -3.136  0.7933E+02  0.7439E+02  0.2970E+03  0.2966E+03
     -3.083  0.5875E+02  0.5835E+02  0.3000E+03  0.2996E+03
     -3.031  0.9224E+02  0.9666E+02  0.3049E+03  0.3047E+03
     -2.978  0.5803E+02  0.5836E+02  0.3079E+03  0.3078E+03
     -2.926  0.1029E+03  0.9843E+02  0.3133E+03  0.3130E+03
     -2.873  0.7767E+02  0.7741E+02  0.3174E+03  0.3170E+03
     -2.821  0.1045E+03  0.1071E+03  0.3229E+03  0.3227E+03
     -2.768  0.8530E+02  0.8508E+02  0.3274E+03  0.3271E+03
     -2.716  0.1099E+03  0.1122E+03  0.3332E+03  0.3330E+03
     -2.663  0.1067E+03  0.1044E+03  0.3388E+03  0.3385E+03
     -2.611  0.9901E+02  0.9769E+02  0.3440E+03  0.3436E+03
     -2.558  0.1218E+03  0.1235E+03  0.3504E+03  0.3501E+03
     -2.506  0.1163E+03  0.1167E+03  0.3565E+03  0.3563E+03
     -2.453  0.1004E+03  0.1010E+03  0.3618E+03  0.3616E+03
     -2.401  0.8486E+02  0.8249E+02  0.3662E+03  0.3659E+03
     -2.348  0.9023E+02  0.9200E+02  0.3710E+03  0.3707E+03
     -2.295  0.1179E+03  0.1174E+03  0.3772E+03  0.3769E+03
     -2.243  0.8591E+02  0.8797E+02  0.3817E+03  0.3815E+03
     -2.190  0.5293E+02  0.5444E+02  0.3845E+03  0.3844E+03
     -2.138  0.2780E+02  0.2531E+02  0.3859E+03  0.3857E+03
     -2.085  0.6547E+02  0.6251E+02  0.3894E+03  0.3890E+03
     -2.033  0.8957E+02  0.8964E+02  0.3941E+03  0.3937E+03
     -1.980  0.8446E+02  0.8573E+02  0.3985E+03  0.3982E+03
     -1.928  0.1049E+03  0.1053E+03  0.4040E+03  0.4037E+03
     -1.875  0.8758E+02  0.8926E+02  0.4086E+03  0.4084E+03
     -1.823  0.6358E+02  0.6080E+02  0.4119E+03  0.4116E+03
     -1.770  0.1005E+03  0.1010E+03  0.4172E+03  0.4169E+03
     -1.718  0.9904E+02  0.9921E+02  0.4224E+03  0.4221E+03
     -1.665  0.8947E+02  0.8903E+02  0.4271E+03  0.4268E+03
     -1.612  0.7912E+02  0.7929E+02  0.4313E+03  0.4310E+03
     -1.560  0.9564E+02  0.9889E+02  0.4363E+03  0.4362E+03
     -1.507  0.5530E+02  0.5298E+02  0.4392E+03  0.4390E+03
     -1.455  0.4830E+02  0.5038E+02  0.4418E+03  0.4416E+03
     -1.402  0.6816E+02  0.6429E+02  0.4453E+03  0.4450E+03
     -1.350  0.7005E+02  0.7211E+02  0.4490E+03  0.4488E+03
     -1.297  0.3813E+02  0.3984E+02  0.4510E+03  0.4509E+03
     -1.245  0.5798E+02  0.5696E+02  0.4541E+03  0.4539E+03
     -1.192  0.5473E+02  0.5566E+02  0.4569E+03  0.4568E+03
     -1.140  0.5517E+02  0.5461E+02  0.4598E+03  0.4596E+03
     -1.087  0.5583E+02  0.5576E+02  0.4628E+03  0.4626E+03
     -1.035  0.3684E+02  0.3671E+02  0.4647E+03  0.4645E+03
     -0.982  0.4839E+02  0.5099E+02  0.4673E+03  0.4672E+03
     -0.930  0.3082E+02  0.2795E+02  0.4689E+03  0.4687E+03
     -0.877  0.6934E+02  0.6863E+02  0.4725E+03  0.4723E+03
     -0.824  0.8219E+02  0.8234E+02  0.4768E+03  0.4766E+03
     -0.772  0.3831E+02  0.3901E+02  0.4788E+03  0.4786E+03
     -0.719  0.6301E+02  0.6240E+02  0.4822E+03  0.4819E+03
     -0.667  0.7003E+02  0.7279E+02  0.4858E+03  0.4857E+03
     -0.614  0.4420E+02  0.4396E+02  0.4882E+03  0.4880E+03
     -0.562  0.2428E+02  0.2415E+02  0.4894E+03  0.4893E+03
     -0.509  0.1748E+02  0.1871E+02  0.4903E+03  0.4903E+03
     -0.457  0.3431E+02  0.3386E+02  0.4922E+03  0.4921E+03
     -0.404  0.2477E+02  0.2489E+02  0.4935E+03  0.4934E+03
     -0.352  0.4961E+02  0.4762E+02  0.4961E+03  0.4959E+03
     -0.299  0.7142E+02  0.7221E+02  0.4998E+03  0.4997E+03
     -0.247  0.7542E+02  0.7295E+02  0.5038E+03  0.5035E+03
     -0.194  0.8402E+02  0.8398E+02  0.5082E+03  0.5079E+03
     -0.141  0.1124E+03  0.1135E+03  0.5141E+03  0.5139E+03
     -0.089  0.1149E+03  0.1125E+03  0.5201E+03  0.5198E+03
     -0.036  0.1204E+03  0.1231E+03  0.5265E+03  0.5263E+03
      0.016  0.1161E+03  0.1112E+03  0.5326E+03  0.5321E+03
      0.069  0.1464E+03  0.1508E+03  0.5402E+03  0.5400E+03
      0.121  0.1107E+03  0.1095E+03  0.5461E+03  0.5458E+03
      0.174  0.8540E+02  0.8668E+02  0.5505E+03  0.5503E+03
      0.226  0.7915E+02  0.7890E+02  0.5547E+03  0.5545E+03
      0.279  0.8658E+02  0.8505E+02  0.5593E+03  0.5589E+03
      0.331  0.1031E+03  0.1052E+03  0.5647E+03  0.5645E+03
      0.384  0.7504E+02  0.7216E+02  0.5686E+03  0.5683E+03
      0.436  0.1145E+03  0.1172E+03  0.5746E+03  0.5744E+03
      0.489  0.7306E+02  0.7410E+02  0.5785E+03  0.5783E+03
      0.541  0.1169E+03  0.1110E+03  0.5846E+03  0.5842E+03
      0.594  0.1211E+03  0.1260E+03  0.5910E+03  0.5908E+03
      0.647  0.1096E+03  0.1067E+03  0.5967E+03  0.5964E+03
      0.699  0.1647E+03  0.1649E+03  0.6054E+03  0.6050E+03
      0.752  0.1384E+03  0.1374E+03  0.6126E+03  0.6123E+03
      0.804  0.1219E+03  0.1252E+03  0.6191E+03  0.6188E+03
      0.857  0.9079E+02  0.9075E+02  0.6238E+03  0.6236E+03
      0.909  0.1264E+03  0.1240E+03  0.6305E+03  0.6301E+03
      0.962  0.1110E+03  0.1107E+03  0.6363E+03  0.6359E+03
      1.014  0.1149E+03  0.1146E+03  0.6423E+03  0.6420E+03
      1.067  0.1584E+03  0.1561E+03  0.6507E+03  0.6502E+03
      1.119  0.1704E+03  0.1734E+03  0.6596E+03  0.6593E+03
      1.172  0.1674E+03  0.1635E+03  0.6684E+03  0.6679E+03
      1.224  0.1966E+03  0.1979E+03  0.6787E+03  0.6783E+03
      1.277  0.1551E+03  0.1545E+03  0.6869E+03  0.6864E+03
      1.329  0.1974E+03  0.1972E+03  0.6972E+03  0.6967E+03
      1.382  0.1608E+03  0.1617E+03  0.7057E+03  0.7052E+03
      1.435  0.1515E+03  0.1536E+03  0.7137E+03  0.7133E+03
      1.487  0.1780E+03  0.1715E+03  0.7230E+03  0.7223E+03
      1.540  0.1935E+03  0.1970E+03  0.7332E+03  0.7327E+03
      1.592  0.1919E+03  0.1907E+03  0.7433E+03  0.7427E+03
      1.645  0.1768E+03  0.1810E+03  0.7525E+03  0.7522E+03
      1.697  0.1973E+03  0.1946E+03  0.7629E+03  0.7624E+03
      1.750  0.1925E+03  0.1921E+03  0.7730E+03  0.7725E+03
      1.802  0.1663E+03  0.1658E+03  0.7818E+03  0.7812E+03
      1.855  0.1588E+03  0.1629E+03  0.7901E+03  0.7898E+03
      1.907  0.1694E+03  0.1662E+03  0.7990E+03  0.7985E+03
      1.960  0.2035E+03  0.2021E+03  0.8097E+03  0.8091E+03
      2.012  0.1688E+03  0.1722E+03  0.8186E+03  0.8182E+03
      2.065  0.1817E+03  0.1799E+03  0.8281E+03  0.8276E+03
      2.118  0.2023E+03  0.2019E+03  0.8387E+03  0.8382E+03
      2.170  0.1810E+03  0.1813E+03  0.8482E+03  0.8477E+03
      2.223  0.1346E+03  0.1345E+03  0.8553E+03  0.8548E+03
      2.275  0.1727E+03  0.1715E+03  0.8644E+03  0.8638E+03
      2.328  0.1472E+03  0.1468E+03  0.8721E+03  0.8715E+03
      2.380  0.1986E+03  0.1937E+03  0.8826E+03  0.8817E+03
      2.433  0.1614E+03  0.1702E+03  0.8910E+03  0.8906E+03
      2.485  0.1358E+03  0.1342E+03  0.8982E+03  0.8977E+03
      2.538  0.1312E+03  0.1340E+03  0.9051E+03  0.9047E+03
      2.590  0.1298E+03  0.1254E+03  0.9119E+03  0.9113E+03
      2.643  0.1381E+03  0.1371E+03  0.9191E+03  0.9185E+03
      2.695  0.1244E+03  0.1220E+03  0.9257E+03  0.9249E+03
      2.748  0.1640E+03  0.1628E+03  0.9343E+03  0.9335E+03
      2.800  0.1346E+03  0.1412E+03  0.9414E+03  0.9409E+03
      2.853  0.1377E+03  0.1327E+03  0.9486E+03  0.9479E+03
      2.906  0.1598E+03  0.1659E+03  0.9570E+03  0.9566E+03
      2.958  0.8756E+02  0.8444E+02  0.9616E+03  0.9610E+03
      3.011  0.1251E+03  0.1212E+03  0.9682E+03  0.9674E+03
      3.063  0.1402E+03  0.1432E+03  0.9755E+03  0.9749E+03
      3.116  0.1078E+03  0.1116E+03  0.9812E+03  0.9808E+03
      3.168  0.1040E+03  0.1014E+03  0.9866E+03  0.9861E+03
      3.221  0.1248E+03  0.1284E+03  0.9932E+03  0.9929E+03
      3.273  0.1053E+03  0.9778E+02  0.9987E+03  0.9980E+03
      3.326  0.1164E+03  0.1231E+03  0.1005E+04  0.1004E+04
      3.378  0.8379E+02  0.8257E+02  0.1009E+04  0.1009E+04
      3.431  0.6317E+02  0.6610E+02  0.1013E+04  0.1012E+04
      3.483  0.9971E+02  0.9633E+02  0.1018E+04  0.1017E+04
      3.536  0.9604E+02  0.9604E+02  0.1023E+04  0.1022E+04
      3.589  0.9373E+02  0.8271E+02  0.1028E+04  0.1027E+04
      3.641  0.8330E+02  0.9747E+02  0.1032E+04  0.1032E+04
      3.694  0.6695E+02  0.6044E+02  0.1036E+04  0.1035E+04
      3.746  0.4646E+02  0.5418E+02  0.1038E+04  0.1038E+04
      3.799  0.4867E+02  0.4594E+02  0.1041E+04  0.1040E+04
      3.851  0.5361E+02  0.5383E+02  0.1043E+04  0.1043E+04
      3.904  0.2411E+02  0.2211E+02  0.1045E+04  0.1044E+04
      3.956  0.7806E+02  0.7020E+02  0.1049E+04  0.1048E+04
      4.009  0.6524E+02  0.6894E+02  0.1052E+04  0.1052E+04
      4.061  0.1171E+03  0.1032E+03  0.1058E+04  0.1057E+04
      4.114  0.1100E+03  0.1206E+03  0.1064E+04  0.1063E+04
      4.166  0.7187E+02  0.7295E+02  0.1068E+04  0.1067E+04
      4.219  0.1186E+03  0.1174E+03  0.1074E+04  0.1073E+04
      4.271  0.8572E+02  0.8737E+02  0.1079E+04  0.1078E+04
      4.324  0.1028E+03  0.9118E+02  0.1084E+04  0.1083E+04
      4.377  0.1195E+03  0.1281E+03  0.1090E+04  0.1089E+04
      4.429  0.1153E+03  0.1163E+03  0.1096E+04  0.1096E+04
      4.482  0.1335E+03  0.1286E+03  0.1103E+04  0.1102E+04
      4.534  0.9695E+02  0.1050E+03  0.1109E+04  0.1108E+04
      4.587  0.8352E+02  0.8817E+02  0.1113E+04  0.1112E+04
      4.639  0.1081E+03  0.1003E+03  0.1119E+04  0.1118E+04
      4.692  0.1167E+03  0.1175E+03  0.1125E+04  0.1124E+04
      4.744  0.1116E+03  0.1105E+03  0.1131E+04  0.1130E+04
      4.797  0.1304E+03  0.1312E+03  0.1137E+04  0.1137E+04
      4.849  0.1198E+03  0.1224E+03  0.1144E+04  0.1143E+04
      4.902  0.1251E+03  0.1267E+03  0.1150E+04  0.1150E+04
      4.954  0.1117E+03  0.1097E+03  0.1156E+04  0.1155E+04
      5.007  0.1080E+03  0.1076E+03  0.1162E+04  0.1161E+04
      5.059  0.1488E+03  0.1498E+03  0.1170E+04  0.1169E+04
      5.112  0.1073E+03  0.1094E+03  0.1175E+04  0.1175E+04
      5.165  0.1159E+03  0.1169E+03  0.1181E+04  0.1181E+04
      5.217  0.8566E+02  0.8724E+02  0.1186E+04  0.1185E+04
      5.270  0.1090E+03  0.1061E+03  0.1192E+04  0.1191E+04
      5.322  0.1083E+03  0.1062E+03  0.1197E+04  0.1197E+04
      5.375  0.1397E+03  0.1423E+03  0.1205E+04  0.1204E+04
      5.427  0.1453E+03  0.1464E+03  0.1212E+04  0.1212E+04
      5.480  0.1580E+03  0.1537E+03  0.1221E+04  0.1220E+04
      5.532  0.1345E+03  0.1374E+03  0.1228E+04  0.1227E+04
      5.585  0.1494E+03  0.1517E+03  0.1236E+04  0.1235E+04
      5.637  0.1365E+03  0.1373E+03  0.1243E+04  0.1242E+04
      5.690  0.9180E+02  0.9389E+02  0.1248E+04  0.1247E+04
      5.742  0.1212E+03  0.1180E+03  0.1254E+04  0.1253E+04
      5.795  0.1158E+03  0.1164E+03  0.1260E+04  0.1259E+04
      5.848  0.1301E+03  0.1282E+03  0.1267E+04  0.1266E+04
      5.900  0.8789E+02  0.9284E+02  0.1271E+04  0.1271E+04
      5.953  0.1080E+02  0.1727E+02  0.1272E+04  0.1272E+04
      6.005  0.0000E+00  0.0000E+00  0.1272E+04  0.1272E+04
      6.058  0.0000E+00  0.0000E+00  0.1272E+04  0.1272E+04
      6.110  0.0000E+00  0.0000E+00  0.1272E+04  0.1272E+04
      6.163  0.0000E+00  0.0000E+00  0.1272E+04  0.1272E+04
      6.215  0.0000E+00  0.0000E+00  0.1272E+04  0.1272E+04
      6.268  0.0000E+00  0.0000E+00  0.1272E+04  0.1272E+04
      6.320  0.0000E+00  0.0000E+00  0.1272E+04  0.1272E+04
      6.373  0.0000E+00  0.0000E+00  0.1272E+04  0.1272E+04
      6.425  0.0000E+00  0.0000E+00  0.1272E+04  0.1272E+04
      6.478  0.0000E+00  0.0000E+00  0.1272E+04  0.1272E+04
      6.530  0.0000E+00  0.0000E+00  0.1272E+04  0.1272E+04
      6.583  0.0000E+00  0.0000E+00  0.1272E+04  0.1272E+04
      6.636  0.0000E+00  0.0000E+00  0.1272E+04  0.1272E+04
