 vasp.6.4.3 19Mar24 (build Oct 22 2024 11:23:12) complex                        
  
 executed on             LinuxIFC date 2025.06.13  11:55:53
 running   64 mpi-ranks, on    4 nodes
 distrk:  each k-point on   64 cores,    1 groups
 distr:  one band on NCORE=  16 cores,    4 groups


--------------------------------------------------------------------------------------------------------


 INCAR:
   SYSTEM = Si and Ge interface calculation
   ISTART = 0
   ICHARG = 2
   LWAVE = .FALSE.
   LREAL = AUTO
   ENCUT = 700
   ENAUG = 900
   ADDGRID = .TRUE.
   LMAXMIX = 6
   LASPH = .TRUE.
   LMIXTAU = .TRUE.
   NCORE = 16
   NELM = 100
   NBANDS = 634
   EDIFF = 1d-7
   AMIX = 0.6
   ISMEAR = 0
   SIGMA = 0.01
   NELECT = 1056
   ISPIN = 2
   NUPDOWN = 1
   LVTOT = .FALSE.
   LVHAR = .TRUE.

 POTCAR:    PAW_PBE Sn 08Apr2002                  
 POTCAR:    PAW_PBE Si 05Jan2001                  
 -----------------------------------------------------------------------------
|                                                                             |
|           W    W    AA    RRRRR   N    N  II  N    N   GGGG   !!!           |
|           W    W   A  A   R    R  NN   N  II  NN   N  G    G  !!!           |
|           W    W  A    A  R    R  N N  N  II  N N  N  G       !!!           |
|           W WW W  AAAAAA  RRRRR   N  N N  II  N  N N  G  GGG   !            |
|           WW  WW  A    A  R   R   N   NN  II  N   NN  G    G                |
|           W    W  A    A  R    R  N    N  II  N    N   GGGG   !!!           |
|                                                                             |
|     You use a magnetic or noncollinear calculation, but did not specify     |
|     the initial magnetic moment with the MAGMOM tag. Note that a            |
|     default of 3.788e-3 will be used for all atoms. This ferromagnetic      |
|     setup may break the symmetry of the crystal, in particular it may       |
|     rule out finding an antiferromagnetic solution. Thence, we              |
|     recommend setting the initial magnetic moment manually or verifying     |
|     carefully that this magnetic setup is desired.                          |
|                                                                             |
 -----------------------------------------------------------------------------

 POTCAR:    PAW_PBE Sn 08Apr2002                  
   VRHFIN =Sn: s2p2                                                                                 
   LEXCH  = PE                                                                                      
   EATOM  =    94.0860 eV,    6.9151 Ry                                                             
                                                                                                    
   TITEL  = PAW_PBE Sn 08Apr2002                                                                    
   LULTRA =        F    use ultrasoft PP ?                                                          
   IUNSCR =        1    unscreen: 0-lin 1-nonlin 2-no                                               
   RPACOR =    2.000    partial core radius                                                         
   POMASS =  118.710; ZVAL   =    4.000    mass and valenz                                          
   RCORE  =    3.000    outmost cutoff radius                                                       
   RWIGS  =    2.960; RWIGS  =    1.566    wigner-seitz radius (au A)                               
   ENMAX  =  103.236; ENMIN  =   77.427 eV                                                          
   ICORE  =        3    local potential                                                             
   LCOR   =        T    correct aug charges                                                         
   LPAW   =        T    paw PP                                                                      
   EAUG   =  263.585                                                                                
   DEXC   =    0.000                                                                                
   RMAX   =    3.078    core radius for proj-oper                                                   
   RAUG   =    1.300    factor for augmentation sphere                                              
   RDEP   =    3.022    radius for radial grids                                                     
   RDEPT  =    2.655    core radius for aug-charge                                                  
                                                                                                    
   Atomic configuration                                                                             
   13 entries                                                                                       
     n  l   j            E        occ.                                                              
     1  0  0.50    -29007.2859   2.0000                                                             
     2  0  0.50     -4378.8056   2.0000                                                             
     2  1  1.50     -3930.4293   6.0000                                                             
     3  0  0.50      -845.0264   2.0000                                                             
     3  1  1.50      -698.5725   6.0000                                                             
     3  2  2.50      -473.2839  10.0000                                                             
     4  0  0.50      -133.9036   2.0000                                                             
     4  1  1.50       -89.6752   6.0000                                                             
     4  2  2.50       -25.8375  10.0000                                                             
     5  0  0.50       -10.5484   2.0000                                                             
     5  1  0.50        -3.6940   2.0000                                                             
     5  2  1.50        -1.3606   0.0000                                                             
     4  3  2.50        -4.0817   0.0000                                                             
   Description                                                                                      
     l       E           TYP  RCUT    TYP  RCUT                                                     
     0    -10.5483727     23  3.000                                                                 
     0     27.2116520     23  3.000                                                                 
     1     -3.6939829     23  3.000                                                                 
     1      1.9821976     23  3.000                                                                 
     2     -1.3605826     23  3.000                                                                 
     3     -2.7211652     23  3.000                                                                 
  local pseudopotential read in
  partial core-charges read in
  partial kinetic energy density read in
  atomic valenz-charges read in
  non local Contribution for L=           0  read in
    real space projection operators read in
  non local Contribution for L=           0  read in
    real space projection operators read in
  non local Contribution for L=           1  read in
    real space projection operators read in
  non local Contribution for L=           1  read in
    real space projection operators read in
  non local Contribution for L=           2  read in
    real space projection operators read in
    PAW grid and wavefunctions read in
 
   number of l-projection  operators is LMAX  =           5
   number of lm-projection operators is LMMAX =          13
 
 POTCAR:    PAW_PBE Si 05Jan2001                  
   VRHFIN =Si: s2p2                                                                                 
   LEXCH  = PE                                                                                      
   EATOM  =   103.0669 eV,    7.5752 Ry                                                             
                                                                                                    
   TITEL  = PAW_PBE Si 05Jan2001                                                                    
   LULTRA =        F    use ultrasoft PP ?                                                          
   IUNSCR =        1    unscreen: 0-lin 1-nonlin 2-no                                               
   RPACOR =    1.500    partial core radius                                                         
   POMASS =   28.085; ZVAL   =    4.000    mass and valenz                                          
   RCORE  =    1.900    outmost cutoff radius                                                       
   RWIGS  =    2.480; RWIGS  =    1.312    wigner-seitz radius (au A)                               
   ENMAX  =  245.345; ENMIN  =  184.009 eV                                                          
   ICORE  =        2    local potential                                                             
   LCOR   =        T    correct aug charges                                                         
   LPAW   =        T    paw PP                                                                      
   EAUG   =  322.069                                                                                
   DEXC   =    0.000                                                                                
   RMAX   =    1.950    core radius for proj-oper                                                   
   RAUG   =    1.300    factor for augmentation sphere                                              
   RDEP   =    1.993    radius for radial grids                                                     
   RDEPT  =    1.837    core radius for aug-charge                                                  
                                                                                                    
   Atomic configuration                                                                             
    6 entries                                                                                       
     n  l   j            E        occ.                                                              
     1  0  0.50     -1785.8828   2.0000                                                             
     2  0  0.50      -139.4969   2.0000                                                             
     2  1  1.50       -95.5546   6.0000                                                             
     3  0  0.50       -10.8127   2.0000                                                             
     3  1  0.50        -4.0811   2.0000                                                             
     3  2  1.50        -4.0817   0.0000                                                             
   Description                                                                                      
     l       E           TYP  RCUT    TYP  RCUT                                                     
     0    -10.8127223     23  1.900                                                                 
     0     -7.6451159     23  1.900                                                                 
     1     -4.0811372     23  1.900                                                                 
     1      2.4879257     23  1.900                                                                 
     2     -4.0817478      7  1.900                                                                 
  local pseudopotential read in
  partial core-charges read in
  partial kinetic energy density read in
  atomic valenz-charges read in
  non local Contribution for L=           0  read in
    real space projection operators read in
  non local Contribution for L=           0  read in
    real space projection operators read in
  non local Contribution for L=           1  read in
    real space projection operators read in
  non local Contribution for L=           1  read in
    real space projection operators read in
    PAW grid and wavefunctions read in
 
   number of l-projection  operators is LMAX  =           4
   number of lm-projection operators is LMMAX =           8
 
 Optimization of the real space projectors (new method)

 maximal supplied QI-value         = 12.47
 optimisation between [QCUT,QGAM] = [ 12.47, 27.06] = [ 43.56,205.12] Ry 
 Optimized for a Real-space Cutoff    1.58 Angstroem

   l    n(q)    QCUT    max X(q) W(low)/X(q) W(high)/X(q)  e(spline) 
   0     13    12.472    14.688    0.45E-04    0.45E-04    0.25E-05
   0     13    12.472     7.308    0.94E-04    0.11E-03    0.61E-05
   1     12    12.472    45.102    0.34E-03    0.14E-03    0.21E-05
   1     12    12.472    30.691    0.31E-03    0.13E-03    0.20E-05
   2     12    12.472     7.156    0.86E-04    0.11E-03    0.17E-05
 WARNING: PSMAXN for non-local potential too small
          PSMAXN should be >   13.5545592237991       NTYP=           1
 Optimization of the real space projectors (new method)

 maximal supplied QI-value         = 19.84
 optimisation between [QCUT,QGAM] = [ 13.49, 26.99] = [ 50.98,203.92] Ry 
 Optimized for a Real-space Cutoff    1.07 Angstroem

   l    n(q)    QCUT    max X(q) W(low)/X(q) W(high)/X(q)  e(spline) 
   0      9    13.493   159.560    0.22E-03    0.15E-03    0.72E-07
   0      9    13.493   115.863    0.21E-03    0.15E-03    0.71E-07
   1      8    13.493    88.339    0.15E-03    0.11E-03    0.13E-06
   1      8    13.493    48.592    0.15E-03    0.10E-03    0.13E-06
  PAW_PBE Sn 08Apr2002                  :
 energy of atom  1       EATOM=  -94.0860
 kinetic energy error for atom=    0.0000 (will be added to EATOM!!)
  PAW_PBE Si 05Jan2001                  :
 energy of atom  2       EATOM= -103.0669
 kinetic energy error for atom=    0.0003 (will be added to EATOM!!)
 
 
 POSCAR: Sn+Si
  positions in direct lattice
  No initial velocities read in


 exchange-correlation table for PE
   RHO(1)=    0.500       N(1)  =     2000
   RHO(2)=  100.500       N(2)  =     4000
 


--------------------------------------------------------------------------------------------------------


 ion  position               nearest neighbor table
   1  0.995  0.667  0.000-  31 2.81 100 2.81 162 2.84 231 2.95
   2  0.828  0.667  0.170-  49 2.81  32 2.81 100 2.81 101 2.81
   3  0.662  0.667  0.340-  50 2.81  33 2.81 101 2.81 102 2.81
   4  0.995  0.333  0.000- 153 2.29  34 2.81 103 2.81
   5  0.828  0.333  0.170-  52 2.81  35 2.81 103 2.81 104 2.81
   6  0.662  0.333  0.340-  53 2.81  36 2.81 104 2.81 105 2.81
   7  0.995  0.000  0.000-  28 2.81 106 2.81 228 2.87 159 2.99
   8  0.828  0.000  0.170-  46 2.81  29 2.81 106 2.81 107 2.81
   9  0.662  0.000  0.340-  47 2.81  30 2.81 107 2.81 108 2.81
  10  0.328  0.667  0.000- 246 2.34  40 2.81  82 2.81
  11  0.162  0.667  0.170-  41 2.81  31 2.81  83 2.81  82 2.81
  12  0.995  0.667  0.340-  42 2.81  32 2.81  83 2.81  84 2.81
  13  0.328  0.333  0.000-  43 2.81  85 2.81 249 3.32 165 3.42 168 3.42
  14  0.162  0.333  0.170-  86 2.81  44 2.81  34 2.81  85 2.81
  15  0.995  0.333  0.340-  45 2.81  35 2.81  86 2.81  87 2.81
  16  0.328  0.000  0.000- 240 2.24  37 2.81  88 2.81
  17  0.162  0.000  0.170-  38 2.81  28 2.81  89 2.81  88 2.81
  18  0.995  0.000  0.340-  39 2.81  29 2.81  89 2.81  90 2.81
  19  0.662  0.667  0.000-  49 2.81  91 2.81 186 2.83 261 2.95
  20  0.495  0.667  0.170-  92 2.81  40 2.81  50 2.81  91 2.81
  21  0.328  0.667  0.340-  51 2.81  41 2.81  93 2.81  92 2.81
  22  0.662  0.333  0.000- 180 2.29  94 2.81  52 2.81
  23  0.495  0.333  0.170-  95 2.81  43 2.81  53 2.81  94 2.81
  24  0.328  0.333  0.340-  54 2.81  96 2.81  44 2.81  95 2.81
  25  0.662  0.000  0.000-  46 2.81  97 2.81 255 2.87 171 2.98
  26  0.495  0.000  0.170-  98 2.81  37 2.81  47 2.81  97 2.81
  27  0.328  0.000  0.340-  48 2.81  38 2.81  99 2.81  98 2.81
  28  0.078  0.917  0.085-  17 2.81   7 2.81  55 2.81  56 2.81
  29  0.912  0.917  0.255-   8 2.81  18 2.81  56 2.81  57 2.81
  30  0.745  0.917  0.425-   9 2.81  57 2.81 142 2.84 214 2.95
  31  0.078  0.583  0.085-  11 2.81   1 2.81  58 2.81  59 2.81
  32  0.912  0.583  0.255-   2 2.81  12 2.81  59 2.81  60 2.81
  33  0.745  0.583  0.425- 136 2.29   3 2.81  60 2.81
  34  0.078  0.250  0.085-  14 2.81  61 2.81   4 2.81  62 2.81
  35  0.912  0.250  0.255-  62 2.81   5 2.81  15 2.81  63 2.81
  36  0.745  0.250  0.425-   6 2.81  63 2.81 208 2.87 127 2.99
  37  0.412  0.917  0.085-  16 2.81  26 2.81  64 2.81  65 2.81
  38  0.245  0.917  0.255-  17 2.81  27 2.81  65 2.81  66 2.81
  39  0.078  0.917  0.425- 223 2.34  18 2.81  66 2.81
  40  0.412  0.583  0.085-  10 2.81  20 2.81  67 2.81  68 2.81
  41  0.245  0.583  0.255-  11 2.81  21 2.81  68 2.81  69 2.81
  42  0.078  0.583  0.425-  12 2.81  69 2.81 190 3.32 145 3.42 112 3.42
  43  0.412  0.250  0.085-  13 2.81  70 2.81  71 2.81  23 2.81
  44  0.245  0.250  0.255-  71 2.81  14 2.81  72 2.81  24 2.81
  45  0.078  0.250  0.425- 187 2.24  15 2.81  72 2.81
  46  0.745  0.917  0.085-   8 2.81  25 2.81  74 2.81  73 2.81
  47  0.578  0.917  0.255-   9 2.81  26 2.81  74 2.81  75 2.81
  48  0.412  0.917  0.425-  27 2.81  75 2.81 130 2.83 202 2.95
  49  0.745  0.583  0.085-   2 2.81  19 2.81  77 2.81  76 2.81
  50  0.578  0.583  0.255-   3 2.81  20 2.81  77 2.81  78 2.81
  51  0.412  0.583  0.425- 121 2.29  21 2.81  78 2.81
  52  0.745  0.250  0.085-   5 2.81  80 2.81  79 2.81  22 2.81
  53  0.578  0.250  0.255-   6 2.81  80 2.81  81 2.81  23 2.81
  54  0.412  0.250  0.425-  24 2.81  81 2.81 196 2.87 115 2.98
  55  0.162  0.833  0.000- 243 2.29  82 2.81  28 2.81
  56  0.995  0.833  0.170- 100 2.81  83 2.81  29 2.81  28 2.81
  57  0.828  0.833  0.340-  84 2.81 101 2.81  30 2.81  29 2.81
  58  0.162  0.500  0.000-  85 2.81  31 2.81 165 2.87 234 2.98
  59  0.995  0.500  0.170- 103 2.81  86 2.81  32 2.81  31 2.81
  60  0.828  0.500  0.340-  87 2.81 104 2.81  33 2.81  32 2.81
  61  0.162  0.167  0.000-  88 2.81  34 2.81 237 2.83 156 2.95
  62  0.995  0.167  0.170-  35 2.81 106 2.81  89 2.81  34 2.81
  63  0.828  0.167  0.340-  90 2.81  36 2.81  35 2.81 107 2.81
  64  0.495  0.833  0.000- 258 2.29  91 2.81  37 2.81
  65  0.328  0.833  0.170-  82 2.81  92 2.81  38 2.81  37 2.81
  66  0.162  0.833  0.340-  83 2.81  93 2.81  38 2.81  39 2.81
  67  0.495  0.500  0.000-  94 2.81  40 2.81 177 2.87 249 2.99
  68  0.328  0.500  0.170-  85 2.81  95 2.81  41 2.81  40 2.81
  69  0.162  0.500  0.340-  86 2.81  96 2.81  41 2.81  42 2.81
  70  0.495  0.167  0.000-  43 2.81  97 2.81 252 2.84 168 2.95
  71  0.328  0.167  0.170-  44 2.81  88 2.81  43 2.81  98 2.81
  72  0.162  0.167  0.340-  89 2.81  44 2.81  45 2.81  99 2.81
  73  0.828  0.833  0.000- 100 2.81  46 2.81 159 3.32 255 3.42 231 3.42
  74  0.662  0.833  0.170- 101 2.81  91 2.81  47 2.81  46 2.81
  75  0.495  0.833  0.340- 102 2.81  92 2.81  47 2.81  48 2.81
  76  0.828  0.500  0.000- 150 2.24 103 2.81  49 2.81
  77  0.662  0.500  0.170- 104 2.81  94 2.81  50 2.81  49 2.81
  78  0.495  0.500  0.340- 105 2.81  95 2.81  50 2.81  51 2.81
  79  0.828  0.167  0.000- 183 2.34 106 2.81  52 2.81
  80  0.662  0.167  0.170- 107 2.81  53 2.81  52 2.81  97 2.81
  81  0.495  0.167  0.340- 108 2.81  98 2.81  53 2.81  54 2.81
  82  0.245  0.750  0.085-  65 2.81  55 2.81  11 2.81  10 2.81
  83  0.078  0.750  0.255-  56 2.81  66 2.81  11 2.81  12 2.81
  84  0.912  0.750  0.425-  57 2.81  12 2.81 145 2.87 217 2.98
  85  0.245  0.417  0.085-  68 2.81  58 2.81  14 2.81  13 2.81
  86  0.078  0.417  0.255-  59 2.81  14 2.81  69 2.81  15 2.81
  87  0.912  0.417  0.425-  60 2.81  15 2.81 220 2.83 139 2.95
  88  0.245  0.083  0.085-  71 2.81  61 2.81  17 2.81  16 2.81
  89  0.078  0.083  0.255-  17 2.81  62 2.81  72 2.81  18 2.81
  90  0.912  0.083  0.425- 211 2.29  63 2.81  18 2.81
  91  0.578  0.750  0.085-  74 2.81  64 2.81  19 2.81  20 2.81
  92  0.412  0.750  0.255-  20 2.81  75 2.81  65 2.81  21 2.81
  93  0.245  0.750  0.425-  66 2.81  21 2.81 118 2.87 190 2.99
  94  0.578  0.417  0.085-  77 2.81  67 2.81  22 2.81  23 2.81
  95  0.412  0.417  0.255-  23 2.81  78 2.81  68 2.81  24 2.81
  96  0.245  0.417  0.425-  69 2.81  24 2.81 193 2.84 112 2.95
  97  0.578  0.083  0.085-  25 2.81  80 2.81  70 2.81  26 2.81
  98  0.412  0.083  0.255-  26 2.81  81 2.81  71 2.81  27 2.81
  99  0.245  0.083  0.425- 199 2.29  27 2.81  72 2.81
 100  0.912  0.750  0.085-  73 2.81  56 2.81   2 2.81   1 2.81
 101  0.745  0.750  0.255-  74 2.81  57 2.81   2 2.81   3 2.81
 102  0.578  0.750  0.425- 133 2.24  75 2.81   3 2.81
 103  0.912  0.417  0.085-  76 2.81  59 2.81   5 2.81   4 2.81
 104  0.745  0.417  0.255-  77 2.81  60 2.81   5 2.81   6 2.81
 105  0.578  0.417  0.425- 124 2.34  78 2.81   6 2.81
 106  0.912  0.083  0.085-  79 2.81  62 2.81   8 2.81   7 2.81
 107  0.745  0.083  0.255-  80 2.81   8 2.81   9 2.81  63 2.81
 108  0.578  0.083  0.425-  81 2.81   9 2.81 127 3.32 196 3.42 214 3.42
 109  0.073  0.080  0.535- 253 2.34 157 2.34
 110  0.958  0.003  0.677- 184 2.34 254 2.34 158 2.34 253 2.34
 111  0.842  0.926  0.819- 185 2.34 159 2.34 255 2.34 254 2.34
 112  0.150  0.464  0.535- 262 2.34 151 2.34  96 2.95  42 3.42
 113  0.035  0.387  0.677- 181 2.34 152 2.34 262 2.34 263 2.34
 114  0.919  0.311  0.819- 182 2.34 153 2.34 263 2.34 264 2.34
 115  0.304  0.234  0.535- 226 2.34 154 2.34  54 2.98
 116  0.189  0.157  0.677- 157 2.34 155 2.34 227 2.34 226 2.34
 117  0.073  0.080  0.819- 158 2.34 156 2.34 228 2.34 227 2.34
 118  0.227  0.849  0.535- 160 2.34 229 2.34  93 2.87
 119  0.112  0.772  0.677- 230 2.34 148 2.34 161 2.34 229 2.34
 120  0.996  0.695  0.819- 149 2.34 230 2.34 231 2.34 162 2.34
 121  0.381  0.618  0.535-  51 2.29 163 2.34 232 2.34
 122  0.266  0.541  0.677- 151 2.34 233 2.34 164 2.34 232 2.34
 123  0.150  0.464  0.819- 152 2.34 165 2.34 234 2.34 233 2.34
 124  0.535  0.387  0.535- 105 2.34 235 2.34 166 2.34
 125  0.419  0.311  0.677- 154 2.34 236 2.34 167 2.34 235 2.34
 126  0.304  0.234  0.819- 155 2.34 237 2.34 168 2.34 236 2.34
 127  0.689  0.157  0.535- 238 2.34 169 2.34  36 2.99 108 3.32
 128  0.573  0.080  0.677- 172 2.34 239 2.34 170 2.34 238 2.34
 129  0.458  0.003  0.819- 173 2.34 171 2.34 240 2.34 239 2.34
 130  0.458  0.003  0.535- 172 2.34 241 2.34  48 2.83
 131  0.342  0.926  0.677- 160 2.34 242 2.34 173 2.34 241 2.34
 132  0.227  0.849  0.819- 161 2.34 174 2.34 242 2.34 243 2.34
 133  0.612  0.772  0.535- 102 2.24 244 2.34 175 2.34
 134  0.496  0.695  0.677- 163 2.34 245 2.34 176 2.34 244 2.34
 135  0.381  0.618  0.819- 164 2.34 246 2.34 177 2.34 245 2.34
 136  0.766  0.541  0.535-  33 2.29 247 2.34 178 2.34
 137  0.650  0.464  0.677- 166 2.34 248 2.34 247 2.34 179 2.34
 138  0.535  0.387  0.819- 249 2.34 167 2.34 248 2.34 180 2.34
 139  0.919  0.311  0.535- 250 2.34 181 2.34  87 2.95
 140  0.804  0.234  0.677- 169 2.34 182 2.34 251 2.34 250 2.34
 141  0.689  0.157  0.819- 170 2.34 252 2.34 183 2.34 251 2.34
 142  0.842  0.926  0.535- 256 2.34 184 2.34  30 2.84
 143  0.727  0.849  0.677- 175 2.34 257 2.34 185 2.34 256 2.34
 144  0.612  0.772  0.819- 176 2.34 186 2.34 258 2.34 257 2.34
 145  0.996  0.695  0.535- 259 2.34 148 2.34  84 2.87  42 3.42
 146  0.881  0.618  0.677- 178 2.34 149 2.34 260 2.34 259 2.34
 147  0.766  0.541  0.819- 179 2.34 150 2.34 260 2.34 261 2.34
 148  0.092  0.676  0.606- 119 2.34 145 2.34 191 2.34 190 2.34
 149  0.977  0.599  0.748- 146 2.34 191 2.34 120 2.34 192 2.34
 150  0.862  0.522  0.890-  76 2.24 147 2.34 192 2.34
 151  0.246  0.445  0.606- 122 2.34 112 2.34 194 2.34 193 2.34
 152  0.131  0.368  0.748- 123 2.34 113 2.34 194 2.34 195 2.34
 153  0.016  0.291  0.890-   4 2.29 195 2.34 114 2.34
 154  0.400  0.214  0.606- 125 2.34 115 2.34 196 2.34 197 2.34
 155  0.285  0.137  0.748- 116 2.34 126 2.34 197 2.34 198 2.34
 156  0.169  0.061  0.890- 117 2.34 198 2.34  61 2.95
 157  0.169  0.061  0.606- 116 2.34 109 2.34 199 2.34 200 2.34
 158  0.054  0.984  0.748- 117 2.34 110 2.34 200 2.34 201 2.34
 159  0.939  0.907  0.890- 111 2.34 201 2.34   7 2.99  73 3.32
 160  0.323  0.830  0.606- 131 2.34 118 2.34 202 2.34 203 2.34
 161  0.208  0.753  0.748- 203 2.34 132 2.34 119 2.34 204 2.34
 162  0.092  0.676  0.890- 204 2.34 120 2.34   1 2.84
 163  0.477  0.599  0.606- 134 2.34 205 2.34 121 2.34 206 2.34
 164  0.362  0.522  0.748- 135 2.34 206 2.34 122 2.34 207 2.34
 165  0.246  0.445  0.890- 207 2.34 123 2.34  58 2.87  13 3.42
 166  0.631  0.368  0.606- 137 2.34 209 2.34 208 2.34 124 2.34
 167  0.516  0.291  0.748- 125 2.34 138 2.34 210 2.34 209 2.34
 168  0.400  0.214  0.890- 126 2.34 210 2.34  70 2.95  13 3.42
 169  0.785  0.137  0.606- 140 2.34 212 2.34 211 2.34 127 2.34
 170  0.669  0.061  0.748- 141 2.34 128 2.34 212 2.34 213 2.34
 171  0.554  0.984  0.890- 129 2.34 213 2.34  25 2.98
 172  0.554  0.984  0.606- 128 2.34 214 2.34 130 2.34 215 2.34
 173  0.439  0.907  0.748- 129 2.34 215 2.34 131 2.34 216 2.34
 174  0.323  0.830  0.890- 216 2.34 132 2.34
 175  0.708  0.753  0.606- 143 2.34 217 2.34 133 2.34 218 2.34
 176  0.592  0.676  0.748- 218 2.34 144 2.34 134 2.34 219 2.34
 177  0.477  0.599  0.890- 219 2.34 135 2.34  67 2.87
 178  0.862  0.522  0.606- 146 2.34 220 2.34 221 2.34 136 2.34
 179  0.746  0.445  0.748- 221 2.34 147 2.34 222 2.34 137 2.34
 180  0.631  0.368  0.890-  22 2.29 222 2.34 138 2.34
 181  0.016  0.291  0.606- 187 2.34 113 2.34 188 2.34 139 2.34
 182  0.900  0.214  0.748- 188 2.34 140 2.34 114 2.34 189 2.34
 183  0.785  0.137  0.890-  79 2.34 189 2.34 141 2.34
 184  0.939  0.907  0.606- 110 2.34 223 2.34 142 2.34 224 2.34
 185  0.823  0.830  0.748- 111 2.34 224 2.34 143 2.34 225 2.34
 186  0.708  0.753  0.890- 144 2.34 225 2.34  19 2.83
 187  0.112  0.272  0.535-  45 2.24 181 2.34 226 2.34
 188  0.996  0.195  0.677- 253 2.34 182 2.34 227 2.34 181 2.34
 189  0.881  0.118  0.819- 183 2.34 254 2.34 182 2.34 228 2.34
 190  0.189  0.657  0.535- 148 2.34 232 2.34  93 2.99  42 3.32
 191  0.073  0.580  0.677- 262 2.34 148 2.34 233 2.34 149 2.34
 192  0.958  0.503  0.819- 263 2.34 150 2.34 149 2.34 234 2.34
 193  0.342  0.426  0.535- 235 2.34 151 2.34  96 2.84
 194  0.227  0.349  0.677- 226 2.34 151 2.34 236 2.34 152 2.34
 195  0.112  0.272  0.819- 227 2.34 152 2.34 153 2.34 237 2.34
 196  0.496  0.195  0.535- 238 2.34 154 2.34  54 2.87 108 3.42
 197  0.381  0.118  0.677- 241 2.34 239 2.34 155 2.34 154 2.34
 198  0.266  0.041  0.819- 242 2.34 156 2.34 240 2.34 155 2.34
 199  0.266  0.041  0.535-  99 2.29 157 2.34 241 2.34
 200  0.150  0.964  0.677- 229 2.34 158 2.34 242 2.34 157 2.34
 201  0.035  0.887  0.819- 230 2.34 159 2.34 158 2.34 243 2.34
 202  0.419  0.811  0.535- 244 2.34 160 2.34  48 2.95
 203  0.304  0.734  0.677- 232 2.34 161 2.34 245 2.34 160 2.34
 204  0.189  0.657  0.819- 233 2.34 246 2.34 162 2.34 161 2.34
 205  0.573  0.580  0.535- 163 2.34 247 2.34
 206  0.458  0.503  0.677- 235 2.34 248 2.34 164 2.34 163 2.34
 207  0.342  0.426  0.819- 236 2.34 165 2.34 249 2.34 164 2.34
 208  0.727  0.349  0.535- 166 2.34 250 2.34  36 2.87
 209  0.612  0.272  0.677- 238 2.34 251 2.34 166 2.34 167 2.34
 210  0.496  0.195  0.819- 239 2.34 167 2.34 252 2.34 168 2.34
 211  0.881  0.118  0.535-  90 2.29 169 2.34 253 2.34
 212  0.766  0.041  0.677- 256 2.34 169 2.34 170 2.34 254 2.34
 213  0.650  0.964  0.819- 257 2.34 170 2.34 171 2.34 255 2.34
 214  0.650  0.964  0.535- 172 2.34 256 2.34  30 2.95 108 3.42
 215  0.535  0.887  0.677- 244 2.34 173 2.34 172 2.34 257 2.34
 216  0.419  0.811  0.819- 245 2.34 174 2.34 258 2.34 173 2.34
 217  0.804  0.734  0.535- 175 2.34 259 2.34  84 2.98
 218  0.689  0.657  0.677- 247 2.34 176 2.34 260 2.34 175 2.34
 219  0.573  0.580  0.819- 248 2.34 177 2.34 261 2.34 176 2.34
 220  0.958  0.503  0.535- 178 2.34 262 2.34  87 2.83
 221  0.842  0.426  0.677- 263 2.34 250 2.34 178 2.34 179 2.34
 222  0.727  0.349  0.819- 264 2.34 179 2.34 251 2.34 180 2.34
 223  0.035  0.887  0.535-  39 2.34 229 2.34 184 2.34
 224  0.919  0.811  0.677- 259 2.34 185 2.34 230 2.34 184 2.34
 225  0.804  0.734  0.819- 260 2.34 231 2.34 186 2.34 185 2.34
 226  0.208  0.253  0.606- 194 2.34 187 2.34 115 2.34 116 2.34
 227  0.092  0.176  0.748- 116 2.34 195 2.34 188 2.34 117 2.34
 228  0.977  0.099  0.890- 189 2.34 117 2.34   7 2.87
 229  0.131  0.868  0.606- 200 2.34 223 2.34 118 2.34 119 2.34
 230  0.016  0.791  0.748- 119 2.34 201 2.34 224 2.34 120 2.34
 231  0.900  0.714  0.890- 225 2.34 120 2.34   1 2.95  73 3.42
 232  0.285  0.637  0.606- 203 2.34 190 2.34 121 2.34 122 2.34
 233  0.169  0.561  0.748- 204 2.34 191 2.34 122 2.34 123 2.34
 234  0.054  0.484  0.890- 123 2.34 192 2.34  58 2.98
 235  0.439  0.407  0.606- 206 2.34 124 2.34 193 2.34 125 2.34
 236  0.323  0.330  0.748- 207 2.34 125 2.34 194 2.34 126 2.34
 237  0.208  0.253  0.890- 195 2.34 126 2.34  61 2.83
 238  0.592  0.176  0.606- 209 2.34 196 2.34 127 2.34 128 2.34
 239  0.477  0.099  0.748- 128 2.34 210 2.34 197 2.34 129 2.34
 240  0.362  0.022  0.890-  16 2.24 129 2.34 198 2.34
 241  0.362  0.022  0.606- 197 2.34 130 2.34 131 2.34 199 2.34
 242  0.246  0.945  0.748- 198 2.34 131 2.34 200 2.34 132 2.34
 243  0.131  0.868  0.890-  55 2.29 132 2.34 201 2.34
 244  0.516  0.791  0.606- 215 2.34 202 2.34 133 2.34 134 2.34
 245  0.400  0.714  0.748- 216 2.34 203 2.34 134 2.34 135 2.34
 246  0.285  0.637  0.890-  10 2.34 204 2.34 135 2.34
 247  0.669  0.561  0.606- 218 2.34 136 2.34 205 2.34 137 2.34
 248  0.554  0.484  0.748- 219 2.34 137 2.34 206 2.34 138 2.34
 249  0.439  0.407  0.890- 138 2.34 207 2.34  67 2.99  13 3.32
 250  0.823  0.330  0.606- 221 2.34 139 2.34 208 2.34 140 2.34
 251  0.708  0.253  0.748- 209 2.34 140 2.34 222 2.34 141 2.34
 252  0.592  0.176  0.890- 141 2.34 210 2.34  70 2.84
 253  0.977  0.099  0.606- 188 2.34 109 2.34 211 2.34 110 2.34
 254  0.862  0.022  0.748- 110 2.34 212 2.34 189 2.34 111 2.34
 255  0.746  0.945  0.890- 111 2.34 213 2.34  25 2.87  73 3.42
 256  0.746  0.945  0.606- 212 2.34 142 2.34 214 2.34 143 2.34
 257  0.631  0.868  0.748- 213 2.34 143 2.34 215 2.34 144 2.34
 258  0.516  0.791  0.890-  64 2.29 216 2.34 144 2.34
 259  0.900  0.714  0.606- 224 2.34 145 2.34 146 2.34 217 2.34
 260  0.785  0.637  0.748- 225 2.34 146 2.34 218 2.34 147 2.34
 261  0.669  0.561  0.890- 219 2.34 147 2.34  19 2.95
 262  0.054  0.484  0.606- 191 2.34 112 2.34 220 2.34 113 2.34
 263  0.939  0.407  0.748- 221 2.34 192 2.34 113 2.34 114 2.34
 264  0.823  0.330  0.890- 222 2.34 114 2.34
 
  LATTYP: Found a simple tetragonal cell.
 ALAT       =    19.4675998690
 C/A-ratio  =     0.9811303026
  
  Lattice vectors:
  
 A1 = (  19.4675998690,   0.0000000000,   0.0000000000)
 A2 = (   0.0000000000,  19.4675998690,   0.0000000000)
 A3 = (   0.0000000000,   0.0000000000,  19.1002521510)


Analysis of symmetry for initial positions (statically):
=====================================================================
 Subroutine PRICEL returns following result:
 
  LATTYP: Found a simple tetragonal cell.
 ALAT       =    13.7656718808
 C/A-ratio  =     1.3875277804
  
  Lattice vectors:
  
 A1 = (   9.7337999345,  -9.7337999345,   0.0000000000)
 A2 = (   9.7337999345,   9.7337999345,   0.0000000000)
 A3 = (   0.0000000000,   0.0000000000,  19.1002521510)
 
   2 primitive cells build up your supercell.
 

 Routine SETGRP: Setting up the symmetry group for a 
 simple tetragonal supercell.


 Subroutine GETGRP returns: Found  2 space group operations
 (whereof  1 operations were pure point group operations)
 out of a pool of 16 trial point group operations.


The static configuration has the point symmetry C_1 .
 The point group associated with its full space group is C_1h.


Analysis of symmetry for dynamics (positions and initial velocities):
=====================================================================
 Subroutine PRICEL returns following result:
 
  LATTYP: Found a simple tetragonal cell.
 ALAT       =    13.7656718808
 C/A-ratio  =     1.3875277804
  
  Lattice vectors:
  
 A1 = (   9.7337999345,  -9.7337999345,   0.0000000000)
 A2 = (   9.7337999345,   9.7337999345,   0.0000000000)
 A3 = (   0.0000000000,   0.0000000000,  19.1002521510)
 
   2 primitive cells build up your supercell.
 

 Routine SETGRP: Setting up the symmetry group for a 
 simple tetragonal supercell.


 Subroutine GETGRP returns: Found  2 space group operations
 (whereof  1 operations were pure point group operations)
 out of a pool of 16 trial point group operations.


The dynamic configuration has the point symmetry C_1 .
 The point group associated with its full space group is C_1h.


Analysis of structural, dynamic, and magnetic symmetry:
=====================================================================
 Subroutine PRICEL returns following result:
 
  LATTYP: Found a simple tetragonal cell.
 ALAT       =    13.7656718808
 C/A-ratio  =     1.3875277804
  
  Lattice vectors:
  
 A1 = (   9.7337999345,  -9.7337999345,   0.0000000000)
 A2 = (   9.7337999345,   9.7337999345,   0.0000000000)
 A3 = (   0.0000000000,   0.0000000000,  19.1002521510)
 
   2 primitive cells build up your supercell.
 

 Routine SETGRP: Setting up the symmetry group for a 
 simple tetragonal supercell.


 Subroutine GETGRP returns: Found  2 space group operations
 (whereof  1 operations were pure point group operations)
 out of a pool of 16 trial point group operations.


The overall configuration has the point symmetry C_1 .
 The point group associated with its full space group is C_1h.


 Subroutine INISYM returns: Found  2 space group operations
 (whereof  1 operations are pure point group operations),
 and found     2 'primitive' translations


----------------------------------------------------------------------------------------

                                     Primitive cell                                     

  volume of cell :    3619.3779

  direct lattice vectors                    reciprocal lattice vectors
     9.733799935 -9.733799935  0.000000000     0.051367401 -0.051367401  0.000000000
     9.733799935  9.733799935  0.000000000     0.051367401  0.051367401  0.000000000
     0.000000000  0.000000000 19.100252151     0.000000000  0.000000000  0.052355330

  length of vectors
    13.765671881 13.765671881 19.100252151     0.072644475  0.072644475  0.052355330

  position of ions in fractional coordinates (direct lattice)
     0.328368425  0.661701799  0.000000000
     0.161701738  0.495035112  0.169872105
     0.995035052  0.328368426  0.339744180
     0.661701769  0.328368455  0.000000000
     0.495035112  0.161701738  0.169872105
     0.328368441  0.995035067  0.339744180
     0.995035112  0.995035112  0.000000000
     0.828368425  0.828368425  0.169872105
     0.661701754  0.661701754  0.339744180
     0.661701768  0.995035142  0.000000000
     0.495035052  0.828368426  0.169872105
     0.328368425  0.661701799  0.339744180
     0.995035232  0.661701858  0.000000000
     0.828368545  0.495035171  0.169872105
     0.661701769  0.328368455  0.339744180
     0.328368545  0.328368545  0.000000000
     0.161701858  0.161701858  0.169872105
     0.995035112  0.995035112  0.339744180
     0.995035111  0.328368485  0.000000000
     0.828368380  0.161701724  0.169872105
     0.661701768  0.995035142  0.339744180
     0.328368456  0.995035082  0.000000000
     0.161701739  0.828368365  0.169872105
     0.995035112  0.661701738  0.339744180
     0.661701769  0.661701769  0.000000000
     0.495035052  0.495035052  0.169872105
     0.328368425  0.328368425  0.339744180
     0.161701687  0.995035179  0.084936053
     0.995035052  0.828368544  0.254808098
     0.828368411  0.661701843  0.424680233
     0.495035000  0.661701866  0.084936053
     0.328368365  0.495035231  0.254808098
     0.161701619  0.328368485  0.424680233
     0.828368425  0.328368545  0.084936053
     0.661701798  0.161701798  0.254808098
     0.495035067  0.995035187  0.424680233
     0.495035023  0.328368455  0.084936053
     0.328368336  0.161701768  0.254808098
     0.161701635  0.995035127  0.424680233
     0.828368336  0.995035202  0.084936053
     0.661701664  0.828368530  0.254808098
     0.495034948  0.661701814  0.424680233
     0.161701679  0.661701799  0.084936053
     0.995034992  0.495035112  0.254808098
     0.828368381  0.328368381  0.424680233
     0.828368381  0.661701813  0.084936053
     0.661701717  0.495035149  0.254808098
     0.495035023  0.328368455  0.424680233
     0.161701739  0.328368605  0.084936053
     0.995035112  0.161701978  0.254808098
     0.828368396  0.995035082  0.424680233
     0.495035037  0.995035157  0.084936053
     0.328368373  0.828368493  0.254808098
     0.161701679  0.661701799  0.424680233
     0.993476391  0.152948857  0.534626484
     0.955014825  0.960641027  0.676797330
     0.916553318  0.768333256  0.818968296
     0.685784027  0.614487395  0.534626484
     0.647322536  0.422179580  0.676797330
     0.608860970  0.229871750  0.818968296
     0.070399523  0.537564277  0.534626484
     0.031937957  0.345256447  0.676797330
     0.993476390  0.152948618  0.818968296
     0.378091723  0.076025873  0.534626484
     0.339630172  0.883718058  0.676797330
     0.301168621  0.691410243  0.818968296
     0.762707203  0.999102801  0.534626484
     0.724245637  0.806794971  0.676797330
     0.685784116  0.614487186  0.818968296
     0.147322655  0.922179699  0.534626484
     0.108861089  0.729871869  0.676797330
     0.070399583  0.537564099  0.818968296
     0.531937942  0.845256552  0.534626484
     0.493476391  0.652948857  0.676797330
     0.455014825  0.460640907  0.818968296
     0.455014825  0.460641265  0.534626484
     0.416553319  0.268333495  0.676797330
     0.378091812  0.076025724  0.818968296
     0.839630247  0.383718133  0.534626484
     0.801168666  0.191410318  0.676797330
     0.762707173  0.999102533  0.818968296
     0.224245549  0.306795001  0.534626484
     0.185784101  0.114487171  0.676797330
     0.147322475  0.922179401  0.818968296
     0.608861059  0.229871899  0.534626484
     0.570399434  0.037564188  0.676797330
     0.531937913  0.845256403  0.818968296
     0.916553378  0.768333554  0.534626484
     0.878091872  0.576025784  0.676797330
     0.839630306  0.383717954  0.818968296
     0.301168740  0.691410482  0.534626484
     0.262707234  0.499102712  0.676797330
     0.224245668  0.306794882  0.818968296
     0.416553333  0.768333509  0.605711937
     0.378091812  0.576025724  0.747882783
     0.339630246  0.383717894  0.890053868
     0.801168650  0.691410452  0.605711937
     0.762707114  0.499102652  0.747882783
     0.724245608  0.306794822  0.890053868
     0.185784161  0.614487469  0.605711937
     0.147322595  0.422179639  0.747882783
     0.108861029  0.229871691  0.890053868
     0.108861030  0.229872048  0.605711937
     0.070399404  0.037564158  0.747882783
     0.031937838  0.845256328  0.890053868
     0.493476361  0.152948945  0.605711937
     0.455014825  0.960641145  0.747882783
     0.416553274  0.768333330  0.890053868
     0.878091812  0.076025844  0.605711937
     0.839630306  0.883717954  0.747882783
     0.801168739  0.691410303  0.890053868
     0.262707070  0.999102786  0.605711937
     0.224245667  0.806795001  0.747882783
     0.185784042  0.614487112  0.890053868
     0.647322476  0.922179758  0.605711937
     0.608860999  0.729871899  0.747882783
     0.570399463  0.537564099  0.890053868
     0.570399433  0.537564367  0.605711937
     0.531937838  0.345256448  0.747882783
     0.493476421  0.152948767  0.890053868
     0.955014884  0.460641324  0.605711937
     0.916553379  0.268333435  0.747882783
     0.878091730  0.076025568  0.890053868
     0.339630306  0.383718192  0.605711937
     0.301168769  0.191410333  0.747882783
     0.262707144  0.999102622  0.890053868
     0.724245727  0.306795179  0.605711937
     0.685784012  0.114487320  0.747882783
     0.647322476  0.922179520  0.890053868
     0.031938076  0.845256806  0.605711937
     0.993476510  0.652948976  0.747882783
     0.955014944  0.460641026  0.890053868

  ion indices of the primitive-cell ions
   primitive index   ion index
                 1           1
                 2           2
                 3           3
                 4           4
                 5          65
                 6          66
                 7           7
                 8           8
                 9          69
                10          10
                11          11
                12          12
                13          73
                14          74
                15          15
                16          76
                17          77
                18          18
                19          19
                20          62
                21          21
                22          55
                23          56
                24          57
                25          58
                26          59
                27          60
                28          28
                29          29
                30          96
                31          31
                32          32
                33          33
                34          91
                35          35
                36          93
                37         103
                38         104
                39          39
                40          40
                41          41
                42          42
                43         100
                44         101
                45          45
                46          85
                47          86
                48          87
                49          49
                50          50
                51          90
                52          82
                53          83
                54          84
                55         109
                56         110
                57         111
                58         112
                59         113
                60         114
                61         217
                62         218
                63         117
                64         118
                65         119
                66         120
                67         121
                68         122
                69         123
                70         223
                71         224
                72         225
                73         190
                74         191
                75         192
                76         220
                77         221
                78         132
                79         133
                80         188
                81         135
                82         136
                83         200
                84         201
                85         139
                86         203
                87         204
                88         142
                89         143
                90         144
                91         145
                92         146
                93         147
                94         148
                95         149
                96         150
                97         151
                98         152
                99         153
               100         259
               101         260
               102         261
               103         247
               104         158
               105         159
               106         160
               107         161
               108         162
               109         253
               110         254
               111         165
               112         229
               113         230
               114         231
               115         232
               116         233
               117         234
               118         262
               119         263
               120         174
               121         175
               122         176
               123         228
               124         178
               125         179
               126         243
               127         181
               128         245
               129         246
               130         184
               131         185
               132         186

----------------------------------------------------------------------------------------

 
 
 KPOINTS: Automatic KPOINTS generated             

Automatic generation of k-mesh.
 Grid dimensions read from file:
 generate k-points for:    2    2    2

 Generating k-lattice:

  Cartesian coordinates                     Fractional coordinates (reciprocal lattice)
     0.025683700  0.000000000  0.000000000     0.500000000  0.000000000  0.000000000
     0.000000000  0.025683700  0.000000000     0.000000000  0.500000000  0.000000000
     0.000000000  0.000000000  0.026177665     0.000000000  0.000000000  0.500000000

  Length of vectors
     0.025683700  0.025683700  0.026177665

  Shift w.r.t. Gamma in fractional coordinates (k-lattice)
     0.000000000  0.000000000  0.000000000

 
 Subroutine IBZKPT returns following result:
 ===========================================
 
 Found      8 irreducible k-points:
 
 Following reciprocal coordinates:
            Coordinates               Weight
  0.000000  0.000000  0.000000      1.000000
  0.500000  0.000000  0.000000      1.000000
  0.000000  0.500000  0.000000      1.000000
  0.500000  0.500000  0.000000      1.000000
  0.000000  0.000000  0.500000      1.000000
  0.500000  0.000000  0.500000      1.000000
  0.000000  0.500000  0.500000      1.000000
  0.500000  0.500000  0.500000      1.000000
 
 Following cartesian coordinates:
            Coordinates               Weight
  0.000000  0.000000  0.000000      1.000000
  0.025684  0.000000  0.000000      1.000000
  0.000000  0.025684  0.000000      1.000000
  0.025684  0.025684  0.000000      1.000000
  0.000000  0.000000  0.026178      1.000000
  0.025684  0.000000  0.026178      1.000000
  0.000000  0.025684  0.026178      1.000000
  0.025684  0.025684  0.026178      1.000000
 
 -----------------------------------------------------------------------------
|                                                                             |
|           W    W    AA    RRRRR   N    N  II  N    N   GGGG   !!!           |
|           W    W   A  A   R    R  NN   N  II  NN   N  G    G  !!!           |
|           W    W  A    A  R    R  N N  N  II  N N  N  G       !!!           |
|           W WW W  AAAAAA  RRRRR   N  N N  II  N  N N  G  GGG   !            |
|           WW  WW  A    A  R   R   N   NN  II  N   NN  G    G                |
|           W    W  A    A  R    R  N    N  II  N    N   GGGG   !!!           |
|                                                                             |
|     The number of bands has been changed from the values supplied in        |
|     the INCAR file. This is a result of running the parallel version.       |
|     The orbitals not found in the WAVECAR file will be initialized with     |
|     random numbers, which is usually adequate. For correlated               |
|     calculations, however, you should redo the groundstate calculation.     |
|     I found NBANDS = 634. Now, NBANDS = 636.                                |
|                                                                             |
 -----------------------------------------------------------------------------



--------------------------------------------------------------------------------------------------------




 Dimension of arrays:
   k-points           NKPTS =      8   k-points in BZ     NKDIM =      8   number of bands    NBANDS=    636
   number of dos      NEDOS =    301   number of ions     NIONS =    264
   non local maximal  LDIM  =      5   non local SUM 2l+1 LMDIM =     13
   total plane-waves  NPLWV = ******
   max r-space proj   IRMAX =   4602   max aug-charges    IRDMAX= 212976
   dimension x,y,z NGX =   126 NGY =  126 NGZ =  126
   dimension x,y,z NGXF=   252 NGYF=  252 NGZF=  252
   support grid    NGXF=   504 NGYF=  504 NGZF=  504
   ions per type =             108 156
   NGX,Y,Z   is equivalent  to a cutoff of  10.76, 10.76, 10.97 a.u.
   NGXF,Y,Z  is equivalent  to a cutoff of  21.52, 21.52, 21.93 a.u.

 SYSTEM =  Si and Ge interface calculation         
 POSCAR =  Sn+Si                                   

 Startparameter for this run:
   NWRITE =      2    write-flag & timer
   PREC   = normal    normal or accurate (medium, high low for compatibility)
   ISTART =      0    job   : 0-new  1-cont  2-samecut
   ICHARG =      2    charge: 1-file 2-atom 10-const
   ISPIN  =      2    spin polarized calculation?
   LNONCOLLINEAR =      F non collinear calculations
   LSORBIT =      F    spin-orbit coupling
   INIWAV =      1    electr: 0-lowe 1-rand  2-diag
   LASPH  =      T    aspherical Exc in radial PAW
 Electronic Relaxation 1
   ENCUT  =  700.0 eV  51.45 Ry    7.17 a.u.  42.00 42.00 41.20*2*pi/ulx,y,z
   ENINI  =  700.0     initial cutoff
   ENAUG  =  900.0 eV  augmentation charge cutoff
   NELM   =    100;   NELMIN=  2; NELMDL= -5     # of ELM steps 
   EDIFF  = 0.1E-06   stopping-criterion for ELM
   LREAL  =      T    real-space projection
   NLSPLINE    = F    spline interpolate recip. space projectors
   LCOMPAT=      F    compatible to vasp.4.4
   GGA_COMPAT  = T    GGA compatible to vasp.4.4-vasp.4.6
   LMAXPAW     = -100 max onsite density
   LMAXMIX     =    6 max onsite mixed and CHGCAR
   VOSKOWN=      0    Vosko Wilk Nusair interpolation
   ROPT   =   -0.00050  -0.00050
 Ionic relaxation
   EDIFFG = 0.1E-05   stopping-criterion for IOM
   NSW    =      0    number of steps for IOM
   NBLOCK =      1;   KBLOCK =      1    inner block; outer block 
   IBRION =     -1    ionic relax: 0-MD 1-quasi-New 2-CG
   NFREE  =      0    steps in history (QN), initial steepest desc. (CG)
   ISIF   =      2    stress and relaxation
   IWAVPR =     10    prediction:  0-non 1-charg 2-wave 3-comb
   ISYM   =      2    0-nonsym 1-usesym 2-fastsym
   LCORR  =      T    Harris-Foulkes like correction to forces

   POTIM  = 0.5000    time-step for ionic-motion
   TEIN   =    0.0    initial temperature
   TEBEG  =    0.0;   TEEND  =   0.0 temperature during run
   SMASS  =  -3.00    Nose mass-parameter (am)
   estimated Nose-frequenzy (Omega)   =  0.10E-29 period in steps = 0.13E+47 mass=  -0.866E-26a.u.
   SCALEE = 1.0000    scale energy and forces
   NPACO  =    256;   APACO  = 10.0  distance and # of slots for P.C.
   PSTRESS=    0.0 pullay stress

  Mass of Ions in am
   POMASS = 118.71 28.09
  Ionic Valenz
   ZVAL   =   4.00  4.00
  Atomic Wigner-Seitz radii
   RWIGS  =  -1.00 -1.00
  virtual crystal weights 
   VCA    =   1.00  1.00
   NELECT =    1056.0000    total number of electrons
   NUPDOWN=       1.0000    fix difference up-down

 DOS related values:
   EMIN   =  10.00;   EMAX   =-10.00  energy-range for DOS
   EFERMI =   0.00;   METHOD = LEGACY      
   ISMEAR =     0;   SIGMA  =   0.01  broadening in eV -4-tet -1-fermi 0-gaus

 Electronic relaxation 2 (details)
   IALGO  =     38    algorithm
   LDIAG  =      T    sub-space diagonalisation (order eigenvalues)
   LSUBROT=      F    optimize rotation matrix (better conditioning)
   TURBO    =      0    0=normal 1=particle mesh
   IRESTART =      0    0=no restart 2=restart with 2 vectors
   NREBOOT  =      0    no. of reboots
   NMIN     =      0    reboot dimension
   EREF     =   0.00    reference energy to select bands
   IMIX   =      4    mixing-type and parameters
     AMIX     =   0.60;   BMIX     =  1.00
     AMIX_MAG =   2.40;   BMIX_MAG =  1.00
     AMIN     =   0.10
     WC   =   100.;   INIMIX=   1;  MIXPRE=   1;  MAXMIX= -45

 Intra band minimization:
   WEIMIN = 0.0000     energy-eigenvalue tresh-hold
   EBREAK =  0.39E-10  absolut break condition
   DEPER  =   0.30     relativ break condition  

   TIME   =   0.40     timestep for ELM

  volume/ion in A,a.u.               =      27.42       185.04
  Fermi-wavevector in a.u.,A,eV,Ry     =   0.861803  1.628572 10.105114  0.742705
  Thomas-Fermi vector in A             =   1.979511
 
 Write flags
   LWAVE        =      F    write WAVECAR
   LDOWNSAMPLE  =      F    k-point downsampling of WAVECAR
   LCHARG       =      T    write CHGCAR
   LVTOT        =      F    write LOCPOT, total local potential
   LVHAR        =      T    write LOCPOT, Hartree potential only
   WRT_POTENTIAL=  hartree ionic  ! write potential to hdf5 file
   LELF         =      F    write electronic localiz. function (ELF)
   LORBIT       =      0    0 simple, 1 ext, 2 COOP (PROOUT), +10 PAW based schemes


 Dipole corrections
   LMONO      =      F    monopole corrections only (constant potential shift)
   LDIPOL     =      F    correct potential (dipole corrections)
   IDIPOL     =      0    1-x, 2-y, 3-z, 4-all directions 
   EPSILON    =  1.0000000 bulk dielectric constant
   LVACPOTAV  =      F  vacuum potentials using an averaging scheme for the charge density
   VACPOTFLAT =  0.1000000 required flatness to determine vacuum potential
 Exchange correlation treatment:
   GGA     = PE    functional components
   XC_C    = 1    coefficients multiplying the functional components
   LIBXC   =     F    Libxc                    
   VOSKOWN =     0    Vosko Wilk Nusair interpolation
   LHFCALC =     F    Hartree Fock is set to
   LHFONE  =     F    Hartree Fock one center treatment
   AEXX    =    0.0000 exact exchange contribution

 Parameters of functionals:
   PE:
     No parameter
 
 Van der Waals corrections
   IVDW    =     0    specifies the selected vdW correction

 Linear response parameters
   LEPSILON=     F    determine dielectric tensor
   LRPA    =     F    only Hartree local field effects (RPA)
   LNABLA  =     F    use nabla operator in PAW spheres
   LVEL    =     F    velocity operator in full k-point grid
   CSHIFT  =0.1000    complex shift for real part using Kramers Kronig
   OMEGAMAX=  -1.0    maximum frequency
   DEG_THRESHOLD= 0.2000000E-02 threshold for treating states as degnerate
   RTIME   =   -0.100 relaxation time in fs
  (WPLASMAI=    0.000 imaginary part of plasma frequency in eV, 0.658/RTIME)
   DFIELD  = 0.0000000 0.0000000 0.0000000 field for delta impulse in time
 
  Optional k-point grid parameters
   LKPOINTS_OPT  =     F    use optional k-point grid
   KPOINTS_OPT_MODE=     1    mode for optional k-point grid
 
 Orbital magnetization related:
   ORBITALMAG=     F  switch on orbital magnetization
   LCHIMAG   =     F  perturbation theory with respect to B field
   DQ        =  0.001000  dq finite difference perturbation B field
   LLRAUG    =     F  two centre corrections for induced B field
   LBONE     =     F  B-component reconstruction in AE one-centre
   LVGVCALC  =     T  calculate vGv susceptibility
   LVGVAPPL  =     F  apply vGv susceptibility instead of pGv for G=0

 Random number generation:
   RANDOM_GENERATOR = DEFAULT
   PCG_SEED         = not used


--------------------------------------------------------------------------------------------------------


 Static calculation
 charge density and potential will be updated during run
 spin polarized calculation
 Variant of blocked Davidson
 Davidson routine will perform the subspace rotation
 perform sub-space diagonalisation
    after iterative eigenvector-optimisation
 modified Broyden-mixing scheme, WC =      100.0
 initial mixing is a Kerker type mixing with AMIX =  0.6000 and BMIX =      1.0000
 Hartree-type preconditioning will be used
 using additional bands          108
 real space projection scheme for non local part
 use partial core corrections
 calculate Harris-corrections to forces 
   (improved forces if not selfconsistent)
 use gradient corrections 
 use of overlap-Matrix (Vanderbilt PP)
 Gauss-broadening in eV      SIGMA  =   0.01


--------------------------------------------------------------------------------------------------------


  energy-cutoff  :      700.00
  volume of cell :     7238.76
      direct lattice vectors                 reciprocal lattice vectors
    19.467599869  0.000000000  0.000000000     0.051367401  0.000000000  0.000000000
     0.000000000 19.467599869  0.000000000     0.000000000  0.051367401  0.000000000
     0.000000000  0.000000000 19.100252151     0.000000000  0.000000000  0.052355330

  length of vectors
    19.467599869 19.467599869 19.100252151     0.051367401  0.051367401  0.052355330


 
 k-points in units of 2pi/SCALE and weight: Automatic KPOINTS generated             
   0.00000000  0.00000000  0.00000000       0.125
   0.02568370  0.00000000  0.00000000       0.125
   0.00000000  0.02568370  0.00000000       0.125
   0.02568370  0.02568370  0.00000000       0.125
   0.00000000  0.00000000  0.02617766       0.125
   0.02568370  0.00000000  0.02617766       0.125
   0.00000000  0.02568370  0.02617766       0.125
   0.02568370  0.02568370  0.02617766       0.125
 
 k-points in reciprocal lattice and weights: Automatic KPOINTS generated             
   0.00000000  0.00000000  0.00000000       0.125
   0.50000000  0.00000000  0.00000000       0.125
   0.00000000  0.50000000  0.00000000       0.125
   0.50000000  0.50000000  0.00000000       0.125
   0.00000000  0.00000000  0.50000000       0.125
   0.50000000  0.00000000  0.50000000       0.125
   0.00000000  0.50000000  0.50000000       0.125
   0.50000000  0.50000000  0.50000000       0.125
 
 position of ions in fractional coordinates (direct lattice) 
   0.99503511  0.66666669  0.00000000
   0.82836843  0.66666669  0.16987211
   0.66170174  0.66666669  0.33974418
   0.99503511  0.33333334  0.00000000
   0.82836843  0.33333334  0.16987211
   0.66170174  0.33333334  0.33974418
   0.99503511  0.00000000  0.00000000
   0.82836843  0.00000000  0.16987211
   0.66170174  0.00000000  0.33974418
   0.32836846  0.66666669  0.00000000
   0.16170174  0.66666669  0.16987211
   0.99503511  0.66666669  0.33974418
   0.32836846  0.33333334  0.00000000
   0.16170174  0.33333334  0.16987211
   0.99503511  0.33333334  0.33974418
   0.32836846  0.00000000  0.00000000
   0.16170174  0.00000000  0.16987211
   0.99503511  0.00000000  0.33974418
   0.66170180  0.66666669  0.00000000
   0.49503511  0.66666669  0.16987211
   0.32836846  0.66666669  0.33974418
   0.66170180  0.33333334  0.00000000
   0.49503511  0.33333334  0.16987211
   0.32836846  0.33333334  0.33974418
   0.66170180  0.00000000  0.00000000
   0.49503511  0.00000000  0.16987211
   0.32836846  0.00000000  0.33974418
   0.07836843  0.91666675  0.08493605
   0.91170180  0.91666675  0.25480810
   0.74503505  0.91666675  0.42468023
   0.07836843  0.58333343  0.08493605
   0.91170180  0.58333343  0.25480810
   0.74503505  0.58333343  0.42468023
   0.07836843  0.25000000  0.08493605
   0.91170180  0.25000000  0.25480810
   0.74503505  0.25000000  0.42468023
   0.41170177  0.91666675  0.08493605
   0.24503510  0.91666675  0.25480810
   0.07836838  0.91666675  0.42468023
   0.41170177  0.58333343  0.08493605
   0.24503510  0.58333343  0.25480810
   0.07836838  0.58333343  0.42468023
   0.41170177  0.25000000  0.08493605
   0.24503510  0.25000000  0.25480810
   0.07836838  0.25000000  0.42468023
   0.74503517  0.91666675  0.08493605
   0.57836855  0.91666675  0.25480810
   0.41170180  0.91666675  0.42468023
   0.74503517  0.58333343  0.08493605
   0.57836855  0.58333343  0.25480810
   0.41170180  0.58333343  0.42468023
   0.74503517  0.25000000  0.08493605
   0.57836855  0.25000000  0.25480810
   0.41170180  0.25000000  0.42468023
   0.16170177  0.83333331  0.00000000
   0.99503505  0.83333331  0.16987211
   0.82836843  0.83333331  0.33974418
   0.16170177  0.50000000  0.00000000
   0.99503505  0.50000000  0.16987211
   0.82836843  0.50000000  0.33974418
   0.16170177  0.16666667  0.00000000
   0.99503505  0.16666667  0.16987211
   0.82836843  0.16666667  0.33974418
   0.49503511  0.83333331  0.00000000
   0.32836843  0.83333331  0.16987211
   0.16170175  0.83333331  0.33974418
   0.49503511  0.50000000  0.00000000
   0.32836843  0.50000000  0.16987211
   0.16170175  0.50000000  0.33974418
   0.49503511  0.16666667  0.00000000
   0.32836843  0.16666667  0.16987211
   0.16170175  0.16666667  0.33974418
   0.82836855  0.83333331  0.00000000
   0.66170186  0.83333331  0.16987211
   0.49503520  0.83333331  0.33974418
   0.82836855  0.50000000  0.00000000
   0.66170186  0.50000000  0.16987211
   0.49503520  0.50000000  0.33974418
   0.82836855  0.16666667  0.00000000
   0.66170186  0.16666667  0.16987211
   0.49503520  0.16666667  0.33974418
   0.24503510  0.75000006  0.08493605
   0.07836843  0.75000006  0.25480810
   0.91170174  0.75000006  0.42468023
   0.24503510  0.41666672  0.08493605
   0.07836843  0.41666672  0.25480810
   0.91170174  0.41666672  0.42468023
   0.24503510  0.08333334  0.08493605
   0.07836843  0.08333334  0.25480810
   0.91170174  0.08333334  0.42468023
   0.57836848  0.75000006  0.08493605
   0.41170186  0.75000006  0.25480810
   0.24503513  0.75000006  0.42468023
   0.57836848  0.41666672  0.08493605
   0.41170186  0.41666672  0.25480810
   0.24503513  0.41666672  0.42468023
   0.57836848  0.08333334  0.08493605
   0.41170186  0.08333334  0.25480810
   0.24503513  0.08333334  0.42468023
   0.91170174  0.75000006  0.08493605
   0.74503505  0.75000006  0.25480810
   0.57836837  0.75000006  0.42468023
   0.91170174  0.41666672  0.08493605
   0.74503505  0.41666672  0.25480810
   0.57836837  0.41666672  0.42468023
   0.91170174  0.08333334  0.08493605
   0.74503505  0.08333334  0.25480810
   0.57836837  0.08333334  0.42468023
   0.07321262  0.07973623  0.53462648
   0.95782793  0.00281310  0.67679733
   0.84244329  0.92588997  0.81896830
   0.15013571  0.46435168  0.53462648
   0.03475106  0.38742852  0.67679733
   0.91936636  0.31050539  0.81896830
   0.30398187  0.23358241  0.53462648
   0.18859720  0.15665928  0.67679733
   0.07321250  0.07973611  0.81896830
   0.22705880  0.84896707  0.53462648
   0.11167411  0.77204394  0.67679733
   0.99628943  0.69512081  0.81896830
   0.38090500  0.61819780  0.53462648
   0.26552030  0.54127467  0.67679733
   0.15013565  0.46435153  0.81896830
   0.53475112  0.38742858  0.53462648
   0.41936645  0.31050542  0.67679733
   0.30398178  0.23358229  0.81896830
   0.68859726  0.15665934  0.53462648
   0.57321256  0.07973611  0.67679733
   0.45782795  0.00281298  0.81896830
   0.45782810  0.00281322  0.53462648
   0.34244344  0.92589015  0.67679733
   0.22705877  0.84896696  0.81896830
   0.61167419  0.77204394  0.53462648
   0.49628952  0.69512081  0.67679733
   0.38090485  0.61819768  0.81896830
   0.76552028  0.54127473  0.53462648
   0.65013564  0.46435159  0.67679733
   0.53475094  0.38742846  0.81896830
   0.91936648  0.31050542  0.53462648
   0.80398184  0.23358226  0.67679733
   0.68859714  0.15665913  0.81896830
   0.84244347  0.92589009  0.53462648
   0.72705883  0.84896696  0.67679733
   0.61167413  0.77204382  0.81896830
   0.99628961  0.69512087  0.53462648
   0.88090497  0.61819774  0.67679733
   0.76552028  0.54127461  0.81896830
   0.09244342  0.67589009  0.60571194
   0.97705877  0.59896696  0.74788278
   0.86167407  0.52204382  0.89005387
   0.24628955  0.44512090  0.60571194
   0.13090488  0.36819777  0.74788278
   0.01552022  0.29127461  0.89005387
   0.40013573  0.21435162  0.60571194
   0.28475103  0.13742849  0.74788278
   0.16936636  0.06050539  0.89005387
   0.16936648  0.06050551  0.60571194
   0.05398178  0.98358238  0.74788278
   0.93859708  0.90665925  0.89005387
   0.32321265  0.82973629  0.60571194
   0.20782799  0.75281316  0.74788278
   0.09244330  0.67589003  0.89005387
   0.47705886  0.59896707  0.60571194
   0.36167419  0.52204388  0.74788278
   0.24628952  0.44512078  0.89005387
   0.63090497  0.36819777  0.60571194
   0.51552028  0.29127461  0.74788278
   0.40013564  0.21435148  0.89005387
   0.78475112  0.13742852  0.60571194
   0.66936642  0.06050539  0.74788278
   0.55398178  0.98358226  0.89005387
   0.55398196  0.98358244  0.60571194
   0.43859729  0.90665930  0.74788278
   0.32321259  0.82973617  0.89005387
   0.70782810  0.75281322  0.60571194
   0.59244341  0.67589003  0.74788278
   0.47705874  0.59896690  0.89005387
   0.86167425  0.52204394  0.60571194
   0.74628955  0.44512078  0.74788278
   0.63090485  0.36819765  0.89005387
   0.01552045  0.29127473  0.60571194
   0.90013570  0.21435157  0.74788278
   0.78475100  0.13742843  0.89005387
   0.93859744  0.90665937  0.60571194
   0.82321274  0.82973623  0.74788278
   0.70782799  0.75281304  0.89005387
   0.11167417  0.27204397  0.53462648
   0.99628949  0.19512083  0.67679733
   0.88090479  0.11819769  0.81896830
   0.18859725  0.65665930  0.53462648
   0.07321262  0.57973623  0.67679733
   0.95782787  0.50281304  0.81896830
   0.34244344  0.42589015  0.53462648
   0.22705877  0.34896702  0.67679733
   0.11167408  0.27204388  0.81896830
   0.49628958  0.19512083  0.53462648
   0.38090491  0.11819769  0.67679733
   0.26552022  0.04127455  0.81896830
   0.26552033  0.04127467  0.53462648
   0.15013564  0.96435153  0.67679733
   0.03475094  0.88742846  0.81896830
   0.41936651  0.81050551  0.53462648
   0.30398181  0.73358238  0.67679733
   0.18859716  0.65665925  0.81896830
   0.57321268  0.57973623  0.53462648
   0.45782801  0.50281310  0.67679733
   0.34244332  0.42588997  0.81896830
   0.72705883  0.34896702  0.53462648
   0.61167419  0.27204388  0.67679733
   0.49628952  0.19512075  0.81896830
   0.88090497  0.11819780  0.53462648
   0.76552028  0.04127467  0.67679733
   0.65013564  0.96435153  0.81896830
   0.65013570  0.96435159  0.53462648
   0.53475100  0.88742852  0.67679733
   0.41936639  0.81050533  0.81896830
   0.80398190  0.73358238  0.53462648
   0.68859720  0.65665925  0.67679733
   0.57321250  0.57973605  0.81896830
   0.95782804  0.50281322  0.53462648
   0.84244341  0.42589009  0.67679733
   0.72705871  0.34896696  0.81896830
   0.03475118  0.88742852  0.53462648
   0.91936648  0.81050539  0.67679733
   0.80398184  0.73358226  0.81896830
   0.20782801  0.25281319  0.60571194
   0.09244335  0.17589006  0.74788278
   0.97705865  0.09896692  0.89005387
   0.13090493  0.86819786  0.60571194
   0.01552033  0.79127467  0.74788278
   0.90013558  0.71435153  0.89005387
   0.28475112  0.63742864  0.60571194
   0.16936645  0.56050545  0.74788278
   0.05398178  0.48358232  0.89005387
   0.43859729  0.40665937  0.60571194
   0.32321262  0.32973623  0.74788278
   0.20782793  0.25281307  0.89005387
   0.59244341  0.17589007  0.60571194
   0.47705880  0.09896695  0.74788278
   0.36167410  0.02204371  0.89005387
   0.36167425  0.02204406  0.60571194
   0.24628958  0.94512087  0.74788278
   0.13090488  0.86819774  0.89005387
   0.51552033  0.79127485  0.60571194
   0.40013567  0.71435165  0.74788278
   0.28475100  0.63742852  0.89005387
   0.66936654  0.56050551  0.60571194
   0.55398184  0.48358238  0.74788278
   0.43859720  0.40665925  0.89005387
   0.82321268  0.32973623  0.60571194
   0.70782799  0.25281310  0.74788278
   0.59244335  0.17588994  0.89005387
   0.97705883  0.09896702  0.60571194
   0.86167413  0.02204382  0.74788278
   0.74628949  0.94512075  0.89005387
   0.74628967  0.94512099  0.60571194
   0.63090497  0.86819786  0.74788278
   0.51552028  0.79127473  0.89005387
   0.90013581  0.71435165  0.60571194
   0.78475112  0.63742852  0.74788278
   0.66936636  0.56050533  0.89005387
   0.05398190  0.48358247  0.60571194
   0.93859714  0.40665930  0.74788278
   0.82321245  0.32973614  0.89005387
 
 position of ions in cartesian coordinates  (Angst):
  19.37094542 12.97840031  0.00000000
  16.12634504 12.97840031  3.24460004
  12.88174469 12.97840031  6.48919950
  19.37094542  6.48920014  0.00000000
  16.12634504  6.48920014  3.24460004
  12.88174469  6.48920014  6.48919950
  19.37094542  0.00000000  0.00000000
  16.12634504  0.00000000  3.24460004
  12.88174469  0.00000000  6.48919950
   6.39254569 12.97840031  0.00000000
   3.14794475 12.97840031  3.24460004
  19.37094542 12.97840031  6.48919950
   6.39254569  6.48920014  0.00000000
   3.14794475  6.48920014  3.24460004
  19.37094542  6.48920014  6.48919950
   6.39254569  0.00000000  0.00000000
   3.14794475  0.00000000  3.24460004
  19.37094542  0.00000000  6.48919950
  12.88174584 12.97840031  0.00000000
   9.63714548 12.97840031  3.24460004
   6.39254569 12.97840031  6.48919950
  12.88174584  6.48920014  0.00000000
   9.63714548  6.48920014  3.24460004
   6.39254569  6.48920014  6.48919950
  12.88174584  0.00000000  0.00000000
   9.63714548  0.00000000  3.24460004
   6.39254569  0.00000000  6.48919950
   1.52564530 17.84530142  1.62230003
  17.74864580 17.84530142  4.86689892
  14.50404428 17.84530142  8.11149953
   1.52564530 11.35610186  1.62230003
  17.74864580 11.35610186  4.86689892
  14.50404428 11.35610186  8.11149953
   1.52564530  4.86689997  1.62230003
  17.74864580  4.86689997  4.86689892
  14.50404428  4.86689997  8.11149953
   8.01484530 17.84530142  1.62230003
   4.77024522 17.84530142  4.86689892
   1.52564428 17.84530142  8.11149953
   8.01484530 11.35610186  1.62230003
   4.77024522 11.35610186  4.86689892
   1.52564428 11.35610186  8.11149953
   8.01484530  4.86689997  1.62230003
   4.77024522  4.86689997  4.86689892
   1.52564428  4.86689997  8.11149953
  14.50404662 17.84530142  1.62230003
  11.25944741 17.84530142  4.86689892
   8.01484587 17.84530142  8.11149953
  14.50404662 11.35610186  1.62230003
  11.25944741 11.35610186  4.86689892
   8.01484587 11.35610186  8.11149953
  14.50404662  4.86689997  1.62230003
  11.25944741  4.86689997  4.86689892
   8.01484587  4.86689997  8.11149953
   3.14794534 16.22299949  0.00000000
  19.37094425 16.22299949  3.24460004
  16.12634504 16.22299949  6.48919950
   3.14794534  9.73379993  0.00000000
  19.37094425  9.73379993  3.24460004
  16.12634504  9.73379993  6.48919950
   3.14794534  3.24460008  0.00000000
  19.37094425  3.24460008  3.24460004
  16.12634504  3.24460008  6.48919950
   9.63714548 16.22299949  0.00000000
   6.39254511 16.22299949  3.24460004
   3.14794504 16.22299949  6.48919950
   9.63714548  9.73379993  0.00000000
   6.39254511  9.73379993  3.24460004
   3.14794504  9.73379993  6.48919950
   9.63714548  3.24460008  0.00000000
   6.39254511  3.24460008  3.24460004
   3.14794504  3.24460008  6.48919950
  16.12634738 16.22299949  0.00000000
  12.88174700 16.22299949  3.24460004
   9.63714721 16.22299949  6.48919950
  16.12634738  9.73379993  0.00000000
  12.88174700  9.73379993  3.24460004
   9.63714721  9.73379993  6.48919950
  16.12634738  3.24460008  0.00000000
  12.88174700  3.24460008  3.24460004
   9.63714721  3.24460008  6.48919950
   4.77024522 14.60070107  1.62230003
   1.52564530 14.60070107  4.86689892
  17.74864465 14.60070107  8.11149953
   4.77024522  8.11150091  1.62230003
   1.52564530  8.11150091  4.86689892
  17.74864465  8.11150091  8.11149953
   4.77024522  1.62230018  1.62230003
   1.52564530  1.62230018  4.86689892
  17.74864465  1.62230018  8.11149953
  11.25944624 14.60070107  1.62230003
   8.01484704 14.60070107  4.86689892
   4.77024581 14.60070107  8.11149953
  11.25944624  8.11150091  1.62230003
   8.01484704  8.11150091  4.86689892
   4.77024581  8.11150091  8.11149953
  11.25944624  1.62230018  1.62230003
   8.01484704  1.62230018  4.86689892
   4.77024581  1.62230018  8.11149953
  17.74864465 14.60070107  1.62230003
  14.50404428 14.60070107  4.86689892
  11.25944393 14.60070107  8.11149953
  17.74864465  8.11150091  1.62230003
  14.50404428  8.11150091  4.86689892
  11.25944393  8.11150091  8.11149953
  17.74864465  1.62230018  1.62230003
  14.50404428  1.62230018  4.86689892
  11.25944393  1.62230018  8.11149953
   1.42527407  1.55227308 10.21150065
  18.64661081  0.05476432 12.92699966
  16.40034882 18.02485544 15.64250096
   2.92278195  9.03981278 10.21150065
   0.67651969  7.54230344 12.92699966
  17.89785643  6.04479469 15.64250096
   5.91779741  4.54728884 10.21150065
   3.67153486  3.04978008 12.92699966
   1.42527173  1.55227076 15.64250096
   4.42028983 16.52735132 10.21150065
   2.17402699 15.02984256 12.92699966
  19.39536402 13.53233381 15.64250096
   7.41530617 12.03482739 10.21150065
   5.16904304 10.53731864 12.92699966
   2.92278078  9.03980988 15.64250096
  10.41032078  7.54230461 10.21150065
   8.16405823  6.04479527 12.92699966
   5.91779568  4.54728652 15.64250096
  13.40533597  3.04978125 10.21150065
  11.15907284  1.55227076 12.92699966
   8.91281144  0.05476201 15.64250096
   8.91281434  0.05476664 10.21150065
   6.66655179 18.02485892 12.92699966
   4.42028924 16.52734900 15.64250096
  11.90782838 15.02984256 10.21150065
   9.66156581 13.53233381 12.92699966
   7.41530327 12.03482507 15.64250096
  14.90284241 10.53731978 10.21150065
  12.65658042  9.03981103 12.92699966
  10.41031729  7.54230230 15.64250096
  17.89785875  6.04479527 10.21150065
  15.65159678  4.54728594 12.92699966
  13.40533365  3.04977718 15.64250096
  16.40035231 18.02485776 10.21150065
  14.15409034 16.52734900 12.92699966
  11.90782721 15.02984025 15.64250096
  19.39536750 13.53233498 10.21150065
  17.14910554 12.03482622 12.92699966
  14.90284241 10.53731747 15.64250096
   1.79965153 13.15795779 11.56925073
  19.02098914 11.66044903 14.28474973
  16.77472601 10.16294028 17.00025331
   4.79466643  8.66543559 11.56925073
   2.54840388  7.16792684 14.28474973
   0.30214134  5.67041750 17.00025331
   7.78968221  4.17291165 11.56925073
   5.54341908  2.67540289 14.28474973
   3.29715653  1.17789472 17.00025331
   3.29715884  1.17789704 11.56925073
   1.05089571 19.14798815 14.28474973
  18.27223245 17.65047940 17.00025331
   6.29217460 16.15297413 11.56925073
   4.04591205 14.65546537 14.28474973
   1.79964921 13.15795662 17.00025331
   9.28719096 11.66045135 11.56925073
   7.04092841 10.16294145 14.28474973
   4.79466585  8.66543328 17.00025331
  12.28220557  7.16792684 11.56925073
  10.03594244  5.67041750 14.28474973
   7.78968045  4.17290875 17.00025331
  15.27722074  2.67540348 11.56925073
  13.03095761  1.17789472 14.28474973
  10.78469565 19.14798584 17.00025331
  10.78469913 19.14798932 11.56925073
   8.53843658 17.65048057 14.28474973
   6.29217345 16.15297181 17.00025331
  13.77971430 14.65546654 11.56925073
  11.53345119 13.15795662 14.28474973
   9.28718863 11.66044789 17.00025331
  16.77472950 10.16294260 11.56925073
  14.52846637  8.66543328 14.28474973
  12.28220323  7.16792452 17.00025331
   0.30214597  5.67041982 11.56925073
  17.52348156  4.17291050 14.28474973
  15.27721843  2.67540174 17.00025331
  18.27223942 17.65048174 11.56925073
  16.02597629 16.15297298 14.28474973
  13.77971199 14.65546306 17.00025331
   2.17402815  5.29604321 10.21150065
  19.39536518  3.79853417 12.92699966
  17.14910205  2.30102541 15.64250096
   3.67153574 12.78358060 10.21150065
   1.42527407 11.28607301 12.92699966
  18.64660964  9.78856309 15.64250096
   6.66655179  8.29105899 10.21150065
   4.42028924  6.79355023 12.92699966
   2.17402627  5.29604148 15.64250096
   9.66156698  3.79853417 10.21150065
   7.41530443  2.30102541 12.92699966
   5.16904130  0.80351639 15.64250096
   5.16904362  0.80351870 10.21150065
   2.92278049 18.77360982 12.92699966
   0.67651736 17.27610223 15.64250096
   8.16405940 15.77859694 10.21150065
   5.91779626 14.28108819 12.92699966
   3.67153401 12.78357943 15.64250096
  11.15907515 11.28607301 10.21150065
   8.91281260  9.78856426 12.92699966
   6.66654947  8.29105550 15.64250096
  14.15409034  6.79355023 10.21150065
  11.90782838  5.29604148 12.92699966
   9.66156581  3.79853273 15.64250096
  17.14910554  2.30102746 10.21150065
  14.90284241  0.80351870 12.92699966
  12.65658042 18.77360982 15.64250096
  12.65658159 18.77361097 10.21150065
  10.41031846 17.27610338 12.92699966
   8.16405708 15.77859348 15.64250096
  15.65159793 14.28108819 10.21150065
  13.40533480 12.78357943 12.92699966
  11.15907167 11.28606953 15.64250096
  18.64661312  9.78856658 10.21150065
  16.40035116  8.29105782 12.92699966
  14.15408803  6.79354907 15.64250096
   0.67652201 17.27610338 10.21150065
  17.89785875 15.77859462 12.92699966
  15.65159678 14.28108587 15.64250096
   4.04591264  4.92166602 11.56925073
   1.79965023  3.42415727 14.28474973
  19.02098683  1.92664838 17.00025331
   2.54840476 16.90172851 11.56925073
   0.30214365 15.40421860 14.28474973
  17.52347924 13.90670985 17.00025331
   5.54342081 12.40920573 11.56925073
   3.29715826 10.91169582 14.28474973
   1.05089571  9.41418707 17.00025331
   8.53843658  7.91668180 11.56925073
   6.29217404  6.41917305 14.28474973
   4.04591090  4.92166371 17.00025331
  11.53345119  3.42415756 11.56925073
   9.28718979  1.92664896 14.28474973
   7.04092666  0.42913803 17.00025331
   7.04092956  0.42914500 11.56925073
   4.79466701 18.39923494 14.28474973
   2.54840388 16.90172619 17.00025331
  10.03594359 15.40422209 11.56925073
   7.78968104 13.90671217 14.28474973
   5.54341849 12.40920341 17.00025331
  13.03095995 10.91169697 11.56925073
  10.78469682  9.41418822 14.28474973
   8.53843483  7.91667946 17.00025331
  16.02597512  6.41917305 11.56925073
  13.77971199  4.92166429 14.28474973
  11.53345002  3.42415495 17.00025331
  19.02099031  1.92665027 11.56925073
  16.77472718  0.42914035 14.28474973
  14.52846522 18.39923263 17.00025331
  14.52846868 18.39923726 11.56925073
  12.28220557 16.90172851 14.28474973
  10.03594244 15.40421975 17.00025331
  17.52348387 13.90671217 11.56925073
  15.27722074 12.40920341 14.28474973
  13.03095646 10.91169351 17.00025331
   1.05089803  9.41418997 11.56925073
  18.27223362  7.91668063 14.28474973
  16.02597049  6.41917129 17.00025331
 


--------------------------------------------------------------------------------------------------------


 k-point     1 :   0.0000 0.0000 0.0000  plane waves:  304523
 k-point     2 :   0.5000 0.0000 0.0000  plane waves:  304392
 k-point     3 :   0.0000 0.5000 0.0000  plane waves:  304392
 k-point     4 :   0.5000 0.5000 0.0000  plane waves:  304440
 k-point     5 :   0.0000 0.0000 0.5000  plane waves:  304362
 k-point     6 :   0.5000 0.0000 0.5000  plane waves:  304344
 k-point     7 :   0.0000 0.5000 0.5000  plane waves:  304344
 k-point     8 :   0.5000 0.5000 0.5000  plane waves:  304472

 maximum and minimum number of plane-waves per node :     19119    18944

 maximum number of plane-waves:    304523
 maximum index in each direction: 
   IXMAX=   41   IYMAX=   41   IZMAX=   41
   IXMIN=  -42   IYMIN=  -42   IZMIN=  -41


 real space projection operators:
  total allocation   :      62052.61 KBytes
  max/ min on nodes  :       4042.78       3423.34


 parallel 3D FFT for wavefunctions:
    minimum data exchange during FFTs selected (reduces bandwidth)
 parallel 3D FFT for charge:
    minimum data exchange during FFTs selected (reduces bandwidth)


 total amount of memory used by VASP MPI-rank0   909738. kBytes
=======================================================================

   base      :      30000. kBytes
   nonlr-proj:      25439. kBytes
   fftplans  :      40888. kBytes
   grid      :      30643. kBytes
   one-center:        275. kBytes
   wavefun   :     782493. kBytes
 
     INWAV:  cpu time      0.0001: real time      0.0002
 Broyden mixing: mesh for mixing (old mesh)
   NGX = 83   NGY = 83   NGZ = 83
  (NGX  =252   NGY  =252   NGZ  =252)
  gives a total of 571787 points

 initial charge density was supplied:
 charge density of overlapping atoms calculated
 number of electron    1056.0000000 magnetization       1.0000000
 keeping initial charge density in first step


--------------------------------------------------------------------------------------------------------


 Maximum index for non-local projection operator          331
 Maximum index for augmentation-charges         4234 (set IRDMAX)


--------------------------------------------------------------------------------------------------------


 First call to EWALD:  gamma=   0.092
 Maximum number of real-space cells 3x 3x 3
 Maximum number of reciprocal cells 3x 3x 3

[...]
     11.25945      4.86690      4.86690        -0.080682      0.116496     -0.095812
      8.01485      4.86690      8.11150        -0.122516     -0.007051      1.278722
      3.14795     16.22300      0.00000         0.563627     -0.794051      2.415974
     19.37094     16.22300      3.24460        -0.111096      0.066871      0.114174
     16.12635     16.22300      6.48920        -0.022355      0.038291     -0.210106
      3.14795      9.73380      0.00000        -0.122516     -0.007051     -1.278722
     19.37094      9.73380      3.24460         0.100318     -0.048643      0.067413
     16.12635      9.73380      6.48920        -0.109320      0.186686      0.028184
      3.14795      3.24460      0.00000         0.496596     -0.283372     -1.706980
     19.37094      3.24460      3.24460         0.015394      0.038098     -0.029862
     16.12635      3.24460      6.48920         0.138194     -0.217932     -0.001533
      9.63715     16.22300      0.00000        -0.242841      1.110196      2.320163
      6.39255     16.22300      3.24460        -0.004160      0.006585     -0.023846
      3.14795     16.22300      6.48920        -0.093688     -0.247888      0.059627
      9.63715      9.73380      0.00000        -0.658029      0.155723     -1.734218
      6.39255      9.73380      3.24460        -0.080682      0.116496      0.095812
      3.14795      9.73380      6.48920         0.123133      0.190848     -0.277882
      9.63715      3.24460      0.00000         0.103355     -0.119642     -1.181029
      6.39255      3.24460      3.24460         0.091112     -0.121094      0.061806
      3.14795      3.24460      6.48920        -0.061839      0.116058      0.258177
     16.12635     16.22300      0.00000         0.134983     -0.063912     -1.737327
     12.88175     16.22300      3.24460         0.128235     -0.082472      0.101673
      9.63715     16.22300      6.48920         0.106171      0.161816      0.120359
     16.12635      9.73380      0.00000        -1.000777     -1.156722      3.263993
     12.88175      9.73380      3.24460        -0.051212     -0.014125     -0.024929
      9.63715      9.73380      6.48920         0.024783     -0.147545      0.225686
     16.12635      3.24460      0.00000         0.679301      1.082476      1.527403
     12.88175      3.24460      3.24460        -0.078910      0.042268      0.078375
      9.63715      3.24460      6.48920        -0.102571     -0.071235     -0.301296
      4.77025     14.60070      1.62230         0.024783     -0.147545     -0.225686
      1.52565     14.60070      4.86690        -0.080682      0.116496     -0.095812
     17.74864     14.60070      8.11150        -0.122516     -0.007051      1.278722
      4.77025      8.11150      1.62230        -0.102571     -0.071235      0.301296
      1.52565      8.11150      4.86690         0.091112     -0.121094     -0.061806
     17.74864      8.11150      8.11150         0.496596     -0.283372      1.706980
      4.77025      1.62230      1.62230         0.106171      0.161816     -0.120359
      1.52565      1.62230      4.86690        -0.004160      0.006585      0.023846
     17.74864      1.62230      8.11150         0.563627     -0.794051     -2.415974
     11.25945     14.60070      1.62230        -0.109320      0.186686     -0.028184
      8.01485     14.60070      4.86690        -0.051212     -0.014125      0.024929
      4.77025     14.60070      8.11150        -0.658029      0.155723      1.734218
     11.25945      8.11150      1.62230         0.138194     -0.217932      0.001533
      8.01485      8.11150      4.86690        -0.078910      0.042268     -0.078375
      4.77025      8.11150      8.11150         0.103355     -0.119642      1.181029
     11.25945      1.62230      1.62230        -0.022355      0.038291      0.210106
      8.01485      1.62230      4.86690         0.128235     -0.082472     -0.101673
      4.77025      1.62230      8.11150        -0.242841      1.110196     -2.320163
     17.74864     14.60070      1.62230         0.123133      0.190848      0.277882
     14.50404     14.60070      4.86690         0.100318     -0.048643     -0.067413
     11.25944     14.60070      8.11150        -1.000777     -1.156722     -3.263993
     17.74864      8.11150      1.62230        -0.061839      0.116058     -0.258177
     14.50404      8.11150      4.86690         0.015394      0.038098      0.029862
     11.25944      8.11150      8.11150         0.679301      1.082476     -1.527403
     17.74864      1.62230      1.62230        -0.093688     -0.247888     -0.059627
     14.50404      1.62230      4.86690        -0.111096      0.066871     -0.114174
     11.25944      1.62230      8.11150         0.134983     -0.063912      1.737327
      1.42527      1.55227     10.21150        -0.010972     -0.030680     -0.875764
     18.64661      0.05476     12.92700        -0.059956      0.062349      0.096592
     16.40035     18.02486     15.64250         0.163493      0.563393      0.189961
      2.92278      9.03981     10.21150         0.395434      0.024783     -0.458606
      0.67652      7.54230     12.92700         0.031014     -0.008874      0.124297
     17.89786      6.04479     15.64250        -0.040193      0.154127      0.121793
      5.91780      4.54729     10.21150         0.891046      0.063650     -0.735005
      3.67153      3.04978     12.92700         0.046147     -0.046474      0.093272
      1.42527      1.55227     15.64250        -0.000017      0.044881      0.149806
      4.42029     16.52735     10.21150         0.740210      0.032233     -0.586277
      2.17403     15.02984     12.92700        -0.033821      0.004028      0.120573
     19.39536     13.53233     15.64250         0.052926      0.240054     -0.104960
      7.41531     12.03483     10.21150        -0.118357      1.016332      3.110045
      5.16904     10.53732     12.92700         0.097026     -0.101214      0.071158
      2.92278      9.03981     15.64250        -0.050395     -0.261263     -0.085685
     10.41032      7.54230     10.21150        -0.597867     -0.862881      2.221232
      8.16406      6.04480     12.92700         0.086885     -0.081761      0.048457
      5.91780      4.54729     15.64250        -0.122332     -0.520513      0.224834
     13.40534      3.04978     10.21150        -0.325115      0.091923     -1.192521
     11.15907      1.55227     12.92700        -0.013035      0.000102     -0.049378
      8.91281      0.05476     15.64250        -0.003530     -0.232974      0.501393
      8.91281      0.05477     10.21150         0.308538      0.010708     -0.948879
      6.66655     18.02486     12.92700        -0.068023     -0.035073      0.056499
      4.42029     16.52735     15.64250         0.022745     -0.149415      0.089415
     11.90783     15.02984     10.21150         0.923551      1.004522      3.933118
      9.66157     13.53233     12.92700        -0.063027     -0.032332     -0.023406
      7.41530     12.03483     15.64250        -0.136054     -0.411739      0.313766
     14.90284     10.53732     10.21150        -0.116022     -1.288644      3.073005
     12.65658      9.03981     12.92700         0.101144      0.022902     -0.026496
     10.41032      7.54230     15.64250        -0.168025     -0.116561      0.480400
     17.89786      6.04480     10.21150        -0.676468      0.063054     -0.713420
     15.65160      4.54729     12.92700         0.048391      0.035314      0.044628
     13.40533      3.04978     15.64250         0.023115      0.244492      0.541238
     16.40035     18.02486     10.21150        -0.889395     -0.026816     -0.527520
     14.15409     16.52735     12.92700        -0.117922      0.086267      0.044856
     11.90783     15.02984     15.64250         0.160520      0.075275      0.490614
     19.39537     13.53233     10.21150        -0.457701     -0.045279     -0.363747
     17.14911     12.03483     12.92700        -0.066846      0.094242      0.071971
     14.90284     10.53732     15.64250         0.077680      0.381136      0.336745
      1.79965     13.15796     11.56925         0.163493      0.563393     -0.189961
     19.02099     11.66045     14.28475        -0.117922      0.086267     -0.044856
     16.77473     10.16294     17.00025         0.923551      1.004522     -3.933118
      4.79467      8.66544     11.56925         0.052926      0.240054      0.104960
      2.54840      7.16793     14.28475        -0.066846      0.094242     -0.071971
      0.30214      5.67042     17.00025        -0.116022     -1.288644     -3.073005
      7.78968      4.17291     11.56925        -0.050395     -0.261263      0.085685
      5.54342      2.67540     14.28475         0.031014     -0.008874     -0.124297
      3.29716      1.17789     17.00025        -0.676468      0.063054      0.713420
      3.29716      1.17790     11.56925        -0.040193      0.154127     -0.121793
      1.05090     19.14799     14.28475         0.048391      0.035314     -0.044628
     18.27223     17.65048     17.00025        -0.325115      0.091923      1.192521
      6.29217     16.15297     11.56925        -0.000017      0.044881     -0.149806
      4.04591     14.65547     14.28475        -0.059956      0.062349     -0.096592
      1.79965     13.15796     17.00025        -0.889395     -0.026816      0.527520
      9.28719     11.66045     11.56925         0.022745     -0.149415     -0.089415
      7.04093     10.16294     14.28475        -0.033821      0.004028     -0.120573
      4.79467      8.66543     17.00025        -0.457701     -0.045279      0.363747
     12.28221      7.16793     11.56925        -0.136054     -0.411739     -0.313766
     10.03594      5.67042     14.28475         0.097026     -0.101214     -0.071158
      7.78968      4.17291     17.00025         0.395434      0.024783      0.458606
     15.27722      2.67540     11.56925        -0.168025     -0.116561     -0.480400
     13.03096      1.17789     14.28475         0.086885     -0.081761     -0.048457
     10.78470     19.14799     17.00025         0.891046      0.063650      0.735005
     10.78470     19.14799     11.56925        -0.122332     -0.520513     -0.224834
      8.53844     17.65048     14.28475         0.046147     -0.046474     -0.093272
      6.29217     16.15297     17.00025        -0.010972     -0.030680      0.875764
     13.77971     14.65547     11.56925        -0.003530     -0.232974     -0.501393
     11.53345     13.15796     14.28475        -0.068023     -0.035073     -0.056499
      9.28719     11.66045     17.00025         0.740210      0.032233      0.586277
     16.77473     10.16294     11.56925         0.160520      0.075275     -0.490614
     14.52847      8.66543     14.28475        -0.063027     -0.032332      0.023406
     12.28220      7.16792     17.00025        -0.118357      1.016332     -3.110045
      0.30215      5.67042     11.56925         0.077680      0.381136     -0.336745
     17.52348      4.17291     14.28475         0.101144      0.022902      0.026496
     15.27722      2.67540     17.00025        -0.597867     -0.862881     -2.221232
     18.27224     17.65048     11.56925         0.023115      0.244492     -0.541238
     16.02598     16.15297     14.28475        -0.013035      0.000102      0.049378
     13.77971     14.65546     17.00025         0.308538      0.010708      0.948879
      2.17403      5.29604     10.21150         0.923551      1.004522      3.933118
     19.39537      3.79853     12.92700        -0.063027     -0.032332     -0.023406
     17.14910      2.30103     15.64250        -0.136054     -0.411739      0.313766
      3.67154     12.78358     10.21150        -0.325115      0.091923     -1.192521
      1.42527     11.28607     12.92700        -0.013035      0.000102     -0.049378
     18.64661      9.78856     15.64250        -0.003530     -0.232974      0.501393
      6.66655      8.29106     10.21150        -0.889395     -0.026816     -0.527520
      4.42029      6.79355     12.92700        -0.117922      0.086267      0.044856
      2.17403      5.29604     15.64250         0.160520      0.075275      0.490614
      9.66157      3.79853     10.21150        -0.457701     -0.045279     -0.363747
      7.41530      2.30103     12.92700        -0.066846      0.094242      0.071971
      5.16904      0.80352     15.64250         0.077680      0.381136      0.336745
      5.16904      0.80352     10.21150        -0.116022     -1.288644      3.073005
      2.92278     18.77361     12.92700         0.101144      0.022902     -0.026496
      0.67652     17.27610     15.64250        -0.168025     -0.116561      0.480400
      8.16406     15.77860     10.21150        -0.676468      0.063054     -0.713420
      5.91780     14.28109     12.92700         0.048391      0.035314      0.044628
      3.67153     12.78358     15.64250         0.023115      0.244492      0.541238
     11.15908     11.28607     10.21150        -0.010972     -0.030680     -0.875764
      8.91281      9.78856     12.92700        -0.059956      0.062349      0.096592
      6.66655      8.29106     15.64250         0.163493      0.563393      0.189961
     14.15409      6.79355     10.21150         0.740210      0.032233     -0.586277
     11.90783      5.29604     12.92700        -0.033821      0.004028      0.120573
      9.66157      3.79853     15.64250         0.052926      0.240054     -0.104960
     17.14911      2.30103     10.21150        -0.118357      1.016332      3.110045
     14.90284      0.80352     12.92700         0.097026     -0.101214      0.071158
     12.65658     18.77361     15.64250        -0.050395     -0.261263     -0.085685
     12.65658     18.77361     10.21150         0.395434      0.024783     -0.458606
     10.41032     17.27610     12.92700         0.031014     -0.008874      0.124297
      8.16406     15.77859     15.64250        -0.040193      0.154127      0.121793
     15.65160     14.28109     10.21150         0.891046      0.063650     -0.735005
     13.40533     12.78358     12.92700         0.046147     -0.046474      0.093272
     11.15907     11.28607     15.64250        -0.000017      0.044881      0.149806
     18.64661      9.78857     10.21150         0.308538      0.010708     -0.948879
     16.40035      8.29106     12.92700        -0.068023     -0.035073      0.056499
     14.15409      6.79355     15.64250         0.022745     -0.149415      0.089415
      0.67652     17.27610     10.21150        -0.597867     -0.862881      2.221232
     17.89786     15.77859     12.92700         0.086885     -0.081761      0.048457
     15.65160     14.28109     15.64250        -0.122332     -0.520513      0.224834
      4.04591      4.92167     11.56925        -0.003530     -0.232974     -0.501393
      1.79965      3.42416     14.28475        -0.068023     -0.035073     -0.056499
     19.02099      1.92665     17.00025         0.740210      0.032233      0.586277
      2.54840     16.90173     11.56925        -0.136054     -0.411739     -0.313766
      0.30214     15.40422     14.28475         0.097026     -0.101214     -0.071158
     17.52348     13.90671     17.00025         0.395434      0.024783      0.458606
      5.54342     12.40921     11.56925        -0.168025     -0.116561     -0.480400
      3.29716     10.91170     14.28475         0.086885     -0.081761     -0.048457
      1.05090      9.41419     17.00025         0.891046      0.063650      0.735005
      8.53844      7.91668     11.56925         0.023115      0.244492     -0.541238
      6.29217      6.41917     14.28475        -0.013035      0.000102      0.049378
      4.04591      4.92166     17.00025         0.308538      0.010708      0.948879
     11.53345      3.42416     11.56925         0.163493      0.563393     -0.189961
      9.28719      1.92665     14.28475        -0.117922      0.086267     -0.044856
      7.04093      0.42914     17.00025         0.923551      1.004522     -3.933118
      7.04093      0.42914     11.56925         0.160520      0.075275     -0.490614
      4.79467     18.39923     14.28475        -0.063027     -0.032332      0.023406
      2.54840     16.90173     17.00025        -0.118357      1.016332     -3.110045
     10.03594     15.40422     11.56925         0.077680      0.381136     -0.336745
      7.78968     13.90671     14.28475         0.101144      0.022902      0.026496
      5.54342     12.40920     17.00025        -0.597867     -0.862881     -2.221232
     13.03096     10.91170     11.56925        -0.040193      0.154127     -0.121793
     10.78470      9.41419     14.28475         0.048391      0.035314     -0.044628
      8.53843      7.91668     17.00025        -0.325115      0.091923      1.192521
     16.02598      6.41917     11.56925        -0.000017      0.044881     -0.149806
     13.77971      4.92166     14.28475        -0.059956      0.062349     -0.096592
     11.53345      3.42415     17.00025        -0.889395     -0.026816      0.527520
     19.02099      1.92665     11.56925         0.022745     -0.149415     -0.089415
     16.77473      0.42914     14.28475        -0.033821      0.004028     -0.120573
     14.52847     18.39923     17.00025        -0.457701     -0.045279      0.363747
     14.52847     18.39924     11.56925         0.052926      0.240054      0.104960
     12.28221     16.90173     14.28475        -0.066846      0.094242     -0.071971
     10.03594     15.40422     17.00025        -0.116022     -1.288644     -3.073005
     17.52348     13.90671     11.56925        -0.050395     -0.261263      0.085685
     15.27722     12.40920     14.28475         0.031014     -0.008874     -0.124297
     13.03096     10.91169     17.00025        -0.676468      0.063054      0.713420
      1.05090      9.41419     11.56925        -0.122332     -0.520513     -0.224834
     18.27223      7.91668     14.28475         0.046147     -0.046474     -0.093272
     16.02597      6.41917     17.00025        -0.010972     -0.030680      0.875764
 -----------------------------------------------------------------------------------
    total drift:                                0.287529     -0.053664      0.002785


--------------------------------------------------------------------------------------------------------



  FREE ENERGIE OF THE ION-ELECTRON SYSTEM (eV)
  ---------------------------------------------------
  free  energy   TOTEN  =     -1172.09284994 eV

  energy  without entropy=    -1172.08460375  energy(sigma->0) =    -1172.08872684
 


--------------------------------------------------------------------------------------------------------


    POTLOK:  cpu time      3.0182: real time      3.0370


--------------------------------------------------------------------------------------------------------


     LOOP+:  cpu time   5513.3230: real time   5571.2407
    4ORBIT:  cpu time      0.0000: real time      0.0000

 total amount of memory used by VASP MPI-rank0   909738. kBytes
=======================================================================

   base      :      30000. kBytes
   nonlr-proj:      25439. kBytes
   fftplans  :      40888. kBytes
   grid      :      30643. kBytes
   one-center:        275. kBytes
   wavefun   :     782493. kBytes
 
  
  
 General timing and accounting informations for this job:
 ========================================================
  
                  Total CPU time used (sec):     5849.960
                            User time (sec):     5624.733
                          System time (sec):      225.227
                         Elapsed time (sec):     5917.028
  
                   Maximum memory used (kb):     1230436.
                   Average memory used (kb):          N/A
  
                          Minor page faults:      1000248
                          Major page faults:          946
                 Voluntary context switches:         3949
