 120 120   0   0
  0.2190039E+02  0.7680595E-09  0.1629300E-08  0.2100086E-08  0.5000000E-15
  1.000000000000000E-004
  CAR 
 Si and Ge interface calculation         
      7.78615827     -8.57216014  301      4.75476654      1.00000000
     -8.572  0.0000E+00  0.0000E+00  0.0000E+00  0.0000E+00
     -8.518  0.0000E+00  0.0000E+00  0.0000E+00  0.0000E+00
     -8.463  0.0000E+00  0.0000E+00  0.0000E+00  0.0000E+00
     -8.409  0.0000E+00  0.0000E+00  0.0000E+00  0.0000E+00
     -8.354  0.0000E+00  0.0000E+00  0.0000E+00  0.0000E+00
     -8.300  0.0000E+00  0.0000E+00  0.0000E+00  0.0000E+00
     -8.245  0.0000E+00  0.0000E+00  0.0000E+00  0.0000E+00
     -8.190  0.0000E+00  0.0000E+00  0.0000E+00  0.0000E+00
     -8.136  0.0000E+00  0.0000E+00  0.0000E+00  0.0000E+00
     -8.081  0.0000E+00  0.0000E+00  0.0000E+00  0.0000E+00
     -8.027  0.0000E+00  0.0000E+00  0.0000E+00  0.0000E+00
     -7.972  0.0000E+00  0.0000E+00  0.0000E+00  0.0000E+00
     -7.918  0.0000E+00  0.0000E+00  0.0000E+00  0.0000E+00
     -7.863  0.2117E-05  0.1282E-07  0.1155E-06  0.6990E-09
     -7.809  0.4573E+01  0.4448E+01  0.2494E+00  0.2425E+00
     -7.754  0.1157E-01  0.1369E+00  0.2500E+00  0.2500E+00
     -7.700  0.1025E+02  0.9078E+01  0.8090E+00  0.7450E+00
     -7.645  0.8088E+01  0.9261E+01  0.1250E+01  0.1250E+01
     -7.591  0.6920E+01  0.4926E+01  0.1627E+01  0.1519E+01
     -7.536  0.1600E+02  0.1800E+02  0.2500E+01  0.2500E+01
     -7.482  0.1240E+02  0.1103E+02  0.3176E+01  0.3101E+01
     -7.427  0.1053E+02  0.1189E+02  0.3750E+01  0.3750E+01
     -7.373  0.2843E+01  0.1564E+01  0.3905E+01  0.3835E+01
     -7.318  0.2973E+02  0.2513E+02  0.5526E+01  0.5205E+01
     -7.263  0.1159E+02  0.1586E+02  0.6159E+01  0.6070E+01
     -7.209  0.7576E+01  0.7642E+01  0.6572E+01  0.6487E+01
     -7.154  0.3184E+02  0.2968E+02  0.8308E+01  0.8105E+01
     -7.100  0.2186E+02  0.2558E+02  0.9500E+01  0.9500E+01
     -7.045  0.1970E+02  0.1038E+02  0.1057E+02  0.1007E+02
     -6.991  0.3530E+02  0.4456E+02  0.1250E+02  0.1250E+02
     -6.936  0.4779E+01  0.4668E+01  0.1276E+02  0.1275E+02
     -6.882  0.2266E+02  0.2137E+02  0.1400E+02  0.1392E+02
     -6.827  0.1001E+02  0.1096E+02  0.1454E+02  0.1451E+02
     -6.773  0.3417E+02  0.3218E+02  0.1640E+02  0.1627E+02
     -6.718  0.6318E+01  0.7042E+01  0.1675E+02  0.1665E+02
     -6.664  0.2721E+02  0.2667E+02  0.1823E+02  0.1811E+02
     -6.609  0.2302E+02  0.2338E+02  0.1949E+02  0.1938E+02
     -6.555  0.3679E+02  0.3460E+02  0.2149E+02  0.2127E+02
     -6.500  0.4363E+02  0.4192E+02  0.2387E+02  0.2355E+02
     -6.446  0.2532E+02  0.2928E+02  0.2525E+02  0.2515E+02
     -6.391  0.3392E+02  0.3349E+02  0.2710E+02  0.2698E+02
     -6.337  0.3615E+02  0.3611E+02  0.2907E+02  0.2895E+02
     -6.282  0.5714E+02  0.5315E+02  0.3219E+02  0.3184E+02
     -6.227  0.1122E+02  0.1460E+02  0.3280E+02  0.3264E+02
     -6.173  0.3788E+02  0.3890E+02  0.3487E+02  0.3476E+02
     -6.118  0.3831E+02  0.3884E+02  0.3696E+02  0.3688E+02
     -6.064  0.2450E+02  0.2451E+02  0.3829E+02  0.3822E+02
     -6.009  0.3416E+02  0.2966E+02  0.4015E+02  0.3983E+02
     -5.955  0.3092E+02  0.3300E+02  0.4184E+02  0.4163E+02
     -5.900  0.3910E+02  0.4000E+02  0.4397E+02  0.4381E+02
     -5.846  0.2944E+02  0.2566E+02  0.4558E+02  0.4521E+02
     -5.791  0.4775E+02  0.5023E+02  0.4818E+02  0.4795E+02
     -5.737  0.4011E+02  0.4094E+02  0.5037E+02  0.5018E+02
     -5.682  0.2744E+02  0.2553E+02  0.5186E+02  0.5158E+02
     -5.628  0.5622E+02  0.5940E+02  0.5493E+02  0.5482E+02
     -5.573  0.2746E+02  0.2795E+02  0.5643E+02  0.5634E+02
     -5.519  0.5989E+02  0.5647E+02  0.5969E+02  0.5942E+02
     -5.464  0.2861E+02  0.3357E+02  0.6125E+02  0.6125E+02
     -5.410  0.3179E+02  0.2955E+02  0.6299E+02  0.6286E+02
     -5.355  0.3886E+02  0.3857E+02  0.6511E+02  0.6496E+02
     -5.300  0.4270E+02  0.4237E+02  0.6743E+02  0.6727E+02
     -5.246  0.5162E+02  0.4884E+02  0.7025E+02  0.6994E+02
     -5.191  0.5258E+02  0.5345E+02  0.7312E+02  0.7285E+02
     -5.137  0.4784E+02  0.4892E+02  0.7572E+02  0.7552E+02
     -5.082  0.2813E+02  0.2633E+02  0.7726E+02  0.7696E+02
     -5.028  0.4234E+02  0.4654E+02  0.7957E+02  0.7949E+02
     -4.973  0.3129E+02  0.2882E+02  0.8127E+02  0.8107E+02
     -4.919  0.3753E+02  0.3713E+02  0.8332E+02  0.8309E+02
     -4.864  0.4110E+02  0.4421E+02  0.8556E+02  0.8550E+02
     -4.810  0.2794E+02  0.2616E+02  0.8708E+02  0.8693E+02
     -4.755  0.4716E+02  0.4339E+02  0.8966E+02  0.8929E+02
     -4.701  0.3497E+02  0.3524E+02  0.9156E+02  0.9121E+02
     -4.646  0.4273E+02  0.4335E+02  0.9389E+02  0.9358E+02
     -4.592  0.2585E+02  0.3078E+02  0.9530E+02  0.9526E+02
     -4.537  0.2625E+02  0.2316E+02  0.9673E+02  0.9652E+02
     -4.483  0.5059E+02  0.5391E+02  0.9949E+02  0.9946E+02
     -4.428  0.1862E+02  0.1527E+02  0.1005E+03  0.1003E+03
     -4.374  0.5177E+02  0.4624E+02  0.1033E+03  0.1028E+03
     -4.319  0.4217E+02  0.4500E+02  0.1056E+03  0.1053E+03
     -4.264  0.1594E+02  0.2242E+02  0.1065E+03  0.1065E+03
     -4.210  0.1486E+02  0.1138E+02  0.1073E+03  0.1071E+03
     -4.155  0.2876E+02  0.2815E+02  0.1089E+03  0.1086E+03
     -4.101  0.1120E+02  0.1423E+02  0.1095E+03  0.1094E+03
     -4.046  0.1641E+02  0.1428E+02  0.1104E+03  0.1102E+03
     -3.992  0.1320E+02  0.1485E+02  0.1111E+03  0.1110E+03
     -3.937  0.2986E+02  0.2267E+02  0.1127E+03  0.1122E+03
     -3.883  0.1808E+02  0.2422E+02  0.1137E+03  0.1136E+03
     -3.828  0.1553E+02  0.1735E+02  0.1146E+03  0.1145E+03
     -3.774  0.2181E+02  0.1520E+02  0.1158E+03  0.1153E+03
     -3.719  0.3114E+02  0.3656E+02  0.1175E+03  0.1173E+03
     -3.665  0.5386E+01  0.5616E+01  0.1177E+03  0.1176E+03
     -3.610  0.1270E+02  0.1129E+02  0.1184E+03  0.1183E+03
     -3.556  0.2411E+02  0.2739E+02  0.1198E+03  0.1197E+03
     -3.501  0.2284E+02  0.2177E+02  0.1210E+03  0.1209E+03
     -3.447  0.1381E+02  0.1490E+02  0.1217E+03  0.1217E+03
     -3.392  0.1989E+02  0.1599E+02  0.1228E+03  0.1226E+03
     -3.337  0.2298E+02  0.2586E+02  0.1241E+03  0.1240E+03
     -3.283  0.1839E+02  0.1485E+02  0.1251E+03  0.1248E+03
     -3.228  0.7782E+01  0.8861E+01  0.1255E+03  0.1253E+03
     -3.174  0.4565E+02  0.4222E+02  0.1280E+03  0.1276E+03
     -3.119  0.2174E+02  0.2389E+02  0.1292E+03  0.1289E+03
     -3.065  0.1025E+02  0.1384E+02  0.1297E+03  0.1297E+03
     -3.010  0.1686E+02  0.9262E+01  0.1307E+03  0.1302E+03
     -2.956  0.6580E+01  0.1490E+02  0.1310E+03  0.1310E+03
     -2.901  0.3974E+02  0.3412E+02  0.1332E+03  0.1329E+03
     -2.847  0.2422E+02  0.2791E+02  0.1345E+03  0.1344E+03
     -2.792  0.5007E+02  0.3561E+02  0.1372E+03  0.1363E+03
     -2.738  0.3764E+02  0.4779E+02  0.1393E+03  0.1389E+03
     -2.683  0.4452E+02  0.4410E+02  0.1417E+03  0.1413E+03
     -2.629  0.4563E+02  0.4648E+02  0.1442E+03  0.1439E+03
     -2.574  0.5812E+02  0.5896E+02  0.1474E+03  0.1471E+03
     -2.520  0.6608E+02  0.6824E+02  0.1510E+03  0.1508E+03
     -2.465  0.6897E+02  0.6478E+02  0.1547E+03  0.1543E+03
     -2.411  0.5710E+02  0.5755E+02  0.1579E+03  0.1575E+03
     -2.356  0.5220E+02  0.5532E+02  0.1607E+03  0.1605E+03
     -2.301  0.4833E+02  0.4678E+02  0.1633E+03  0.1630E+03
     -2.247  0.5561E+02  0.5374E+02  0.1664E+03  0.1660E+03
     -2.192  0.2554E+02  0.2325E+02  0.1678E+03  0.1672E+03
     -2.138  0.6518E+02  0.6211E+02  0.1713E+03  0.1706E+03
     -2.083  0.5004E+02  0.5702E+02  0.1740E+03  0.1737E+03
     -2.029  0.4463E+02  0.4858E+02  0.1765E+03  0.1764E+03
     -1.974  0.2306E+02  0.2158E+02  0.1777E+03  0.1776E+03
     -1.920  0.3691E+02  0.3801E+02  0.1798E+03  0.1796E+03
     -1.865  0.1655E+02  0.1628E+02  0.1807E+03  0.1805E+03
     -1.811  0.1263E+02  0.1027E+02  0.1813E+03  0.1811E+03
     -1.756  0.4126E+02  0.4121E+02  0.1836E+03  0.1833E+03
     -1.702  0.4927E+02  0.5218E+02  0.1863E+03  0.1862E+03
     -1.647  0.4207E+02  0.3577E+02  0.1886E+03  0.1881E+03
     -1.593  0.4227E+02  0.4442E+02  0.1909E+03  0.1906E+03
     -1.538  0.3007E+02  0.3167E+02  0.1925E+03  0.1923E+03
     -1.484  0.1880E+02  0.2250E+02  0.1935E+03  0.1935E+03
     -1.429  0.2823E+02  0.2128E+02  0.1951E+03  0.1947E+03
     -1.375  0.3046E+02  0.3375E+02  0.1967E+03  0.1965E+03
     -1.320  0.2350E+02  0.2580E+02  0.1980E+03  0.1979E+03
     -1.265  0.1787E+02  0.1917E+02  0.1990E+03  0.1990E+03
     -1.211  0.1376E+02  0.1455E+02  0.1998E+03  0.1997E+03
     -1.156  0.9428E+01  0.9178E+01  0.2003E+03  0.2003E+03
     -1.102  0.1649E+02  0.1446E+02  0.2012E+03  0.2010E+03
     -1.047  0.2342E+02  0.2282E+02  0.2024E+03  0.2023E+03
     -0.993  0.3662E+02  0.3611E+02  0.2044E+03  0.2043E+03
     -0.938  0.1503E+02  0.1832E+02  0.2053E+03  0.2053E+03
     -0.884  0.5676E+01  0.4715E+01  0.2056E+03  0.2055E+03
     -0.829  0.8952E+01  0.5925E+01  0.2061E+03  0.2058E+03
     -0.775  0.2273E+02  0.2431E+02  0.2073E+03  0.2072E+03
     -0.720  0.1770E+02  0.1363E+02  0.2083E+03  0.2079E+03
     -0.666  0.2535E+02  0.2398E+02  0.2096E+03  0.2092E+03
     -0.611  0.3627E+02  0.3855E+02  0.2116E+03  0.2113E+03
     -0.557  0.3242E+02  0.3290E+02  0.2134E+03  0.2131E+03
     -0.502  0.5978E+02  0.5725E+02  0.2166E+03  0.2162E+03
     -0.448  0.1567E+02  0.2327E+02  0.2175E+03  0.2175E+03
     -0.393  0.2463E+02  0.2306E+02  0.2188E+03  0.2188E+03
     -0.338  0.1205E+02  0.1339E+02  0.2195E+03  0.2195E+03
     -0.284  0.9157E+01  0.9498E+01  0.2200E+03  0.2200E+03
     -0.229  0.1744E+02  0.1463E+02  0.2210E+03  0.2208E+03
     -0.175  0.2913E+02  0.3089E+02  0.2225E+03  0.2225E+03
     -0.120  0.8431E+01  0.9055E+01  0.2230E+03  0.2230E+03
     -0.066  0.1293E+02  0.1185E+02  0.2237E+03  0.2236E+03
     -0.011  0.2445E+02  0.2134E+02  0.2250E+03  0.2248E+03
      0.043  0.8486E+01  0.1310E+02  0.2255E+03  0.2255E+03
      0.098  0.4598E+01  0.4563E+01  0.2258E+03  0.2257E+03
      0.152  0.2403E+02  0.2042E+02  0.2271E+03  0.2269E+03
      0.207  0.4824E+02  0.4547E+02  0.2297E+03  0.2293E+03
      0.261  0.8238E+02  0.7901E+02  0.2342E+03  0.2336E+03
      0.316  0.3838E+02  0.4407E+02  0.2363E+03  0.2361E+03
      0.370  0.4201E+02  0.3934E+02  0.2386E+03  0.2382E+03
      0.425  0.3644E+02  0.3460E+02  0.2406E+03  0.2401E+03
      0.479  0.4415E+02  0.4948E+02  0.2430E+03  0.2428E+03
      0.534  0.4555E+02  0.4080E+02  0.2454E+03  0.2450E+03
      0.588  0.4313E+02  0.4406E+02  0.2478E+03  0.2474E+03
      0.643  0.6542E+02  0.6263E+02  0.2514E+03  0.2508E+03
      0.698  0.3476E+02  0.3854E+02  0.2533E+03  0.2529E+03
      0.752  0.1065E+03  0.1024E+03  0.2591E+03  0.2585E+03
      0.807  0.9024E+02  0.9152E+02  0.2640E+03  0.2635E+03
      0.861  0.5921E+02  0.6229E+02  0.2672E+03  0.2669E+03
      0.916  0.5828E+02  0.5554E+02  0.2704E+03  0.2699E+03
      0.970  0.5222E+02  0.5170E+02  0.2732E+03  0.2727E+03
      1.025  0.3386E+02  0.3966E+02  0.2751E+03  0.2749E+03
      1.079  0.9882E+02  0.8953E+02  0.2805E+03  0.2798E+03
      1.134  0.5914E+02  0.6583E+02  0.2837E+03  0.2834E+03
      1.188  0.8178E+02  0.6914E+02  0.2882E+03  0.2871E+03
      1.243  0.6886E+02  0.8289E+02  0.2919E+03  0.2917E+03
      1.297  0.7139E+02  0.6340E+02  0.2958E+03  0.2951E+03
      1.352  0.8837E+02  0.9234E+02  0.3006E+03  0.3002E+03
      1.406  0.7368E+02  0.7160E+02  0.3046E+03  0.3041E+03
      1.461  0.8346E+02  0.8150E+02  0.3092E+03  0.3085E+03
      1.515  0.4107E+02  0.5014E+02  0.3114E+03  0.3112E+03
      1.570  0.5839E+02  0.5594E+02  0.3146E+03  0.3143E+03
      1.625  0.8622E+02  0.7804E+02  0.3193E+03  0.3185E+03
      1.679  0.7784E+02  0.8580E+02  0.3236E+03  0.3232E+03
      1.734  0.8119E+02  0.7860E+02  0.3280E+03  0.3275E+03
      1.788  0.8690E+02  0.8624E+02  0.3327E+03  0.3322E+03
      1.843  0.9877E+02  0.8869E+02  0.3381E+03  0.3371E+03
      1.897  0.8508E+02  0.9444E+02  0.3428E+03  0.3422E+03
      1.952  0.7910E+02  0.8054E+02  0.3471E+03  0.3466E+03
      2.006  0.4717E+02  0.4990E+02  0.3496E+03  0.3493E+03
      2.061  0.5740E+02  0.5400E+02  0.3528E+03  0.3523E+03
      2.115  0.7404E+02  0.7555E+02  0.3568E+03  0.3564E+03
      2.170  0.5080E+02  0.5682E+02  0.3596E+03  0.3595E+03
      2.224  0.8544E+02  0.7823E+02  0.3642E+03  0.3637E+03
      2.279  0.5956E+02  0.6055E+02  0.3675E+03  0.3670E+03
      2.333  0.9241E+02  0.8740E+02  0.3725E+03  0.3718E+03
      2.388  0.5660E+02  0.6143E+02  0.3756E+03  0.3752E+03
      2.442  0.8196E+02  0.7887E+02  0.3801E+03  0.3795E+03
      2.497  0.6712E+02  0.7027E+02  0.3837E+03  0.3833E+03
      2.551  0.8023E+02  0.8064E+02  0.3881E+03  0.3877E+03
      2.606  0.6348E+02  0.6002E+02  0.3916E+03  0.3910E+03
      2.661  0.5216E+02  0.5133E+02  0.3944E+03  0.3938E+03
      2.715  0.8312E+02  0.8884E+02  0.3990E+03  0.3986E+03
      2.770  0.6112E+02  0.5946E+02  0.4023E+03  0.4018E+03
      2.824  0.4223E+02  0.4480E+02  0.4046E+03  0.4043E+03
      2.879  0.4726E+02  0.4631E+02  0.4072E+03  0.4068E+03
      2.933  0.8284E+02  0.8038E+02  0.4117E+03  0.4112E+03
      2.988  0.6063E+02  0.6215E+02  0.4150E+03  0.4146E+03
      3.042  0.5275E+02  0.4640E+02  0.4179E+03  0.4171E+03
      3.097  0.8603E+02  0.9043E+02  0.4226E+03  0.4220E+03
      3.151  0.4981E+02  0.4425E+02  0.4253E+03  0.4245E+03
      3.206  0.7409E+02  0.8011E+02  0.4293E+03  0.4288E+03
      3.260  0.8785E+02  0.8650E+02  0.4341E+03  0.4335E+03
      3.315  0.6482E+02  0.6423E+02  0.4376E+03  0.4370E+03
      3.369  0.6567E+02  0.6812E+02  0.4412E+03  0.4408E+03
      3.424  0.5918E+02  0.5546E+02  0.4444E+03  0.4438E+03
      3.478  0.5910E+02  0.6462E+02  0.4477E+03  0.4473E+03
      3.533  0.2463E+02  0.2650E+02  0.4490E+03  0.4488E+03
      3.588  0.6069E+02  0.5292E+02  0.4523E+03  0.4516E+03
      3.642  0.2496E+02  0.3452E+02  0.4537E+03  0.4535E+03
      3.697  0.2604E+02  0.2337E+02  0.4551E+03  0.4548E+03
      3.751  0.4374E+02  0.4383E+02  0.4575E+03  0.4572E+03
      3.806  0.2803E+02  0.2682E+02  0.4590E+03  0.4586E+03
      3.860  0.2272E+02  0.2934E+02  0.4603E+03  0.4602E+03
      3.915  0.3154E+02  0.2641E+02  0.4620E+03  0.4617E+03
      3.969  0.3317E+02  0.3353E+02  0.4638E+03  0.4635E+03
      4.024  0.3358E+02  0.3268E+02  0.4656E+03  0.4653E+03
      4.078  0.2559E+02  0.2991E+02  0.4670E+03  0.4669E+03
      4.133  0.2022E+02  0.1943E+02  0.4681E+03  0.4680E+03
      4.187  0.2235E+02  0.1510E+02  0.4693E+03  0.4688E+03
      4.242  0.2456E+02  0.2181E+02  0.4707E+03  0.4700E+03
      4.296  0.1982E+02  0.3066E+02  0.4718E+03  0.4717E+03
      4.351  0.1375E+02  0.1515E+02  0.4725E+03  0.4725E+03
      4.405  0.1984E+01  0.1300E+00  0.4726E+03  0.4725E+03
      4.460  0.3045E+02  0.1119E+02  0.4743E+03  0.4731E+03
      4.514  0.2316E+02  0.3140E+02  0.4755E+03  0.4748E+03
      4.569  0.1759E+02  0.1905E+02  0.4765E+03  0.4759E+03
      4.624  0.4762E+01  0.1457E+02  0.4768E+03  0.4767E+03
      4.678  0.1683E+02  0.1627E+01  0.4777E+03  0.4768E+03
      4.733  0.4052E+02  0.2563E+02  0.4799E+03  0.4781E+03
      4.787  0.3348E+02  0.3698E+02  0.4817E+03  0.4802E+03
      4.842  0.2728E+02  0.4063E+02  0.4832E+03  0.4824E+03
      4.896  0.2728E+02  0.1826E+02  0.4847E+03  0.4834E+03
      4.951  0.2869E+02  0.3384E+02  0.4862E+03  0.4852E+03
      5.005  0.1569E+02  0.1887E+02  0.4871E+03  0.4862E+03
      5.060  0.4561E+02  0.3034E+02  0.4896E+03  0.4879E+03
      5.114  0.3157E+02  0.4634E+02  0.4913E+03  0.4904E+03
      5.169  0.2970E+02  0.3173E+02  0.4929E+03  0.4922E+03
      5.223  0.3347E+02  0.2899E+02  0.4948E+03  0.4937E+03
      5.278  0.4184E+02  0.3819E+02  0.4970E+03  0.4958E+03
      5.332  0.3628E+02  0.5552E+02  0.4990E+03  0.4989E+03
      5.387  0.3715E+02  0.2960E+02  0.5010E+03  0.5005E+03
      5.441  0.4555E+02  0.4301E+02  0.5035E+03  0.5028E+03
      5.496  0.2294E+02  0.3476E+02  0.5048E+03  0.5047E+03
      5.551  0.4282E+02  0.3365E+02  0.5071E+03  0.5065E+03
      5.605  0.4363E+02  0.4981E+02  0.5095E+03  0.5093E+03
      5.660  0.6934E+02  0.5252E+02  0.5133E+03  0.5121E+03
      5.714  0.4141E+02  0.5643E+02  0.5155E+03  0.5152E+03
      5.769  0.5210E+02  0.4799E+02  0.5184E+03  0.5178E+03
      5.823  0.5563E+02  0.4396E+02  0.5214E+03  0.5202E+03
      5.878  0.5949E+02  0.6214E+02  0.5246E+03  0.5236E+03
      5.932  0.5874E+02  0.6019E+02  0.5278E+03  0.5269E+03
      5.987  0.3867E+02  0.4879E+02  0.5300E+03  0.5295E+03
      6.041  0.4712E+02  0.4507E+02  0.5325E+03  0.5320E+03
      6.096  0.4199E+02  0.4506E+02  0.5348E+03  0.5345E+03
      6.150  0.6840E+02  0.5305E+02  0.5385E+03  0.5374E+03
      6.205  0.5364E+02  0.6997E+02  0.5415E+03  0.5412E+03
      6.259  0.4174E+02  0.4094E+02  0.5437E+03  0.5434E+03
      6.314  0.2944E+02  0.3121E+02  0.5453E+03  0.5451E+03
      6.368  0.4934E+02  0.4103E+02  0.5480E+03  0.5473E+03
      6.423  0.6611E+02  0.7007E+02  0.5516E+03  0.5512E+03
      6.477  0.5453E+02  0.5474E+02  0.5546E+03  0.5541E+03
      6.532  0.8007E+02  0.8294E+02  0.5590E+03  0.5587E+03
      6.587  0.3765E+02  0.3747E+02  0.5610E+03  0.5607E+03
      6.641  0.4480E+02  0.4143E+02  0.5635E+03  0.5630E+03
      6.696  0.3113E+02  0.3788E+02  0.5652E+03  0.5650E+03
      6.750  0.4004E+02  0.3721E+02  0.5674E+03  0.5671E+03
      6.805  0.6038E+02  0.5362E+02  0.5707E+03  0.5700E+03
      6.859  0.5083E+02  0.5715E+02  0.5734E+03  0.5731E+03
      6.914  0.1323E+02  0.2423E+02  0.5741E+03  0.5744E+03
      6.968  0.1051E+02  0.3412E+01  0.5747E+03  0.5746E+03
      7.023  0.1805E+02  0.1972E+02  0.5757E+03  0.5757E+03
      7.077  0.5450E+01  0.5791E+01  0.5760E+03  0.5760E+03
      7.132  0.0000E+00  0.0000E+00  0.5760E+03  0.5760E+03
      7.186  0.0000E+00  0.0000E+00  0.5760E+03  0.5760E+03
      7.241  0.0000E+00  0.0000E+00  0.5760E+03  0.5760E+03
      7.295  0.0000E+00  0.0000E+00  0.5760E+03  0.5760E+03
      7.350  0.0000E+00  0.0000E+00  0.5760E+03  0.5760E+03
      7.404  0.0000E+00  0.0000E+00  0.5760E+03  0.5760E+03
      7.459  0.0000E+00  0.0000E+00  0.5760E+03  0.5760E+03
      7.514  0.0000E+00  0.0000E+00  0.5760E+03  0.5760E+03
      7.568  0.0000E+00  0.0000E+00  0.5760E+03  0.5760E+03
      7.623  0.0000E+00  0.0000E+00  0.5760E+03  0.5760E+03
      7.677  0.0000E+00  0.0000E+00  0.5760E+03  0.5760E+03
      7.732  0.0000E+00  0.0000E+00  0.5760E+03  0.5760E+03
      7.786  0.0000E+00  0.0000E+00  0.5760E+03  0.5760E+03
