 264 264   0   0
  0.2741953E+02  0.1946760E-08  0.1946760E-08  0.1910025E-08  0.5000000E-15
  1.000000000000000E-004
  CAR 
 Si and Ge interface calculation         
      6.73654290     -8.78488640  301      4.15436493      1.00000000
     -8.785  0.0000E+00  0.0000E+00  0.0000E+00  0.0000E+00
     -8.733  0.0000E+00  0.0000E+00  0.0000E+00  0.0000E+00
     -8.681  0.0000E+00  0.0000E+00  0.0000E+00  0.0000E+00
     -8.630  0.0000E+00  0.0000E+00  0.0000E+00  0.0000E+00
     -8.578  0.0000E+00  0.0000E+00  0.0000E+00  0.0000E+00
     -8.526  0.0000E+00  0.0000E+00  0.0000E+00  0.0000E+00
     -8.474  0.0000E+00  0.0000E+00  0.0000E+00  0.0000E+00
     -8.423  0.0000E+00  0.0000E+00  0.0000E+00  0.0000E+00
     -8.371  0.0000E+00  0.0000E+00  0.0000E+00  0.0000E+00
     -8.319  0.0000E+00  0.0000E+00  0.0000E+00  0.0000E+00
     -8.268  0.0000E+00  0.0000E+00  0.0000E+00  0.0000E+00
     -8.216  0.0000E+00  0.0000E+00  0.0000E+00  0.0000E+00
     -8.164  0.0000E+00  0.0000E+00  0.0000E+00  0.0000E+00
     -8.112  0.1511E-04  0.3589E-05  0.7818E-06  0.1857E-06
     -8.061  0.9626E+01  0.9577E+01  0.4980E+00  0.4955E+00
     -8.009  0.1647E+02  0.1533E+02  0.1350E+01  0.1288E+01
     -7.957  0.2494E+02  0.2451E+02  0.2641E+01  0.2557E+01
     -7.905  0.1630E+02  0.1767E+02  0.3484E+01  0.3471E+01
     -7.854  0.1881E+02  0.1855E+02  0.4457E+01  0.4430E+01
     -7.802  0.8733E+00  0.1364E+01  0.4502E+01  0.4501E+01
     -7.750  0.1907E+02  0.1887E+02  0.5489E+01  0.5477E+01
     -7.698  0.3259E+02  0.3155E+02  0.7176E+01  0.7110E+01
     -7.647  0.3005E+02  0.2973E+02  0.8730E+01  0.8648E+01
     -7.595  0.2747E+02  0.2763E+02  0.1015E+02  0.1008E+02
     -7.543  0.6736E+01  0.8167E+01  0.1050E+02  0.1050E+02
     -7.491  0.6009E-05  0.1469E-05  0.1050E+02  0.1050E+02
     -7.440  0.9627E+01  0.9539E+01  0.1100E+02  0.1099E+02
     -7.388  0.2478E+02  0.2379E+02  0.1228E+02  0.1222E+02
     -7.336  0.3649E+02  0.3629E+02  0.1417E+02  0.1410E+02
     -7.284  0.1882E+02  0.1924E+02  0.1514E+02  0.1510E+02
     -7.233  0.3261E+02  0.3047E+02  0.1683E+02  0.1667E+02
     -7.181  0.4169E+02  0.4248E+02  0.1899E+02  0.1887E+02
     -7.129  0.3338E+02  0.3434E+02  0.2071E+02  0.2065E+02
     -7.078  0.1539E+02  0.1652E+02  0.2151E+02  0.2150E+02
     -7.026  0.3753E+02  0.3432E+02  0.2345E+02  0.2328E+02
     -6.974  0.4906E+02  0.4902E+02  0.2599E+02  0.2581E+02
     -6.922  0.5426E+02  0.5579E+02  0.2880E+02  0.2870E+02
     -6.871  0.2627E+02  0.2527E+02  0.3016E+02  0.3001E+02
     -6.819  0.4340E+02  0.4506E+02  0.3240E+02  0.3234E+02
     -6.767  0.3154E+02  0.3202E+02  0.3403E+02  0.3400E+02
     -6.715  0.2882E+02  0.2884E+02  0.3552E+02  0.3549E+02
     -6.664  0.5389E+02  0.5247E+02  0.3831E+02  0.3820E+02
     -6.612  0.5979E+02  0.6064E+02  0.4140E+02  0.4134E+02
     -6.560  0.4171E+02  0.4205E+02  0.4356E+02  0.4352E+02
     -6.508  0.4802E+02  0.4842E+02  0.4605E+02  0.4602E+02
     -6.457  0.2991E+02  0.2714E+02  0.4759E+02  0.4743E+02
     -6.405  0.4180E+02  0.4333E+02  0.4976E+02  0.4967E+02
     -6.353  0.5229E+02  0.4937E+02  0.5246E+02  0.5222E+02
     -6.301  0.5886E+02  0.6280E+02  0.5551E+02  0.5547E+02
     -6.250  0.3096E+02  0.3027E+02  0.5711E+02  0.5704E+02
     -6.198  0.4121E+02  0.4057E+02  0.5924E+02  0.5914E+02
     -6.146  0.4206E+02  0.4110E+02  0.6142E+02  0.6126E+02
     -6.095  0.7441E+02  0.7389E+02  0.6527E+02  0.6509E+02
     -6.043  0.7363E+02  0.7221E+02  0.6908E+02  0.6882E+02
     -5.991  0.6741E+02  0.6928E+02  0.7257E+02  0.7241E+02
     -5.939  0.6951E+02  0.6909E+02  0.7616E+02  0.7598E+02
     -5.888  0.9359E+02  0.9424E+02  0.8100E+02  0.8086E+02
     -5.836  0.6086E+02  0.5905E+02  0.8415E+02  0.8391E+02
     -5.784  0.7354E+02  0.7246E+02  0.8796E+02  0.8766E+02
     -5.732  0.7332E+02  0.7525E+02  0.9175E+02  0.9155E+02
     -5.681  0.7607E+02  0.7811E+02  0.9569E+02  0.9560E+02
     -5.629  0.6625E+02  0.6365E+02  0.9911E+02  0.9889E+02
     -5.577  0.9071E+02  0.9051E+02  0.1038E+03  0.1036E+03
     -5.525  0.6556E+02  0.6773E+02  0.1072E+03  0.1071E+03
     -5.474  0.7725E+02  0.7711E+02  0.1112E+03  0.1111E+03
     -5.422  0.7296E+02  0.7054E+02  0.1150E+03  0.1147E+03
     -5.370  0.6259E+02  0.6233E+02  0.1182E+03  0.1179E+03
     -5.318  0.6104E+02  0.6336E+02  0.1214E+03  0.1212E+03
     -5.267  0.9579E+02  0.9293E+02  0.1263E+03  0.1260E+03
     -5.215  0.8142E+02  0.8461E+02  0.1305E+03  0.1304E+03
     -5.163  0.6125E+02  0.5945E+02  0.1337E+03  0.1335E+03
     -5.111  0.7018E+02  0.7151E+02  0.1373E+03  0.1372E+03
     -5.060  0.7506E+02  0.7432E+02  0.1412E+03  0.1410E+03
     -5.008  0.6125E+02  0.6227E+02  0.1444E+03  0.1442E+03
     -4.956  0.7661E+02  0.7518E+02  0.1484E+03  0.1481E+03
     -4.905  0.6634E+02  0.6808E+02  0.1518E+03  0.1517E+03
     -4.853  0.5891E+02  0.5749E+02  0.1548E+03  0.1546E+03
     -4.801  0.9177E+02  0.9066E+02  0.1596E+03  0.1593E+03
     -4.749  0.1034E+03  0.1023E+03  0.1649E+03  0.1646E+03
     -4.698  0.1003E+03  0.9750E+02  0.1701E+03  0.1697E+03
     -4.646  0.1197E+03  0.1198E+03  0.1763E+03  0.1759E+03
     -4.594  0.1077E+03  0.1118E+03  0.1819E+03  0.1816E+03
     -4.542  0.1047E+03  0.1044E+03  0.1873E+03  0.1870E+03
     -4.491  0.1174E+03  0.1156E+03  0.1934E+03  0.1930E+03
     -4.439  0.9958E+02  0.1012E+03  0.1985E+03  0.1983E+03
     -4.387  0.7746E+02  0.7815E+02  0.2025E+03  0.2023E+03
     -4.335  0.9783E+02  0.9873E+02  0.2076E+03  0.2074E+03
     -4.284  0.1025E+03  0.1026E+03  0.2129E+03  0.2127E+03
     -4.232  0.5757E+02  0.5893E+02  0.2159E+03  0.2158E+03
     -4.180  0.6911E+02  0.6851E+02  0.2195E+03  0.2193E+03
     -4.128  0.7294E+02  0.6957E+02  0.2232E+03  0.2229E+03
     -4.077  0.8677E+02  0.8987E+02  0.2277E+03  0.2276E+03
     -4.025  0.4948E+02  0.4977E+02  0.2303E+03  0.2301E+03
     -3.973  0.3585E+02  0.3586E+02  0.2321E+03  0.2320E+03
     -3.922  0.8616E+02  0.8427E+02  0.2366E+03  0.2363E+03
     -3.870  0.6485E+02  0.6619E+02  0.2399E+03  0.2398E+03
     -3.818  0.7828E+02  0.7860E+02  0.2440E+03  0.2438E+03
     -3.766  0.6613E+02  0.6536E+02  0.2474E+03  0.2472E+03
     -3.715  0.5904E+02  0.5939E+02  0.2505E+03  0.2503E+03
     -3.663  0.6343E+02  0.6159E+02  0.2538E+03  0.2535E+03
     -3.611  0.8662E+02  0.8815E+02  0.2582E+03  0.2580E+03
     -3.559  0.5574E+02  0.5380E+02  0.2611E+03  0.2608E+03
     -3.508  0.6748E+02  0.7094E+02  0.2646E+03  0.2645E+03
     -3.456  0.4230E+02  0.3946E+02  0.2668E+03  0.2665E+03
     -3.404  0.9268E+02  0.9185E+02  0.2716E+03  0.2713E+03
     -3.352  0.7465E+02  0.7626E+02  0.2755E+03  0.2752E+03
     -3.301  0.5972E+02  0.5823E+02  0.2785E+03  0.2782E+03
     -3.249  0.7420E+02  0.7403E+02  0.2824E+03  0.2821E+03
     -3.197  0.7005E+02  0.7200E+02  0.2860E+03  0.2858E+03
     -3.145  0.8225E+02  0.8269E+02  0.2903E+03  0.2901E+03
     -3.094  0.8443E+02  0.8190E+02  0.2946E+03  0.2943E+03
     -3.042  0.6955E+02  0.7298E+02  0.2982E+03  0.2981E+03
     -2.990  0.8031E+02  0.7593E+02  0.3024E+03  0.3020E+03
     -2.938  0.5962E+02  0.6197E+02  0.3055E+03  0.3052E+03
     -2.887  0.5969E+02  0.5908E+02  0.3086E+03  0.3083E+03
     -2.835  0.1052E+03  0.1042E+03  0.3140E+03  0.3137E+03
     -2.783  0.9900E+02  0.9828E+02  0.3191E+03  0.3188E+03
     -2.732  0.7741E+02  0.8004E+02  0.3231E+03  0.3229E+03
     -2.680  0.1111E+03  0.1115E+03  0.3289E+03  0.3287E+03
     -2.628  0.8652E+02  0.8729E+02  0.3334E+03  0.3332E+03
     -2.576  0.9110E+02  0.8898E+02  0.3381E+03  0.3378E+03
     -2.525  0.1114E+03  0.1103E+03  0.3438E+03  0.3435E+03
     -2.473  0.1181E+03  0.1162E+03  0.3499E+03  0.3495E+03
     -2.421  0.1129E+03  0.1144E+03  0.3558E+03  0.3554E+03
     -2.369  0.8753E+02  0.8994E+02  0.3603E+03  0.3601E+03
     -2.318  0.1004E+03  0.1002E+03  0.3655E+03  0.3653E+03
     -2.266  0.1032E+03  0.1036E+03  0.3708E+03  0.3706E+03
     -2.214  0.9554E+02  0.9408E+02  0.3758E+03  0.3755E+03
     -2.162  0.9460E+02  0.9801E+02  0.3807E+03  0.3806E+03
     -2.111  0.5172E+02  0.4999E+02  0.3834E+03  0.3832E+03
     -2.059  0.3394E+02  0.3630E+02  0.3851E+03  0.3850E+03
     -2.007  0.6147E+02  0.5796E+02  0.3883E+03  0.3880E+03
     -1.955  0.7585E+02  0.7728E+02  0.3922E+03  0.3920E+03
     -1.904  0.8820E+02  0.8549E+02  0.3968E+03  0.3964E+03
     -1.852  0.7823E+02  0.7922E+02  0.4008E+03  0.4005E+03
     -1.800  0.1101E+03  0.1104E+03  0.4065E+03  0.4063E+03
     -1.749  0.5391E+02  0.5615E+02  0.4093E+03  0.4092E+03
     -1.697  0.7235E+02  0.7186E+02  0.4131E+03  0.4129E+03
     -1.645  0.1194E+03  0.1167E+03  0.4192E+03  0.4189E+03
     -1.593  0.9595E+02  0.9828E+02  0.4242E+03  0.4240E+03
     -1.542  0.8286E+02  0.8292E+02  0.4285E+03  0.4283E+03
     -1.490  0.6073E+02  0.6062E+02  0.4316E+03  0.4314E+03
     -1.438  0.8724E+02  0.8620E+02  0.4361E+03  0.4359E+03
     -1.386  0.7787E+02  0.7719E+02  0.4402E+03  0.4399E+03
     -1.335  0.3963E+02  0.4286E+02  0.4422E+03  0.4421E+03
     -1.283  0.5945E+02  0.5918E+02  0.4453E+03  0.4452E+03
     -1.231  0.6400E+02  0.6373E+02  0.4486E+03  0.4485E+03
     -1.179  0.5831E+02  0.5703E+02  0.4516E+03  0.4514E+03
     -1.128  0.5553E+02  0.5582E+02  0.4545E+03  0.4543E+03
     -1.076  0.4578E+02  0.4617E+02  0.4569E+03  0.4567E+03
     -1.024  0.5234E+02  0.5246E+02  0.4596E+03  0.4594E+03
     -0.972  0.5953E+02  0.5875E+02  0.4627E+03  0.4624E+03
     -0.921  0.5277E+02  0.5249E+02  0.4654E+03  0.4652E+03
     -0.869  0.3515E+02  0.3654E+02  0.4672E+03  0.4671E+03
     -0.817  0.4516E+02  0.4332E+02  0.4695E+03  0.4693E+03
     -0.765  0.5848E+02  0.6043E+02  0.4726E+03  0.4724E+03
     -0.714  0.7411E+02  0.7326E+02  0.4764E+03  0.4762E+03
     -0.662  0.5633E+02  0.5604E+02  0.4793E+03  0.4791E+03
     -0.610  0.6640E+02  0.6454E+02  0.4827E+03  0.4824E+03
     -0.559  0.6062E+02  0.6420E+02  0.4859E+03  0.4858E+03
     -0.507  0.1297E+02  0.1461E+02  0.4866E+03  0.4865E+03
     -0.455  0.4297E+02  0.4115E+02  0.4888E+03  0.4887E+03
     -0.403  0.1966E+02  0.1987E+02  0.4898E+03  0.4897E+03
     -0.352  0.5234E+02  0.5207E+02  0.4925E+03  0.4924E+03
     -0.300  0.4117E+02  0.4162E+02  0.4946E+03  0.4945E+03
     -0.248  0.5576E+02  0.5168E+02  0.4975E+03  0.4972E+03
     -0.196  0.8605E+02  0.8897E+02  0.5020E+03  0.5018E+03
     -0.145  0.7880E+02  0.7754E+02  0.5060E+03  0.5058E+03
     -0.093  0.8187E+02  0.8221E+02  0.5103E+03  0.5101E+03
     -0.041  0.1216E+03  0.1199E+03  0.5166E+03  0.5163E+03
      0.011  0.1135E+03  0.1136E+03  0.5224E+03  0.5221E+03
      0.062  0.1295E+03  0.1316E+03  0.5291E+03  0.5290E+03
      0.114  0.1104E+03  0.1050E+03  0.5349E+03  0.5344E+03
      0.166  0.1592E+03  0.1571E+03  0.5431E+03  0.5425E+03
      0.218  0.1138E+03  0.1215E+03  0.5490E+03  0.5488E+03
      0.269  0.7933E+02  0.7819E+02  0.5531E+03  0.5529E+03
      0.321  0.8470E+02  0.8471E+02  0.5575E+03  0.5572E+03
      0.373  0.9461E+02  0.9513E+02  0.5624E+03  0.5622E+03
      0.424  0.7542E+02  0.7491E+02  0.5663E+03  0.5660E+03
      0.476  0.1081E+03  0.1086E+03  0.5719E+03  0.5717E+03
      0.528  0.8103E+02  0.8196E+02  0.5761E+03  0.5759E+03
      0.580  0.9412E+02  0.9146E+02  0.5809E+03  0.5806E+03
      0.631  0.1163E+03  0.1147E+03  0.5869E+03  0.5866E+03
      0.683  0.1601E+03  0.1602E+03  0.5952E+03  0.5948E+03
      0.735  0.1594E+03  0.1583E+03  0.6035E+03  0.6030E+03
      0.787  0.1149E+03  0.1173E+03  0.6094E+03  0.6091E+03
      0.838  0.1237E+03  0.1232E+03  0.6158E+03  0.6155E+03
      0.890  0.1236E+03  0.1223E+03  0.6222E+03  0.6218E+03
      0.942  0.1027E+03  0.1076E+03  0.6275E+03  0.6274E+03
      0.994  0.8824E+02  0.8558E+02  0.6321E+03  0.6318E+03
      1.045  0.9366E+02  0.9533E+02  0.6369E+03  0.6367E+03
      1.097  0.1456E+03  0.1396E+03  0.6445E+03  0.6440E+03
      1.149  0.1475E+03  0.1504E+03  0.6521E+03  0.6517E+03
      1.201  0.1205E+03  0.1191E+03  0.6583E+03  0.6579E+03
      1.252  0.1758E+03  0.1762E+03  0.6674E+03  0.6670E+03
      1.304  0.1610E+03  0.1591E+03  0.6758E+03  0.6752E+03
      1.356  0.1650E+03  0.1640E+03  0.6843E+03  0.6837E+03
      1.408  0.1954E+03  0.1965E+03  0.6944E+03  0.6939E+03
      1.459  0.1986E+03  0.1963E+03  0.7047E+03  0.7041E+03
      1.511  0.1548E+03  0.1573E+03  0.7127E+03  0.7122E+03
      1.563  0.1965E+03  0.1913E+03  0.7229E+03  0.7221E+03
      1.614  0.1865E+03  0.1915E+03  0.7325E+03  0.7320E+03
      1.666  0.1996E+03  0.1987E+03  0.7428E+03  0.7423E+03
      1.718  0.1759E+03  0.1750E+03  0.7519E+03  0.7513E+03
      1.770  0.1696E+03  0.1704E+03  0.7607E+03  0.7602E+03
      1.821  0.1907E+03  0.1898E+03  0.7706E+03  0.7700E+03
      1.873  0.1731E+03  0.1746E+03  0.7795E+03  0.7790E+03
      1.925  0.1713E+03  0.1737E+03  0.7884E+03  0.7880E+03
      1.977  0.1650E+03  0.1625E+03  0.7969E+03  0.7964E+03
      2.028  0.2091E+03  0.2055E+03  0.8077E+03  0.8070E+03
      2.080  0.1558E+03  0.1600E+03  0.8158E+03  0.8153E+03
      2.132  0.1953E+03  0.1929E+03  0.8259E+03  0.8253E+03
      2.184  0.1767E+03  0.1759E+03  0.8351E+03  0.8344E+03
      2.235  0.1846E+03  0.1812E+03  0.8446E+03  0.8438E+03
      2.287  0.1710E+03  0.1778E+03  0.8534E+03  0.8530E+03
      2.339  0.1577E+03  0.1576E+03  0.8616E+03  0.8611E+03
      2.391  0.1476E+03  0.1479E+03  0.8692E+03  0.8688E+03
      2.442  0.2154E+03  0.2082E+03  0.8804E+03  0.8795E+03
      2.494  0.1544E+03  0.1600E+03  0.8884E+03  0.8878E+03
      2.546  0.1357E+03  0.1400E+03  0.8954E+03  0.8951E+03
      2.597  0.1800E+03  0.1772E+03  0.9047E+03  0.9042E+03
      2.649  0.1433E+03  0.1434E+03  0.9121E+03  0.9116E+03
      2.701  0.1226E+03  0.1221E+03  0.9185E+03  0.9180E+03
      2.753  0.1175E+03  0.1158E+03  0.9245E+03  0.9240E+03
      2.804  0.1339E+03  0.1357E+03  0.9315E+03  0.9310E+03
      2.856  0.1349E+03  0.1358E+03  0.9385E+03  0.9380E+03
      2.908  0.1532E+03  0.1490E+03  0.9464E+03  0.9457E+03
      2.960  0.1388E+03  0.1395E+03  0.9536E+03  0.9529E+03
      3.011  0.1095E+03  0.1099E+03  0.9592E+03  0.9586E+03
      3.063  0.1380E+03  0.1420E+03  0.9664E+03  0.9660E+03
      3.115  0.1226E+03  0.1212E+03  0.9727E+03  0.9722E+03
      3.167  0.1263E+03  0.1224E+03  0.9792E+03  0.9786E+03
      3.218  0.1228E+03  0.1298E+03  0.9856E+03  0.9853E+03
      3.270  0.9095E+02  0.8668E+02  0.9903E+03  0.9898E+03
      3.322  0.1100E+03  0.1120E+03  0.9960E+03  0.9956E+03
      3.374  0.1246E+03  0.1179E+03  0.1002E+04  0.1002E+04
      3.425  0.9182E+02  0.9504E+02  0.1007E+04  0.1007E+04
      3.477  0.7699E+02  0.8335E+02  0.1011E+04  0.1011E+04
      3.529  0.6496E+02  0.6023E+02  0.1015E+04  0.1014E+04
      3.581  0.1077E+03  0.1085E+03  0.1020E+04  0.1020E+04
      3.632  0.8916E+02  0.9081E+02  0.1025E+04  0.1024E+04
      3.684  0.1044E+03  0.9432E+02  0.1030E+04  0.1029E+04
      3.736  0.5247E+02  0.6261E+02  0.1033E+04  0.1032E+04
      3.787  0.4974E+02  0.4804E+02  0.1035E+04  0.1035E+04
      3.839  0.4667E+02  0.4609E+02  0.1038E+04  0.1037E+04
      3.891  0.6507E+02  0.6646E+02  0.1041E+04  0.1041E+04
      3.943  0.3823E+02  0.4150E+02  0.1043E+04  0.1043E+04
      3.994  0.3366E+02  0.3393E+02  0.1045E+04  0.1045E+04
      4.046  0.5471E+02  0.4458E+02  0.1048E+04  0.1047E+04
      4.098  0.5224E+02  0.6382E+02  0.1050E+04  0.1050E+04
      4.150  0.9492E+02  0.8388E+02  0.1055E+04  0.1055E+04
      4.201  0.1165E+03  0.1089E+03  0.1061E+04  0.1060E+04
      4.253  0.8186E+02  0.9408E+02  0.1066E+04  0.1065E+04
      4.305  0.7026E+02  0.6713E+02  0.1069E+04  0.1069E+04
      4.357  0.1077E+03  0.1004E+03  0.1075E+04  0.1074E+04
      4.408  0.8550E+02  0.9237E+02  0.1079E+04  0.1079E+04
      4.460  0.1232E+03  0.1159E+03  0.1086E+04  0.1085E+04
      4.512  0.1161E+03  0.1182E+03  0.1092E+04  0.1091E+04
      4.564  0.1042E+03  0.1087E+03  0.1097E+04  0.1096E+04
      4.615  0.1325E+03  0.1321E+03  0.1104E+04  0.1103E+04
      4.667  0.9552E+02  0.9835E+02  0.1109E+04  0.1108E+04
      4.719  0.7662E+02  0.7648E+02  0.1113E+04  0.1112E+04
      4.770  0.1132E+03  0.1106E+03  0.1119E+04  0.1118E+04
      4.822  0.1050E+03  0.1082E+03  0.1124E+04  0.1123E+04
      4.874  0.1239E+03  0.1205E+03  0.1130E+04  0.1130E+04
      4.926  0.1139E+03  0.1185E+03  0.1136E+04  0.1136E+04
      4.977  0.1125E+03  0.1114E+03  0.1142E+04  0.1142E+04
      5.029  0.1183E+03  0.1125E+03  0.1148E+04  0.1147E+04
      5.081  0.1466E+03  0.1509E+03  0.1156E+04  0.1155E+04
      5.133  0.9385E+02  0.9269E+02  0.1161E+04  0.1160E+04
      5.184  0.1303E+03  0.1275E+03  0.1168E+04  0.1167E+04
      5.236  0.1246E+03  0.1275E+03  0.1174E+04  0.1173E+04
      5.288  0.1192E+03  0.1215E+03  0.1180E+04  0.1180E+04
      5.340  0.1096E+03  0.1096E+03  0.1186E+04  0.1185E+04
      5.391  0.1069E+03  0.1094E+03  0.1191E+04  0.1191E+04
      5.443  0.1223E+03  0.1215E+03  0.1198E+04  0.1197E+04
      5.495  0.1511E+03  0.1490E+03  0.1205E+04  0.1205E+04
      5.547  0.1464E+03  0.1470E+03  0.1213E+04  0.1212E+04
      5.598  0.1267E+03  0.1248E+03  0.1220E+04  0.1219E+04
      5.650  0.1439E+03  0.1474E+03  0.1227E+04  0.1227E+04
      5.702  0.1476E+03  0.1457E+03  0.1235E+04  0.1234E+04
      5.754  0.1150E+03  0.1191E+03  0.1241E+04  0.1240E+04
      5.805  0.1333E+03  0.1343E+03  0.1248E+04  0.1247E+04
      5.857  0.1104E+03  0.1060E+03  0.1253E+04  0.1253E+04
      5.909  0.1417E+03  0.1400E+03  0.1261E+04  0.1260E+04
      5.960  0.1379E+03  0.1416E+03  0.1268E+04  0.1267E+04
      6.012  0.6757E+02  0.7454E+02  0.1271E+04  0.1271E+04
      6.064  0.1570E+02  0.1773E+02  0.1272E+04  0.1272E+04
      6.116  0.0000E+00  0.0000E+00  0.1272E+04  0.1272E+04
      6.167  0.0000E+00  0.0000E+00  0.1272E+04  0.1272E+04
      6.219  0.0000E+00  0.0000E+00  0.1272E+04  0.1272E+04
      6.271  0.0000E+00  0.0000E+00  0.1272E+04  0.1272E+04
      6.323  0.0000E+00  0.0000E+00  0.1272E+04  0.1272E+04
      6.374  0.0000E+00  0.0000E+00  0.1272E+04  0.1272E+04
      6.426  0.0000E+00  0.0000E+00  0.1272E+04  0.1272E+04
      6.478  0.0000E+00  0.0000E+00  0.1272E+04  0.1272E+04
      6.530  0.0000E+00  0.0000E+00  0.1272E+04  0.1272E+04
      6.581  0.0000E+00  0.0000E+00  0.1272E+04  0.1272E+04
      6.633  0.0000E+00  0.0000E+00  0.1272E+04  0.1272E+04
      6.685  0.0000E+00  0.0000E+00  0.1272E+04  0.1272E+04
      6.737  0.0000E+00  0.0000E+00  0.1272E+04  0.1272E+04
