 vasp.6.4.3 19Mar24 (build Oct 22 2024 11:23:12) complex                        
  
 executed on             LinuxIFC date 2025.06.13  10:06:28
 running   64 mpi-ranks, on    4 nodes
 distrk:  each k-point on   64 cores,    1 groups
 distr:  one band on NCORE=  16 cores,    4 groups


--------------------------------------------------------------------------------------------------------


 INCAR:
   SYSTEM = Si and Ge interface calculation
   ISTART = 0
   ICHARG = 2
   LWAVE = .FALSE.
   LREAL = AUTO
   ENCUT = 700
   ENAUG = 900
   ADDGRID = .TRUE.
   LMAXMIX = 6
   LASPH = .TRUE.
   LMIXTAU = .TRUE.
   NCORE = 16
   NELM = 100
   NBANDS = 634
   EDIFF = 1d-7
   AMIX = 0.6
   ISMEAR = 0
   SIGMA = 0.01
   NELECT = 1056
   ISPIN = 2
   NUPDOWN = 1
   LVTOT = .FALSE.
   LVHAR = .TRUE.

 POTCAR:    PAW_PBE Sn 08Apr2002                  
 POTCAR:    PAW_PBE Si 05Jan2001                  
 -----------------------------------------------------------------------------
|                                                                             |
|           W    W    AA    RRRRR   N    N  II  N    N   GGGG   !!!           |
|           W    W   A  A   R    R  NN   N  II  NN   N  G    G  !!!           |
|           W    W  A    A  R    R  N N  N  II  N N  N  G       !!!           |
|           W WW W  AAAAAA  RRRRR   N  N N  II  N  N N  G  GGG   !            |
|           WW  WW  A    A  R   R   N   NN  II  N   NN  G    G                |
|           W    W  A    A  R    R  N    N  II  N    N   GGGG   !!!           |
|                                                                             |
|     You use a magnetic or noncollinear calculation, but did not specify     |
|     the initial magnetic moment with the MAGMOM tag. Note that a            |
|     default of 3.788e-3 will be used for all atoms. This ferromagnetic      |
|     setup may break the symmetry of the crystal, in particular it may       |
|     rule out finding an antiferromagnetic solution. Thence, we              |
|     recommend setting the initial magnetic moment manually or verifying     |
|     carefully that this magnetic setup is desired.                          |
|                                                                             |
 -----------------------------------------------------------------------------

 POTCAR:    PAW_PBE Sn 08Apr2002                  
   VRHFIN =Sn: s2p2                                                                                 
   LEXCH  = PE                                                                                      
   EATOM  =    94.0860 eV,    6.9151 Ry                                                             
                                                                                                    
   TITEL  = PAW_PBE Sn 08Apr2002                                                                    
   LULTRA =        F    use ultrasoft PP ?                                                          
   IUNSCR =        1    unscreen: 0-lin 1-nonlin 2-no                                               
   RPACOR =    2.000    partial core radius                                                         
   POMASS =  118.710; ZVAL   =    4.000    mass and valenz                                          
   RCORE  =    3.000    outmost cutoff radius                                                       
   RWIGS  =    2.960; RWIGS  =    1.566    wigner-seitz radius (au A)                               
   ENMAX  =  103.236; ENMIN  =   77.427 eV                                                          
   ICORE  =        3    local potential                                                             
   LCOR   =        T    correct aug charges                                                         
   LPAW   =        T    paw PP                                                                      
   EAUG   =  263.585                                                                                
   DEXC   =    0.000                                                                                
   RMAX   =    3.078    core radius for proj-oper                                                   
   RAUG   =    1.300    factor for augmentation sphere                                              
   RDEP   =    3.022    radius for radial grids                                                     
   RDEPT  =    2.655    core radius for aug-charge                                                  
                                                                                                    
   Atomic configuration                                                                             
   13 entries                                                                                       
     n  l   j            E        occ.                                                              
     1  0  0.50    -29007.2859   2.0000                                                             
     2  0  0.50     -4378.8056   2.0000                                                             
     2  1  1.50     -3930.4293   6.0000                                                             
     3  0  0.50      -845.0264   2.0000                                                             
     3  1  1.50      -698.5725   6.0000                                                             
     3  2  2.50      -473.2839  10.0000                                                             
     4  0  0.50      -133.9036   2.0000                                                             
     4  1  1.50       -89.6752   6.0000                                                             
     4  2  2.50       -25.8375  10.0000                                                             
     5  0  0.50       -10.5484   2.0000                                                             
     5  1  0.50        -3.6940   2.0000                                                             
     5  2  1.50        -1.3606   0.0000                                                             
     4  3  2.50        -4.0817   0.0000                                                             
   Description                                                                                      
     l       E           TYP  RCUT    TYP  RCUT                                                     
     0    -10.5483727     23  3.000                                                                 
     0     27.2116520     23  3.000                                                                 
     1     -3.6939829     23  3.000                                                                 
     1      1.9821976     23  3.000                                                                 
     2     -1.3605826     23  3.000                                                                 
     3     -2.7211652     23  3.000                                                                 
  local pseudopotential read in
  partial core-charges read in
  partial kinetic energy density read in
  atomic valenz-charges read in
  non local Contribution for L=           0  read in
    real space projection operators read in
  non local Contribution for L=           0  read in
    real space projection operators read in
  non local Contribution for L=           1  read in
    real space projection operators read in
  non local Contribution for L=           1  read in
    real space projection operators read in
  non local Contribution for L=           2  read in
    real space projection operators read in
    PAW grid and wavefunctions read in
 
   number of l-projection  operators is LMAX  =           5
   number of lm-projection operators is LMMAX =          13
 
 POTCAR:    PAW_PBE Si 05Jan2001                  
   VRHFIN =Si: s2p2                                                                                 
   LEXCH  = PE                                                                                      
   EATOM  =   103.0669 eV,    7.5752 Ry                                                             
                                                                                                    
   TITEL  = PAW_PBE Si 05Jan2001                                                                    
   LULTRA =        F    use ultrasoft PP ?                                                          
   IUNSCR =        1    unscreen: 0-lin 1-nonlin 2-no                                               
   RPACOR =    1.500    partial core radius                                                         
   POMASS =   28.085; ZVAL   =    4.000    mass and valenz                                          
   RCORE  =    1.900    outmost cutoff radius                                                       
   RWIGS  =    2.480; RWIGS  =    1.312    wigner-seitz radius (au A)                               
   ENMAX  =  245.345; ENMIN  =  184.009 eV                                                          
   ICORE  =        2    local potential                                                             
   LCOR   =        T    correct aug charges                                                         
   LPAW   =        T    paw PP                                                                      
   EAUG   =  322.069                                                                                
   DEXC   =    0.000                                                                                
   RMAX   =    1.950    core radius for proj-oper                                                   
   RAUG   =    1.300    factor for augmentation sphere                                              
   RDEP   =    1.993    radius for radial grids                                                     
   RDEPT  =    1.837    core radius for aug-charge                                                  
                                                                                                    
   Atomic configuration                                                                             
    6 entries                                                                                       
     n  l   j            E        occ.                                                              
     1  0  0.50     -1785.8828   2.0000                                                             
     2  0  0.50      -139.4969   2.0000                                                             
     2  1  1.50       -95.5546   6.0000                                                             
     3  0  0.50       -10.8127   2.0000                                                             
     3  1  0.50        -4.0811   2.0000                                                             
     3  2  1.50        -4.0817   0.0000                                                             
   Description                                                                                      
     l       E           TYP  RCUT    TYP  RCUT                                                     
     0    -10.8127223     23  1.900                                                                 
     0     -7.6451159     23  1.900                                                                 
     1     -4.0811372     23  1.900                                                                 
     1      2.4879257     23  1.900                                                                 
     2     -4.0817478      7  1.900                                                                 
  local pseudopotential read in
  partial core-charges read in
  partial kinetic energy density read in
  atomic valenz-charges read in
  non local Contribution for L=           0  read in
    real space projection operators read in
  non local Contribution for L=           0  read in
    real space projection operators read in
  non local Contribution for L=           1  read in
    real space projection operators read in
  non local Contribution for L=           1  read in
    real space projection operators read in
    PAW grid and wavefunctions read in
 
   number of l-projection  operators is LMAX  =           4
   number of lm-projection operators is LMMAX =           8
 
 Optimization of the real space projectors (new method)

 maximal supplied QI-value         = 12.47
 optimisation between [QCUT,QGAM] = [ 12.47, 27.06] = [ 43.56,205.12] Ry 
 Optimized for a Real-space Cutoff    1.58 Angstroem

   l    n(q)    QCUT    max X(q) W(low)/X(q) W(high)/X(q)  e(spline) 
   0     13    12.472    14.688    0.45E-04    0.45E-04    0.25E-05
   0     13    12.472     7.308    0.94E-04    0.11E-03    0.61E-05
   1     12    12.472    45.102    0.34E-03    0.14E-03    0.21E-05
   1     12    12.472    30.691    0.31E-03    0.13E-03    0.20E-05
   2     12    12.472     7.156    0.86E-04    0.11E-03    0.17E-05
 WARNING: PSMAXN for non-local potential too small
          PSMAXN should be >   13.5545592237991       NTYP=           1
 Optimization of the real space projectors (new method)

 maximal supplied QI-value         = 19.84
 optimisation between [QCUT,QGAM] = [ 13.49, 26.99] = [ 50.98,203.92] Ry 
 Optimized for a Real-space Cutoff    1.07 Angstroem

   l    n(q)    QCUT    max X(q) W(low)/X(q) W(high)/X(q)  e(spline) 
   0      9    13.493   159.560    0.22E-03    0.15E-03    0.72E-07
   0      9    13.493   115.863    0.21E-03    0.15E-03    0.71E-07
   1      8    13.493    88.339    0.15E-03    0.11E-03    0.13E-06
   1      8    13.493    48.592    0.15E-03    0.10E-03    0.13E-06
  PAW_PBE Sn 08Apr2002                  :
 energy of atom  1       EATOM=  -94.0860
 kinetic energy error for atom=    0.0000 (will be added to EATOM!!)
  PAW_PBE Si 05Jan2001                  :
 energy of atom  2       EATOM= -103.0669
 kinetic energy error for atom=    0.0003 (will be added to EATOM!!)
 
 
 POSCAR: Sn+Si
  positions in direct lattice
  No initial velocities read in


 exchange-correlation table for PE
   RHO(1)=    0.500       N(1)  =     2000
   RHO(2)=  100.500       N(2)  =     4000
 


--------------------------------------------------------------------------------------------------------


 ion  position               nearest neighbor table
   1  0.995  0.667  0.000- 129 2.81 100 2.81  43 2.84 231 2.95
   2  0.828  0.667  0.170-  49 2.81 118 2.81 100 2.81 121 2.81
   3  0.535  0.387  0.535- 105 2.34 235 2.34 166 2.34
   4  0.516  0.791  0.890- 264 2.29 216 2.34 144 2.34
   5  0.669  0.561  0.890- 219 2.34 147 2.34 156 2.95
   6  0.662  0.333  0.340-  53 2.81 217 2.81 136 2.81 105 2.81
   7  0.054  0.484  0.890- 123 2.34 192 2.34  58 2.98
   8  0.828  0.000  0.170-  46 2.81  29 2.81 106 2.81 172 2.81
   9  0.662  0.000  0.340-  47 2.81  30 2.81 172 2.81 108 2.81
  10  0.328  0.667  0.000- 246 2.34  40 2.81  82 2.81
  11  0.162  0.667  0.170- 211 2.81 129 2.81  83 2.81  82 2.81
  12  0.995  0.667  0.340-  42 2.81 118 2.81  83 2.81  84 2.81
  13  0.328  0.333  0.000- 162 2.81  85 2.81  74 3.32 165 3.42  91 3.42
  14  0.477  0.599  0.890- 219 2.34 135 2.34  67 2.87
  15  0.995  0.333  0.340- 109 2.81  35 2.81  86 2.81 208 2.81
  16  0.323  0.830  0.890- 216 2.34 132 2.34
  17  0.162  0.000  0.170- 130 2.81  28 2.81  89 2.81  88 2.81
  18  0.995  0.000  0.340-  39 2.81  29 2.81  89 2.81  90 2.81
  19  0.169  0.061  0.890- 117 2.34 198 2.34 228 2.95
  20  0.708  0.753  0.890- 144 2.34  56 2.34 156 2.83  73 3.52
  21  0.328  0.667  0.340-  51 2.81 211 2.81  93 2.81  92 2.81
  22  0.662  0.333  0.000-  59 2.29  94 2.81  52 2.81
  23  0.131  0.868  0.890-  55 2.29 132 2.34 201 2.34
  24  0.328  0.333  0.340- 193 2.81  96 2.81  44 2.81  95 2.81
  25  0.592  0.176  0.890- 141 2.34 210 2.34  70 2.84
  26  0.495  0.000  0.170- 190 2.81  37 2.81  47 2.81  97 2.81
  27  0.150  0.464  0.535- 262 2.34 151 2.34  96 2.95  42 3.42
  28  0.078  0.917  0.085-  17 2.81 234 2.81  55 2.81 225 2.81
  29  0.912  0.917  0.255-   8 2.81  18 2.81 225 2.81 226 2.81
  30  0.745  0.917  0.425-   9 2.81 226 2.81  69 2.84 214 2.95
  31  0.458  0.003  0.819- 173 2.34 171 2.34 240 2.34 239 2.34
  32  0.227  0.849  0.535- 160 2.34 229 2.34  93 2.87
  33  0.266  0.041  0.535- 205 2.29 157 2.34 241 2.34
  34  0.078  0.250  0.085- 177 2.81 228 2.81 258 2.81 153 2.81
  35  0.912  0.250  0.255- 153 2.81 261 2.81  15 2.81  63 2.81
  36  0.804  0.734  0.535- 175 2.34 259 2.34  84 2.98
  37  0.412  0.917  0.085- 174 2.81  26 2.81 264 2.81  65 2.81
  38  0.458  0.003  0.535- 107 2.34 241 2.34 139 2.83 108 3.52
  39  0.078  0.917  0.425- 223 2.34  18 2.81  66 2.81
  40  0.412  0.583  0.085-  10 2.81 186 2.81  67 2.81  68 2.81
  41  0.881  0.118  0.535-  90 2.29 169 2.34 253 2.34
  42  0.078  0.583  0.425-  12 2.81 142 2.81  98 3.32 145 3.42  27 3.42
  43  0.092  0.676  0.890- 204 2.34 120 2.34   1 2.84
  44  0.245  0.250  0.255-  71 2.81 177 2.81  72 2.81  24 2.81
  45  0.073  0.080  0.535- 253 2.34 157 2.34
  46  0.745  0.917  0.085-   8 2.81 252 2.81 249 2.81  73 2.81
  47  0.578  0.917  0.255-   9 2.81  26 2.81 249 2.81  75 2.81
  48  0.919  0.311  0.535- 250 2.34 181 2.34 208 2.95
  49  0.745  0.583  0.085-   2 2.81 156 2.81  77 2.81  76 2.81
  50  0.419  0.811  0.535- 244 2.34 160 2.34 139 2.95
  51  0.412  0.583  0.425- 101 2.29  21 2.81  78 2.81
  52  0.745  0.250  0.085- 261 2.81  80 2.81  79 2.81  22 2.81
  53  0.578  0.250  0.255-   6 2.81  80 2.81  81 2.81 243 2.81
  54  0.342  0.426  0.535- 235 2.34 151 2.34  96 2.84
  55  0.162  0.833  0.000-  23 2.29  82 2.81  28 2.81
  56  0.804  0.734  0.819- 260 2.34 231 2.34  20 2.34 185 2.34
  57  0.208  0.253  0.606- 194 2.34 187 2.34 115 2.34 116 2.34
  58  0.162  0.500  0.000-  85 2.81 129 2.81 165 2.87   7 2.98
  59  0.631  0.368  0.890-  22 2.29 222 2.34 138 2.34
  60  0.828  0.500  0.340- 208 2.81 136 2.81 199 2.81 118 2.81
  61  0.977  0.099  0.890- 189 2.34 117 2.34 234 2.87
  62  0.016  0.291  0.890- 258 2.29 195 2.34 114 2.34
  63  0.828  0.167  0.340-  90 2.81 217 2.81  35 2.81 172 2.81
  64  0.823  0.330  0.890- 222 2.34 114 2.34
  65  0.328  0.833  0.170-  82 2.81  92 2.81 130 2.81  37 2.81
  66  0.162  0.833  0.340-  83 2.81  93 2.81 130 2.81  39 2.81
  67  0.495  0.500  0.000-  94 2.81  40 2.81  14 2.87  74 2.99
  68  0.328  0.500  0.170-  85 2.81  95 2.81 211 2.81  40 2.81
  69  0.842  0.926  0.535- 256 2.34 184 2.34  30 2.84
  70  0.495  0.167  0.000- 162 2.81  97 2.81  25 2.84  91 2.95
  71  0.328  0.167  0.170-  44 2.81  88 2.81 162 2.81 190 2.81
  72  0.162  0.167  0.340-  89 2.81  44 2.81 109 2.81 205 2.81
  73  0.828  0.833  0.000- 100 2.81  46 2.81 159 3.32 255 3.42 231 3.42  20 3.52
  74  0.439  0.407  0.890- 138 2.34 207 2.34  67 2.99  13 3.32
  75  0.495  0.833  0.340- 102 2.81  92 2.81  47 2.81 139 2.81
  76  0.828  0.500  0.000- 150 2.24 183 2.81  49 2.81
  77  0.662  0.500  0.170- 136 2.81  94 2.81 202 2.81  49 2.81
  78  0.495  0.500  0.340- 105 2.81  95 2.81 202 2.81  51 2.81
  79  0.828  0.167  0.000- 103 2.34 106 2.81  52 2.81
  80  0.662  0.167  0.170- 172 2.81  53 2.81  52 2.81  97 2.81
  81  0.495  0.167  0.340- 108 2.81 190 2.81  53 2.81 193 2.81
  82  0.245  0.750  0.085-  65 2.81  55 2.81  11 2.81  10 2.81
  83  0.078  0.750  0.255- 225 2.81  66 2.81  11 2.81  12 2.81
  84  0.912  0.750  0.425- 226 2.81  12 2.81 145 2.87  36 2.98
  85  0.245  0.417  0.085-  68 2.81  58 2.81 177 2.81  13 2.81
  86  0.078  0.417  0.255- 180 2.81 177 2.81 142 2.81  15 2.81
  87  0.727  0.349  0.535- 166 2.34 250 2.34 217 2.87
  88  0.245  0.083  0.085-  71 2.81 228 2.81  17 2.81 174 2.81
  89  0.078  0.083  0.255-  17 2.81 153 2.81  72 2.81  18 2.81
  90  0.912  0.083  0.425-  41 2.29  63 2.81  18 2.81
  91  0.400  0.214  0.890- 126 2.34 210 2.34  70 2.95  13 3.42
  92  0.412  0.750  0.255- 186 2.81  75 2.81  65 2.81  21 2.81
  93  0.245  0.750  0.425-  66 2.81  21 2.81  32 2.87  98 2.99
  94  0.578  0.417  0.085-  77 2.81  67 2.81  22 2.81 243 2.81
  95  0.412  0.417  0.255- 243 2.81  78 2.81  68 2.81  24 2.81
  96  0.245  0.417  0.425- 142 2.81  24 2.81  54 2.84  27 2.95
  97  0.578  0.083  0.085- 252 2.81  80 2.81  70 2.81  26 2.81
  98  0.189  0.657  0.535- 148 2.34 232 2.34  93 2.99  42 3.32
  99  0.573  0.580  0.535- 163 2.34 247 2.34
 100  0.912  0.750  0.085-  73 2.81 225 2.81   2 2.81   1 2.81
 101  0.381  0.618  0.535-  51 2.29 163 2.34 232 2.34
 102  0.578  0.750  0.425- 133 2.24  75 2.81 124 2.81
 103  0.785  0.137  0.890-  79 2.34 189 2.34 141 2.34
 104  0.766  0.541  0.535- 199 2.29 247 2.34 178 2.34
 105  0.578  0.417  0.425-   3 2.34  78 2.81   6 2.81
 106  0.912  0.083  0.085-  79 2.81 153 2.81   8 2.81 234 2.81
 107  0.554  0.984  0.606- 128 2.34 214 2.34  38 2.34 215 2.34
 108  0.578  0.083  0.425-  81 2.81   9 2.81 127 3.32 196 3.42 214 3.42  38 3.52
 109  0.078  0.250  0.425- 187 2.24  15 2.81  72 2.81
 110  0.958  0.003  0.677- 184 2.34 254 2.34 158 2.34 253 2.34
 111  0.842  0.926  0.819- 185 2.34 159 2.34 255 2.34 254 2.34
 112  0.328  0.000  0.340- 139 2.81 130 2.81 205 2.81 190 2.81
 113  0.035  0.387  0.677- 181 2.34 152 2.34 262 2.34 263 2.34
 114  0.919  0.311  0.819- 182 2.34  62 2.34 263 2.34  64 2.34
 115  0.304  0.234  0.535-  57 2.34 154 2.34 193 2.98
 116  0.189  0.157  0.677- 157 2.34 155 2.34 227 2.34  57 2.34
 117  0.073  0.080  0.819- 158 2.34  19 2.34  61 2.34 227 2.34
 118  0.912  0.583  0.255-   2 2.81  12 2.81 180 2.81  60 2.81
 119  0.112  0.772  0.677- 230 2.34 148 2.34 161 2.34 229 2.34
 120  0.996  0.695  0.819- 149 2.34 230 2.34 231 2.34  43 2.34
 121  0.745  0.750  0.255- 249 2.81 226 2.81   2 2.81 124 2.81
 122  0.266  0.541  0.677- 151 2.34 233 2.34 164 2.34 232 2.34
 123  0.150  0.464  0.819- 152 2.34 165 2.34   7 2.34 233 2.34
 124  0.662  0.667  0.340- 202 2.81 199 2.81 121 2.81 102 2.81
 125  0.419  0.311  0.677- 154 2.34 236 2.34 167 2.34 235 2.34
 126  0.304  0.234  0.819- 155 2.34 237 2.34  91 2.34 236 2.34
 127  0.689  0.157  0.535- 238 2.34 169 2.34 217 2.99 108 3.32
 128  0.573  0.080  0.677- 107 2.34 239 2.34 170 2.34 238 2.34
 129  0.078  0.583  0.085-  11 2.81   1 2.81  58 2.81 180 2.81
 130  0.245  0.917  0.255-  17 2.81 112 2.81  65 2.81  66 2.81
 131  0.342  0.926  0.677- 160 2.34 242 2.34 173 2.34 241 2.34
 132  0.227  0.849  0.819- 161 2.34  16 2.34 242 2.34  23 2.34
 133  0.612  0.772  0.535- 102 2.24 244 2.34 175 2.34
 134  0.496  0.695  0.677- 163 2.34 245 2.34 176 2.34 244 2.34
 135  0.381  0.618  0.819- 164 2.34 246 2.34  14 2.34 245 2.34
 136  0.745  0.417  0.255-  77 2.81  60 2.81 261 2.81   6 2.81
 137  0.650  0.464  0.677- 166 2.34 248 2.34 247 2.34 179 2.34
 138  0.535  0.387  0.819-  74 2.34 167 2.34 248 2.34  59 2.34
 139  0.412  0.917  0.425- 112 2.81  75 2.81  38 2.83  50 2.95
 140  0.804  0.234  0.677- 169 2.34 182 2.34 251 2.34 250 2.34
 141  0.689  0.157  0.819- 170 2.34  25 2.34 103 2.34 251 2.34
 142  0.162  0.500  0.340-  86 2.81  96 2.81 211 2.81  42 2.81
 143  0.727  0.849  0.677- 175 2.34 257 2.34 185 2.34 256 2.34
 144  0.612  0.772  0.819- 176 2.34  20 2.34   4 2.34 257 2.34
 145  0.996  0.695  0.535- 259 2.34 148 2.34  84 2.87  42 3.42
 146  0.881  0.618  0.677- 178 2.34 149 2.34 260 2.34 259 2.34
 147  0.766  0.541  0.819- 179 2.34 150 2.34 260 2.34   5 2.34
 148  0.092  0.676  0.606- 119 2.34 145 2.34 191 2.34  98 2.34
 149  0.977  0.599  0.748- 146 2.34 191 2.34 120 2.34 192 2.34
 150  0.862  0.522  0.890-  76 2.24 147 2.34 192 2.34
 151  0.246  0.445  0.606- 122 2.34  27 2.34 194 2.34  54 2.34
 152  0.131  0.368  0.748- 123 2.34 113 2.34 194 2.34 195 2.34
 153  0.995  0.167  0.170-  35 2.81 106 2.81  89 2.81  34 2.81
 154  0.400  0.214  0.606- 125 2.34 115 2.34 196 2.34 197 2.34
 155  0.285  0.137  0.748- 116 2.34 126 2.34 197 2.34 198 2.34
 156  0.662  0.667  0.000-  49 2.81 168 2.81  20 2.83   5 2.95
 157  0.169  0.061  0.606- 116 2.34  45 2.34  33 2.34 200 2.34
 158  0.054  0.984  0.748- 117 2.34 110 2.34 200 2.34 201 2.34
 159  0.939  0.907  0.890- 111 2.34 201 2.34 234 2.99  73 3.32
 160  0.323  0.830  0.606- 131 2.34  32 2.34  50 2.34 203 2.34
 161  0.208  0.753  0.748- 203 2.34 132 2.34 119 2.34 204 2.34
 162  0.412  0.250  0.085-  13 2.81  70 2.81  71 2.81 243 2.81
 163  0.477  0.599  0.606- 134 2.34  99 2.34 101 2.34 206 2.34
 164  0.362  0.522  0.748- 135 2.34 206 2.34 122 2.34 207 2.34
 165  0.246  0.445  0.890- 207 2.34 123 2.34  58 2.87  13 3.42
 166  0.631  0.368  0.606- 137 2.34 209 2.34  87 2.34   3 2.34
 167  0.516  0.291  0.748- 125 2.34 138 2.34 210 2.34 209 2.34
 168  0.578  0.750  0.085- 249 2.81 264 2.81 156 2.81 186 2.81
 169  0.785  0.137  0.606- 140 2.34 212 2.34  41 2.34 127 2.34
 170  0.669  0.061  0.748- 141 2.34 128 2.34 212 2.34 213 2.34
 171  0.554  0.984  0.890-  31 2.34 213 2.34 252 2.98
 172  0.745  0.083  0.255-  80 2.81   8 2.81   9 2.81  63 2.81
 173  0.439  0.907  0.748-  31 2.34 215 2.34 131 2.34 216 2.34
 174  0.328  0.000  0.000- 240 2.24  37 2.81  88 2.81
 175  0.708  0.753  0.606- 143 2.34  36 2.34 133 2.34 218 2.34
 176  0.592  0.676  0.748- 218 2.34 144 2.34 134 2.34 219 2.34
 177  0.162  0.333  0.170-  86 2.81  44 2.81  34 2.81  85 2.81
 178  0.862  0.522  0.606- 146 2.34 220 2.34 221 2.34 104 2.34
 179  0.746  0.445  0.748- 221 2.34 147 2.34 222 2.34 137 2.34
 180  0.995  0.500  0.170- 183 2.81  86 2.81 118 2.81 129 2.81
 181  0.016  0.291  0.606- 187 2.34 113 2.34 188 2.34  48 2.34
 182  0.900  0.214  0.748- 188 2.34 140 2.34 114 2.34 189 2.34
 183  0.912  0.417  0.085-  76 2.81 180 2.81 261 2.81 258 2.81
 184  0.939  0.907  0.606- 110 2.34 223 2.34  69 2.34 224 2.34
 185  0.823  0.830  0.748- 111 2.34 224 2.34 143 2.34  56 2.34
 186  0.495  0.667  0.170-  92 2.81  40 2.81 202 2.81 168 2.81
 187  0.112  0.272  0.535- 109 2.24 181 2.34  57 2.34
 188  0.996  0.195  0.677- 253 2.34 182 2.34 227 2.34 181 2.34
 189  0.881  0.118  0.819- 103 2.34 254 2.34 182 2.34  61 2.34
 190  0.412  0.083  0.255-  26 2.81  81 2.81  71 2.81 112 2.81
 191  0.073  0.580  0.677- 262 2.34 148 2.34 233 2.34 149 2.34
 192  0.958  0.503  0.819- 263 2.34 150 2.34 149 2.34   7 2.34
 193  0.412  0.250  0.425-  24 2.81  81 2.81 196 2.87 115 2.98
 194  0.227  0.349  0.677-  57 2.34 151 2.34 236 2.34 152 2.34
 195  0.112  0.272  0.819- 227 2.34 152 2.34  62 2.34 237 2.34
 196  0.496  0.195  0.535- 238 2.34 154 2.34 193 2.87 108 3.42
 197  0.381  0.118  0.677- 241 2.34 239 2.34 155 2.34 154 2.34
 198  0.266  0.041  0.819- 242 2.34  19 2.34 240 2.34 155 2.34
 199  0.745  0.583  0.425- 104 2.29 124 2.81  60 2.81
 200  0.150  0.964  0.677- 229 2.34 158 2.34 242 2.34 157 2.34
 201  0.035  0.887  0.819- 230 2.34 159 2.34 158 2.34  23 2.34
 202  0.578  0.583  0.255- 124 2.81 186 2.81  77 2.81  78 2.81
 203  0.304  0.734  0.677- 232 2.34 161 2.34 245 2.34 160 2.34
 204  0.189  0.657  0.819- 233 2.34 246 2.34  43 2.34 161 2.34
 205  0.245  0.083  0.425-  33 2.29 112 2.81  72 2.81
 206  0.458  0.503  0.677- 235 2.34 248 2.34 164 2.34 163 2.34
 207  0.342  0.426  0.819- 236 2.34 165 2.34  74 2.34 164 2.34
 208  0.912  0.417  0.425-  60 2.81  15 2.81 220 2.83  48 2.95
 209  0.612  0.272  0.677- 238 2.34 251 2.34 166 2.34 167 2.34
 210  0.496  0.195  0.819- 239 2.34 167 2.34  25 2.34  91 2.34
 211  0.245  0.583  0.255-  11 2.81  21 2.81  68 2.81 142 2.81
 212  0.766  0.041  0.677- 256 2.34 169 2.34 170 2.34 254 2.34
 213  0.650  0.964  0.819- 257 2.34 170 2.34 171 2.34 255 2.34
 214  0.650  0.964  0.535- 107 2.34 256 2.34  30 2.95 108 3.42
 215  0.535  0.887  0.677- 244 2.34 173 2.34 107 2.34 257 2.34
 216  0.419  0.811  0.819- 245 2.34  16 2.34   4 2.34 173 2.34
 217  0.745  0.250  0.425-   6 2.81  63 2.81  87 2.87 127 2.99
 218  0.689  0.657  0.677- 247 2.34 176 2.34 260 2.34 175 2.34
 219  0.573  0.580  0.819- 248 2.34  14 2.34   5 2.34 176 2.34
 220  0.958  0.503  0.535- 178 2.34 262 2.34 208 2.83
 221  0.842  0.426  0.677- 263 2.34 250 2.34 178 2.34 179 2.34
 222  0.727  0.349  0.819-  64 2.34 179 2.34 251 2.34  59 2.34
 223  0.035  0.887  0.535-  39 2.34 229 2.34 184 2.34
 224  0.919  0.811  0.677- 259 2.34 185 2.34 230 2.34 184 2.34
 225  0.995  0.833  0.170- 100 2.81  83 2.81  29 2.81  28 2.81
 226  0.828  0.833  0.340-  84 2.81 121 2.81  30 2.81  29 2.81
 227  0.092  0.176  0.748- 116 2.34 195 2.34 188 2.34 117 2.34
 228  0.162  0.167  0.000-  88 2.81  34 2.81 237 2.83  19 2.95
 229  0.131  0.868  0.606- 200 2.34 223 2.34  32 2.34 119 2.34
 230  0.016  0.791  0.748- 119 2.34 201 2.34 224 2.34 120 2.34
 231  0.900  0.714  0.890-  56 2.34 120 2.34   1 2.95  73 3.42
 232  0.285  0.637  0.606- 203 2.34  98 2.34 101 2.34 122 2.34
 233  0.169  0.561  0.748- 204 2.34 191 2.34 122 2.34 123 2.34
 234  0.995  0.000  0.000-  28 2.81 106 2.81  61 2.87 159 2.99
 235  0.439  0.407  0.606- 206 2.34   3 2.34  54 2.34 125 2.34
 236  0.323  0.330  0.748- 207 2.34 125 2.34 194 2.34 126 2.34
 237  0.208  0.253  0.890- 195 2.34 126 2.34 228 2.83
 238  0.592  0.176  0.606- 209 2.34 196 2.34 127 2.34 128 2.34
 239  0.477  0.099  0.748- 128 2.34 210 2.34 197 2.34  31 2.34
 240  0.362  0.022  0.890- 174 2.24  31 2.34 198 2.34
 241  0.362  0.022  0.606- 197 2.34  38 2.34 131 2.34  33 2.34
 242  0.246  0.945  0.748- 198 2.34 131 2.34 200 2.34 132 2.34
 243  0.495  0.333  0.170-  95 2.81 162 2.81  53 2.81  94 2.81
 244  0.516  0.791  0.606- 215 2.34  50 2.34 133 2.34 134 2.34
 245  0.400  0.714  0.748- 216 2.34 203 2.34 134 2.34 135 2.34
 246  0.285  0.637  0.890-  10 2.34 204 2.34 135 2.34
 247  0.669  0.561  0.606- 218 2.34 104 2.34  99 2.34 137 2.34
 248  0.554  0.484  0.748- 219 2.34 137 2.34 206 2.34 138 2.34
 249  0.662  0.833  0.170- 121 2.81 168 2.81  47 2.81  46 2.81
 250  0.823  0.330  0.606- 221 2.34  48 2.34  87 2.34 140 2.34
 251  0.708  0.253  0.748- 209 2.34 140 2.34 222 2.34 141 2.34
 252  0.662  0.000  0.000-  46 2.81  97 2.81 255 2.87 171 2.98
 253  0.977  0.099  0.606- 188 2.34  45 2.34  41 2.34 110 2.34
 254  0.862  0.022  0.748- 110 2.34 212 2.34 189 2.34 111 2.34
 255  0.746  0.945  0.890- 111 2.34 213 2.34 252 2.87  73 3.42
 256  0.746  0.945  0.606- 212 2.34  69 2.34 214 2.34 143 2.34
 257  0.631  0.868  0.748- 213 2.34 143 2.34 215 2.34 144 2.34
 258  0.995  0.333  0.000-  62 2.29  34 2.81 183 2.81
 259  0.900  0.714  0.606- 224 2.34 145 2.34 146 2.34  36 2.34
 260  0.785  0.637  0.748-  56 2.34 146 2.34 218 2.34 147 2.34
 261  0.828  0.333  0.170-  52 2.81  35 2.81 183 2.81 136 2.81
 262  0.054  0.484  0.606- 191 2.34  27 2.34 220 2.34 113 2.34
 263  0.939  0.407  0.748- 221 2.34 192 2.34 113 2.34 114 2.34
 264  0.495  0.833  0.000-   4 2.29 168 2.81  37 2.81
 
  LATTYP: Found a simple tetragonal cell.
 ALAT       =    19.4675998690
 C/A-ratio  =     0.9811303026
  
  Lattice vectors:
  
 A1 = (  19.4675998690,   0.0000000000,   0.0000000000)
 A2 = (   0.0000000000,  19.4675998690,   0.0000000000)
 A3 = (   0.0000000000,   0.0000000000,  19.1002521510)


Analysis of symmetry for initial positions (statically):
=====================================================================
 Subroutine PRICEL returns:
 Original cell was already a primitive cell.
 

 Routine SETGRP: Setting up the symmetry group for a 
 simple tetragonal supercell.


 Subroutine GETGRP returns: Found  1 space group operations
 (whereof  1 operations were pure point group operations)
 out of a pool of 16 trial point group operations.


The static configuration has the point symmetry C_1 .


Analysis of symmetry for dynamics (positions and initial velocities):
=====================================================================
 Subroutine PRICEL returns:
 Original cell was already a primitive cell.
 

 Routine SETGRP: Setting up the symmetry group for a 
 simple tetragonal supercell.


 Subroutine GETGRP returns: Found  1 space group operations
 (whereof  1 operations were pure point group operations)
 out of a pool of 16 trial point group operations.


The dynamic configuration has the point symmetry C_1 .


Analysis of structural, dynamic, and magnetic symmetry:
=====================================================================
 Subroutine PRICEL returns:
 Original cell was already a primitive cell.
 

 Routine SETGRP: Setting up the symmetry group for a 
 simple tetragonal supercell.


 Subroutine GETGRP returns: Found  1 space group operations
 (whereof  1 operations were pure point group operations)
 out of a pool of 16 trial point group operations.


The overall configuration has the point symmetry C_1 .


 Subroutine INISYM returns: Found  1 space group operations
 (whereof  1 operations are pure point group operations),
 and found     1 'primitive' translations


----------------------------------------------------------------------------------------

                                     Primitive cell                                     

  volume of cell :    7238.7558

  direct lattice vectors                    reciprocal lattice vectors
    19.467599869  0.000000000  0.000000000     0.051367401  0.000000000  0.000000000
     0.000000000 19.467599869  0.000000000     0.000000000  0.051367401  0.000000000
     0.000000000  0.000000000 19.100252151     0.000000000  0.000000000  0.052355330

  length of vectors
    19.467599869 19.467599869 19.100252151     0.051367401  0.051367401  0.052355330

  position of ions in fractional coordinates (direct lattice)
     0.995035112  0.666666687  0.000000000
     0.828368425  0.666666687  0.169872105
     0.534751117  0.387428582  0.534626484
     0.515520275  0.791274726  0.890053868
     0.669366360  0.560505331  0.890053868
     0.661701739  0.333333343  0.339744180
     0.053981781  0.483582318  0.890053868
     0.828368425  0.000000000  0.169872105
     0.661701739  0.000000000  0.339744180
     0.328368455  0.666666687  0.000000000
     0.161701739  0.666666687  0.169872105
     0.995035112  0.666666687  0.339744180
     0.328368455  0.333333343  0.000000000
     0.477058738  0.598966897  0.890053868
     0.995035112  0.333333343  0.339744180
     0.323212594  0.829736173  0.890053868
     0.161701739  0.000000000  0.169872105
     0.995035112  0.000000000  0.339744180
     0.169366360  0.060505390  0.890053868
     0.707827985  0.752813041  0.890053868
     0.328368455  0.666666687  0.339744180
     0.661701798  0.333333343  0.000000000
     0.130904883  0.868197739  0.890053868
     0.328368455  0.333333343  0.339744180
     0.592443347  0.175889939  0.890053868
     0.495035112  0.000000000  0.169872105
     0.150135711  0.464351684  0.534626484
     0.078368433  0.916666746  0.084936053
     0.911701798  0.916666746  0.254808098
     0.745035052  0.916666746  0.424680233
     0.457827955  0.002812982  0.818968296
     0.227058798  0.848967075  0.534626484
     0.265520334  0.041274667  0.534626484
     0.078368433  0.250000000  0.084936053
     0.911701798  0.250000000  0.254808098
     0.803981900  0.733582377  0.534626484
     0.411701769  0.916666746  0.084936053
     0.457828104  0.002813220  0.534626484
     0.078368381  0.916666746  0.424680233
     0.411701769  0.583333433  0.084936053
     0.880904973  0.118197799  0.534626484
     0.078368381  0.583333433  0.424680233
     0.092443302  0.675890028  0.890053868
     0.245035097  0.250000000  0.254808098
     0.073212624  0.079736233  0.534626484
     0.745035172  0.916666746  0.084936053
     0.578368545  0.916666746  0.254808098
     0.919366479  0.310505420  0.534626484
     0.745035172  0.583333433  0.084936053
     0.419366509  0.810505509  0.534626484
     0.411701798  0.583333433  0.424680233
     0.745035172  0.250000000  0.084936053
     0.578368545  0.250000000  0.254808098
     0.342443436  0.425890148  0.534626484
     0.161701769  0.833333313  0.000000000
     0.803981841  0.733582258  0.818968296
     0.207828015  0.252813190  0.605711937
     0.161701769  0.500000000  0.000000000
     0.630904853  0.368197650  0.890053868
     0.828368425  0.500000000  0.339744180
     0.977058649  0.098966919  0.890053868
     0.015520215  0.291274607  0.890053868
     0.828368425  0.166666672  0.339744180
     0.823212445  0.329736143  0.890053868
     0.328368425  0.833333313  0.169872105
     0.161701754  0.833333313  0.339744180
     0.495035112  0.500000000  0.000000000
     0.328368425  0.500000000  0.169872105
     0.842443466  0.925890088  0.534626484
     0.495035112  0.166666672  0.000000000
     0.328368425  0.166666672  0.169872105
     0.161701754  0.166666672  0.339744180
     0.828368545  0.833333313  0.000000000
     0.438597202  0.406659245  0.890053868
     0.495035201  0.833333313  0.339744180
     0.828368545  0.500000000  0.000000000
     0.661701858  0.500000000  0.169872105
     0.495035201  0.500000000  0.339744180
     0.828368545  0.166666672  0.000000000
     0.661701858  0.166666672  0.169872105
     0.495035201  0.166666672  0.339744180
     0.245035097  0.750000060  0.084936053
     0.078368433  0.750000060  0.254808098
     0.911701739  0.750000060  0.424680233
     0.245035097  0.416666716  0.084936053
     0.078368433  0.416666716  0.254808098
     0.727058828  0.348967016  0.534626484
     0.245035097  0.083333343  0.084936053
     0.078368433  0.083333343  0.254808098
     0.911701739  0.083333343  0.424680233
     0.400135636  0.214351475  0.890053868
     0.411701858  0.750000060  0.254808098
     0.245035127  0.750000060  0.424680233
     0.578368485  0.416666716  0.084936053
     0.411701858  0.416666716  0.254808098
     0.245035127  0.416666716  0.424680233
     0.578368485  0.083333343  0.084936053
     0.188597247  0.656659305  0.534626484
     0.573212683  0.579736233  0.534626484
     0.911701739  0.750000060  0.084936053
     0.380905002  0.618197799  0.534626484
     0.578368366  0.750000060  0.424680233
     0.784750998  0.137428433  0.890053868
     0.765520275  0.541274726  0.534626484
     0.578368366  0.416666716  0.424680233
     0.911701739  0.083333343  0.084936053
     0.553981960  0.983582437  0.605711937
     0.578368366  0.083333343  0.424680233
     0.078368381  0.250000000  0.424680233
     0.957827926  0.002813101  0.676797330
     0.842443287  0.925889969  0.818968296
     0.328368455  0.000000000  0.339744180
     0.034751058  0.387428522  0.676797330
     0.919366360  0.310505390  0.818968296
     0.303981870  0.233582407  0.534626484
     0.188597202  0.156659275  0.676797330
     0.073212504  0.079736114  0.818968296
     0.911701798  0.583333433  0.254808098
     0.111674115  0.772043943  0.676797330
     0.996289432  0.695120811  0.818968296
     0.745035052  0.750000060  0.254808098
     0.265520304  0.541274667  0.676797330
     0.150135651  0.464351535  0.818968296
     0.661701739  0.666666687  0.339744180
     0.419366449  0.310505420  0.676797330
     0.303981781  0.233582288  0.818968296
     0.688597262  0.156659335  0.534626484
     0.573212564  0.079736114  0.676797330
     0.078368433  0.583333433  0.084936053
     0.245035097  0.916666746  0.254808098
     0.342443436  0.925890148  0.676797330
     0.227058768  0.848966956  0.818968296
     0.611674190  0.772043943  0.534626484
     0.496289521  0.695120811  0.676797330
     0.380904853  0.618197680  0.818968296
     0.745035052  0.416666716  0.254808098
     0.650135636  0.464351594  0.676797330
     0.534750938  0.387428463  0.818968296
     0.411701798  0.916666746  0.424680233
     0.803981841  0.233582258  0.676797330
     0.688597143  0.156659126  0.818968296
     0.161701754  0.500000000  0.339744180
     0.727058828  0.848966956  0.676797330
     0.611674130  0.772043824  0.818968296
     0.996289611  0.695120871  0.534626484
     0.880904973  0.618197739  0.676797330
     0.765520275  0.541274607  0.818968296
     0.092443421  0.675890088  0.605711937
     0.977058768  0.598966956  0.747882783
     0.861674070  0.522043824  0.890053868
     0.246289551  0.445120901  0.605711937
     0.130904883  0.368197769  0.747882783
     0.995035052  0.166666672  0.169872105
     0.400135726  0.214351624  0.605711937
     0.284751028  0.137428492  0.747882783
     0.661701798  0.666666687  0.000000000
     0.169366479  0.060505509  0.605711937
     0.053981781  0.983582377  0.747882783
     0.938597083  0.906659245  0.890053868
     0.323212653  0.829736292  0.605711937
     0.207827985  0.752813160  0.747882783
     0.411701769  0.250000000  0.084936053
     0.477058858  0.598967075  0.605711937
     0.361674190  0.522043884  0.747882783
     0.246289521  0.445120782  0.890053868
     0.630904973  0.368197769  0.605711937
     0.515520275  0.291274607  0.747882783
     0.578368485  0.750000060  0.084936053
     0.784751117  0.137428522  0.605711937
     0.669366419  0.060505390  0.747882783
     0.553981781  0.983582258  0.890053868
     0.745035052  0.083333343  0.254808098
     0.438597292  0.906659305  0.747882783
     0.328368455  0.000000000  0.000000000
     0.707828104  0.752813220  0.605711937
     0.592443407  0.675890028  0.747882783
     0.161701739  0.333333343  0.169872105
     0.861674249  0.522043943  0.605711937
     0.746289551  0.445120782  0.747882783
     0.995035052  0.500000000  0.169872105
     0.015520453  0.291274726  0.605711937
     0.900135696  0.214351565  0.747882783
     0.911701739  0.416666716  0.084936053
     0.938597441  0.906659365  0.605711937
     0.823212743  0.829736233  0.747882783
     0.495035112  0.666666687  0.169872105
     0.111674175  0.272043973  0.534626484
     0.996289492  0.195120826  0.676797330
     0.880904794  0.118197694  0.818968296
     0.411701858  0.083333343  0.254808098
     0.073212624  0.579736233  0.676797330
     0.957827866  0.502813041  0.818968296
     0.411701798  0.250000000  0.424680233
     0.227058768  0.348967016  0.676797330
     0.111674078  0.272043884  0.818968296
     0.496289581  0.195120826  0.534626484
     0.380904913  0.118197694  0.676797330
     0.265520215  0.041274548  0.818968296
     0.745035052  0.583333433  0.424680233
     0.150135636  0.964351535  0.676797330
     0.034750938  0.887428463  0.818968296
     0.578368545  0.583333433  0.254808098
     0.303981811  0.733582377  0.676797330
     0.188597158  0.656659245  0.818968296
     0.245035127  0.083333343  0.424680233
     0.457828015  0.502813101  0.676797330
     0.342443317  0.425889969  0.818968296
     0.911701739  0.416666716  0.424680233
     0.611674190  0.272043884  0.676797330
     0.496289521  0.195120752  0.818968296
     0.245035097  0.583333433  0.254808098
     0.765520275  0.041274667  0.676797330
     0.650135636  0.964351535  0.818968296
     0.650135696  0.964351594  0.534626484
     0.534750998  0.887428522  0.676797330
     0.419366390  0.810505331  0.818968296
     0.745035052  0.250000000  0.424680233
     0.688597202  0.656659245  0.676797330
     0.573212504  0.579736054  0.818968296
     0.957828045  0.502813220  0.534626484
     0.842443407  0.425890088  0.676797330
     0.727058709  0.348966956  0.818968296
     0.034751177  0.887428522  0.534626484
     0.919366479  0.810505390  0.676797330
     0.995035052  0.833333313  0.169872105
     0.828368425  0.833333313  0.339744180
     0.092443354  0.175890058  0.747882783
     0.161701769  0.166666672  0.000000000
     0.130904928  0.868197858  0.605711937
     0.015520334  0.791274667  0.747882783
     0.900135577  0.714351535  0.890053868
     0.284751117  0.637428641  0.605711937
     0.169366449  0.560505450  0.747882783
     0.995035112  0.000000000  0.000000000
     0.438597292  0.406659365  0.605711937
     0.323212624  0.329736233  0.747882783
     0.207827926  0.252813071  0.890053868
     0.592443407  0.175890073  0.605711937
     0.477058798  0.098966949  0.747882783
     0.361674100  0.022043705  0.890053868
     0.361674249  0.022044063  0.605711937
     0.246289581  0.945120871  0.747882783
     0.495035112  0.333333343  0.169872105
     0.515520334  0.791274846  0.605711937
     0.400135666  0.714351654  0.747882783
     0.284750998  0.637428522  0.890053868
     0.669366539  0.560505509  0.605711937
     0.553981841  0.483582377  0.747882783
     0.661701858  0.833333313  0.169872105
     0.823212683  0.329736233  0.605711937
     0.707827985  0.252813101  0.747882783
     0.661701798  0.000000000  0.000000000
     0.977058828  0.098967016  0.605711937
     0.861674130  0.022043824  0.747882783
     0.746289492  0.945120752  0.890053868
     0.746289670  0.945120990  0.605711937
     0.630904973  0.868197858  0.747882783
     0.995035112  0.333333343  0.000000000
     0.900135815  0.714351654  0.605711937
     0.784751117  0.637428522  0.747882783
     0.828368425  0.333333343  0.169872105
     0.053981900  0.483582467  0.605711937
     0.938597143  0.406659305  0.747882783
     0.495035112  0.833333313  0.000000000

  ion indices of the primitive-cell ions
   primitive index   ion index
                 1           1
                 2           2
                 3           3
                 4           4
                 5           5
                 6           6
                 7           7
                 8           8
                 9           9
                10          10
                11          11
                12          12
                13          13
                14          14
                15          15
                16          16
                17          17
                18          18
                19          19
                20          20
                21          21
                22          22
                23          23
                24          24
                25          25
                26          26
                27          27
                28          28
                29          29
                30          30
                31          31
                32          32
                33          33
                34          34
                35          35
                36          36
                37          37
                38          38
                39          39
                40          40
                41          41
                42          42
                43          43
                44          44
                45          45
                46          46
                47          47
                48          48
                49          49
                50          50
                51          51
                52          52
                53          53
                54          54
                55          55
                56          56
                57          57
                58          58
                59          59
                60          60
                61          61
                62          62
                63          63
                64          64
                65          65
                66          66
                67          67
                68          68
                69          69
                70          70
                71          71
                72          72
                73          73
                74          74
                75          75
                76          76
                77          77
                78          78
                79          79
                80          80
                81          81
                82          82
                83          83
                84          84
                85          85
                86          86
                87          87
                88          88
                89          89
                90          90
                91          91
                92          92
                93          93
                94          94
                95          95
                96          96
                97          97
                98          98
                99          99
               100         100
               101         101
               102         102
               103         103
               104         104
               105         105
               106         106
               107         107
               108         108
               109         109
               110         110
               111         111
               112         112
               113         113
               114         114
               115         115
               116         116
               117         117
               118         118
               119         119
               120         120
               121         121
               122         122
               123         123
               124         124
               125         125
               126         126
               127         127
               128         128
               129         129
               130         130
               131         131
               132         132
               133         133
               134         134
               135         135
               136         136
               137         137
               138         138
               139         139
               140         140
               141         141
               142         142
               143         143
               144         144
               145         145
               146         146
               147         147
               148         148
               149         149
               150         150
               151         151
               152         152
               153         153
               154         154
               155         155
               156         156
               157         157
               158         158
               159         159
               160         160
               161         161
               162         162
               163         163
               164         164
               165         165
               166         166
               167         167
               168         168
               169         169
               170         170
               171         171
               172         172
               173         173
               174         174
               175         175
               176         176
               177         177
               178         178
               179         179
               180         180
               181         181
               182         182
               183         183
               184         184
               185         185
               186         186
               187         187
               188         188
               189         189
               190         190
               191         191
               192         192
               193         193
               194         194
               195         195
               196         196
               197         197
               198         198
               199         199
               200         200
               201         201
               202         202
               203         203
               204         204
               205         205
               206         206
               207         207
               208         208
               209         209
               210         210
               211         211
               212         212
               213         213
               214         214
               215         215
               216         216
               217         217
               218         218
               219         219
               220         220
               221         221
               222         222
               223         223
               224         224
               225         225
               226         226
               227         227
               228         228
               229         229
               230         230
               231         231
               232         232
               233         233
               234         234
               235         235
               236         236
               237         237
               238         238
               239         239
               240         240
               241         241
               242         242
               243         243
               244         244
               245         245
               246         246
               247         247
               248         248
               249         249
               250         250
               251         251
               252         252
               253         253
               254         254
               255         255
               256         256
               257         257
               258         258
               259         259
               260         260
               261         261
               262         262
               263         263
               264         264

----------------------------------------------------------------------------------------

 
 
 KPOINTS: Automatic KPOINTS generated             

Automatic generation of k-mesh.
 Grid dimensions read from file:
 generate k-points for:    2    2    2

 Generating k-lattice:

  Cartesian coordinates                     Fractional coordinates (reciprocal lattice)
     0.025683700  0.000000000  0.000000000     0.500000000  0.000000000  0.000000000
     0.000000000  0.025683700  0.000000000     0.000000000  0.500000000  0.000000000
     0.000000000  0.000000000  0.026177665     0.000000000  0.000000000  0.500000000

  Length of vectors
     0.025683700  0.025683700  0.026177665

  Shift w.r.t. Gamma in fractional coordinates (k-lattice)
     0.000000000  0.000000000  0.000000000

 
 Subroutine IBZKPT returns following result:
 ===========================================
 
 Found      8 irreducible k-points:
 
 Following reciprocal coordinates:
            Coordinates               Weight
  0.000000  0.000000  0.000000      1.000000
  0.500000  0.000000  0.000000      1.000000
  0.000000  0.500000  0.000000      1.000000
  0.500000  0.500000  0.000000      1.000000
  0.000000  0.000000  0.500000      1.000000
  0.500000  0.000000  0.500000      1.000000
  0.000000  0.500000  0.500000      1.000000
  0.500000  0.500000  0.500000      1.000000
 
 Following cartesian coordinates:
            Coordinates               Weight
  0.000000  0.000000  0.000000      1.000000
  0.025684  0.000000  0.000000      1.000000
  0.000000  0.025684  0.000000      1.000000
  0.025684  0.025684  0.000000      1.000000
  0.000000  0.000000  0.026178      1.000000
  0.025684  0.000000  0.026178      1.000000
  0.000000  0.025684  0.026178      1.000000
  0.025684  0.025684  0.026178      1.000000
 
 -----------------------------------------------------------------------------
|                                                                             |
|           W    W    AA    RRRRR   N    N  II  N    N   GGGG   !!!           |
|           W    W   A  A   R    R  NN   N  II  NN   N  G    G  !!!           |
|           W    W  A    A  R    R  N N  N  II  N N  N  G       !!!           |
|           W WW W  AAAAAA  RRRRR   N  N N  II  N  N N  G  GGG   !            |
|           WW  WW  A    A  R   R   N   NN  II  N   NN  G    G                |
|           W    W  A    A  R    R  N    N  II  N    N   GGGG   !!!           |
|                                                                             |
|     The number of bands has been changed from the values supplied in        |
|     the INCAR file. This is a result of running the parallel version.       |
|     The orbitals not found in the WAVECAR file will be initialized with     |
|     random numbers, which is usually adequate. For correlated               |
|     calculations, however, you should redo the groundstate calculation.     |
|     I found NBANDS = 634. Now, NBANDS = 636.                                |
|                                                                             |
 -----------------------------------------------------------------------------



--------------------------------------------------------------------------------------------------------




 Dimension of arrays:
   k-points           NKPTS =      8   k-points in BZ     NKDIM =      8   number of bands    NBANDS=    636
   number of dos      NEDOS =    301   number of ions     NIONS =    264
   non local maximal  LDIM  =      5   non local SUM 2l+1 LMDIM =     13
   total plane-waves  NPLWV = ******
   max r-space proj   IRMAX =   4602   max aug-charges    IRDMAX= 212976
   dimension x,y,z NGX =   126 NGY =  126 NGZ =  126
   dimension x,y,z NGXF=   252 NGYF=  252 NGZF=  252
   support grid    NGXF=   504 NGYF=  504 NGZF=  504
   ions per type =             108 156
   NGX,Y,Z   is equivalent  to a cutoff of  10.76, 10.76, 10.97 a.u.
   NGXF,Y,Z  is equivalent  to a cutoff of  21.52, 21.52, 21.93 a.u.

 SYSTEM =  Si and Ge interface calculation         
 POSCAR =  Sn+Si                                   

 Startparameter for this run:
   NWRITE =      2    write-flag & timer
   PREC   = normal    normal or accurate (medium, high low for compatibility)
   ISTART =      0    job   : 0-new  1-cont  2-samecut
   ICHARG =      2    charge: 1-file 2-atom 10-const
   ISPIN  =      2    spin polarized calculation?
   LNONCOLLINEAR =      F non collinear calculations
   LSORBIT =      F    spin-orbit coupling
   INIWAV =      1    electr: 0-lowe 1-rand  2-diag
   LASPH  =      T    aspherical Exc in radial PAW
 Electronic Relaxation 1
   ENCUT  =  700.0 eV  51.45 Ry    7.17 a.u.  42.00 42.00 41.20*2*pi/ulx,y,z
   ENINI  =  700.0     initial cutoff
   ENAUG  =  900.0 eV  augmentation charge cutoff
   NELM   =    100;   NELMIN=  2; NELMDL= -5     # of ELM steps 
   EDIFF  = 0.1E-06   stopping-criterion for ELM
   LREAL  =      T    real-space projection
   NLSPLINE    = F    spline interpolate recip. space projectors
   LCOMPAT=      F    compatible to vasp.4.4
   GGA_COMPAT  = T    GGA compatible to vasp.4.4-vasp.4.6
   LMAXPAW     = -100 max onsite density
   LMAXMIX     =    6 max onsite mixed and CHGCAR
   VOSKOWN=      0    Vosko Wilk Nusair interpolation
   ROPT   =   -0.00050  -0.00050
 Ionic relaxation
   EDIFFG = 0.1E-05   stopping-criterion for IOM
   NSW    =      0    number of steps for IOM
   NBLOCK =      1;   KBLOCK =      1    inner block; outer block 
   IBRION =     -1    ionic relax: 0-MD 1-quasi-New 2-CG
   NFREE  =      0    steps in history (QN), initial steepest desc. (CG)
   ISIF   =      2    stress and relaxation
   IWAVPR =     10    prediction:  0-non 1-charg 2-wave 3-comb
   ISYM   =      2    0-nonsym 1-usesym 2-fastsym
   LCORR  =      T    Harris-Foulkes like correction to forces

   POTIM  = 0.5000    time-step for ionic-motion
   TEIN   =    0.0    initial temperature
   TEBEG  =    0.0;   TEEND  =   0.0 temperature during run
   SMASS  =  -3.00    Nose mass-parameter (am)
   estimated Nose-frequenzy (Omega)   =  0.10E-29 period in steps = 0.13E+47 mass=  -0.866E-26a.u.
   SCALEE = 1.0000    scale energy and forces
   NPACO  =    256;   APACO  = 10.0  distance and # of slots for P.C.
   PSTRESS=    0.0 pullay stress

  Mass of Ions in am
   POMASS = 118.71 28.09
  Ionic Valenz
   ZVAL   =   4.00  4.00
  Atomic Wigner-Seitz radii
   RWIGS  =  -1.00 -1.00
  virtual crystal weights 
   VCA    =   1.00  1.00
   NELECT =    1056.0000    total number of electrons
   NUPDOWN=       1.0000    fix difference up-down

 DOS related values:
   EMIN   =  10.00;   EMAX   =-10.00  energy-range for DOS
   EFERMI =   0.00;   METHOD = LEGACY      
   ISMEAR =     0;   SIGMA  =   0.01  broadening in eV -4-tet -1-fermi 0-gaus

 Electronic relaxation 2 (details)
   IALGO  =     38    algorithm
   LDIAG  =      T    sub-space diagonalisation (order eigenvalues)
   LSUBROT=      F    optimize rotation matrix (better conditioning)
   TURBO    =      0    0=normal 1=particle mesh
   IRESTART =      0    0=no restart 2=restart with 2 vectors
   NREBOOT  =      0    no. of reboots
   NMIN     =      0    reboot dimension
   EREF     =   0.00    reference energy to select bands
   IMIX   =      4    mixing-type and parameters
     AMIX     =   0.60;   BMIX     =  1.00
     AMIX_MAG =   2.40;   BMIX_MAG =  1.00
     AMIN     =   0.10
     WC   =   100.;   INIMIX=   1;  MIXPRE=   1;  MAXMIX= -45

 Intra band minimization:
   WEIMIN = 0.0000     energy-eigenvalue tresh-hold
   EBREAK =  0.39E-10  absolut break condition
   DEPER  =   0.30     relativ break condition  

   TIME   =   0.40     timestep for ELM

  volume/ion in A,a.u.               =      27.42       185.04
  Fermi-wavevector in a.u.,A,eV,Ry     =   0.861803  1.628572 10.105114  0.742705
  Thomas-Fermi vector in A             =   1.979511
 
 Write flags
   LWAVE        =      F    write WAVECAR
   LDOWNSAMPLE  =      F    k-point downsampling of WAVECAR
   LCHARG       =      T    write CHGCAR
   LVTOT        =      F    write LOCPOT, total local potential
   LVHAR        =      T    write LOCPOT, Hartree potential only
   WRT_POTENTIAL=  hartree ionic  ! write potential to hdf5 file
   LELF         =      F    write electronic localiz. function (ELF)
   LORBIT       =      0    0 simple, 1 ext, 2 COOP (PROOUT), +10 PAW based schemes


 Dipole corrections
   LMONO      =      F    monopole corrections only (constant potential shift)
   LDIPOL     =      F    correct potential (dipole corrections)
   IDIPOL     =      0    1-x, 2-y, 3-z, 4-all directions 
   EPSILON    =  1.0000000 bulk dielectric constant
   LVACPOTAV  =      F  vacuum potentials using an averaging scheme for the charge density
   VACPOTFLAT =  0.1000000 required flatness to determine vacuum potential
 Exchange correlation treatment:
   GGA     = PE    functional components
   XC_C    = 1    coefficients multiplying the functional components
   LIBXC   =     F    Libxc                    
   VOSKOWN =     0    Vosko Wilk Nusair interpolation
   LHFCALC =     F    Hartree Fock is set to
   LHFONE  =     F    Hartree Fock one center treatment
   AEXX    =    0.0000 exact exchange contribution

 Parameters of functionals:
   PE:
     No parameter
 
 Van der Waals corrections
   IVDW    =     0    specifies the selected vdW correction

 Linear response parameters
   LEPSILON=     F    determine dielectric tensor
   LRPA    =     F    only Hartree local field effects (RPA)
   LNABLA  =     F    use nabla operator in PAW spheres
   LVEL    =     F    velocity operator in full k-point grid
   CSHIFT  =0.1000    complex shift for real part using Kramers Kronig
   OMEGAMAX=  -1.0    maximum frequency
   DEG_THRESHOLD= 0.2000000E-02 threshold for treating states as degnerate
   RTIME   =   -0.100 relaxation time in fs
  (WPLASMAI=    0.000 imaginary part of plasma frequency in eV, 0.658/RTIME)
   DFIELD  = 0.0000000 0.0000000 0.0000000 field for delta impulse in time
 
  Optional k-point grid parameters
   LKPOINTS_OPT  =     F    use optional k-point grid
   KPOINTS_OPT_MODE=     1    mode for optional k-point grid
 
 Orbital magnetization related:
   ORBITALMAG=     F  switch on orbital magnetization
   LCHIMAG   =     F  perturbation theory with respect to B field
   DQ        =  0.001000  dq finite difference perturbation B field
   LLRAUG    =     F  two centre corrections for induced B field
   LBONE     =     F  B-component reconstruction in AE one-centre
   LVGVCALC  =     T  calculate vGv susceptibility
   LVGVAPPL  =     F  apply vGv susceptibility instead of pGv for G=0

 Random number generation:
   RANDOM_GENERATOR = DEFAULT
   PCG_SEED         = not used


--------------------------------------------------------------------------------------------------------


 Static calculation
 charge density and potential will be updated during run
 spin polarized calculation
 Variant of blocked Davidson
 Davidson routine will perform the subspace rotation
 perform sub-space diagonalisation
    after iterative eigenvector-optimisation
 modified Broyden-mixing scheme, WC =      100.0
 initial mixing is a Kerker type mixing with AMIX =  0.6000 and BMIX =      1.0000
 Hartree-type preconditioning will be used
 using additional bands          108
 real space projection scheme for non local part
 use partial core corrections
 calculate Harris-corrections to forces 
   (improved forces if not selfconsistent)
 use gradient corrections 
 use of overlap-Matrix (Vanderbilt PP)
 Gauss-broadening in eV      SIGMA  =   0.01


--------------------------------------------------------------------------------------------------------


  energy-cutoff  :      700.00
  volume of cell :     7238.76
      direct lattice vectors                 reciprocal lattice vectors
    19.467599869  0.000000000  0.000000000     0.051367401  0.000000000  0.000000000
     0.000000000 19.467599869  0.000000000     0.000000000  0.051367401  0.000000000
     0.000000000  0.000000000 19.100252151     0.000000000  0.000000000  0.052355330

  length of vectors
    19.467599869 19.467599869 19.100252151     0.051367401  0.051367401  0.052355330


 
 k-points in units of 2pi/SCALE and weight: Automatic KPOINTS generated             
   0.00000000  0.00000000  0.00000000       0.125
   0.02568370  0.00000000  0.00000000       0.125
   0.00000000  0.02568370  0.00000000       0.125
   0.02568370  0.02568370  0.00000000       0.125
   0.00000000  0.00000000  0.02617766       0.125
   0.02568370  0.00000000  0.02617766       0.125
   0.00000000  0.02568370  0.02617766       0.125
   0.02568370  0.02568370  0.02617766       0.125
 
 k-points in reciprocal lattice and weights: Automatic KPOINTS generated             
   0.00000000  0.00000000  0.00000000       0.125
   0.50000000  0.00000000  0.00000000       0.125
   0.00000000  0.50000000  0.00000000       0.125
   0.50000000  0.50000000  0.00000000       0.125
   0.00000000  0.00000000  0.50000000       0.125
   0.50000000  0.00000000  0.50000000       0.125
   0.00000000  0.50000000  0.50000000       0.125
   0.50000000  0.50000000  0.50000000       0.125
 
 position of ions in fractional coordinates (direct lattice) 
   0.99503511  0.66666669  0.00000000
   0.82836843  0.66666669  0.16987211
   0.53475112  0.38742858  0.53462648
   0.51552028  0.79127473  0.89005387
   0.66936636  0.56050533  0.89005387
   0.66170174  0.33333334  0.33974418
   0.05398178  0.48358232  0.89005387
   0.82836843  0.00000000  0.16987211
   0.66170174  0.00000000  0.33974418
   0.32836846  0.66666669  0.00000000
   0.16170174  0.66666669  0.16987211
   0.99503511  0.66666669  0.33974418
   0.32836846  0.33333334  0.00000000
   0.47705874  0.59896690  0.89005387
   0.99503511  0.33333334  0.33974418
   0.32321259  0.82973617  0.89005387
   0.16170174  0.00000000  0.16987211
   0.99503511  0.00000000  0.33974418
   0.16936636  0.06050539  0.89005387
   0.70782799  0.75281304  0.89005387
   0.32836846  0.66666669  0.33974418
   0.66170180  0.33333334  0.00000000
   0.13090488  0.86819774  0.89005387
   0.32836846  0.33333334  0.33974418
   0.59244335  0.17588994  0.89005387
   0.49503511  0.00000000  0.16987211
   0.15013571  0.46435168  0.53462648
   0.07836843  0.91666675  0.08493605
   0.91170180  0.91666675  0.25480810
   0.74503505  0.91666675  0.42468023
   0.45782795  0.00281298  0.81896830
   0.22705880  0.84896707  0.53462648
   0.26552033  0.04127467  0.53462648
   0.07836843  0.25000000  0.08493605
   0.91170180  0.25000000  0.25480810
   0.80398190  0.73358238  0.53462648
   0.41170177  0.91666675  0.08493605
   0.45782810  0.00281322  0.53462648
   0.07836838  0.91666675  0.42468023
   0.41170177  0.58333343  0.08493605
   0.88090497  0.11819780  0.53462648
   0.07836838  0.58333343  0.42468023
   0.09244330  0.67589003  0.89005387
   0.24503510  0.25000000  0.25480810
   0.07321262  0.07973623  0.53462648
   0.74503517  0.91666675  0.08493605
   0.57836855  0.91666675  0.25480810
   0.91936648  0.31050542  0.53462648
   0.74503517  0.58333343  0.08493605
   0.41936651  0.81050551  0.53462648
   0.41170180  0.58333343  0.42468023
   0.74503517  0.25000000  0.08493605
   0.57836855  0.25000000  0.25480810
   0.34244344  0.42589015  0.53462648
   0.16170177  0.83333331  0.00000000
   0.80398184  0.73358226  0.81896830
   0.20782801  0.25281319  0.60571194
   0.16170177  0.50000000  0.00000000
   0.63090485  0.36819765  0.89005387
   0.82836843  0.50000000  0.33974418
   0.97705865  0.09896692  0.89005387
   0.01552022  0.29127461  0.89005387
   0.82836843  0.16666667  0.33974418
   0.82321245  0.32973614  0.89005387
   0.32836843  0.83333331  0.16987211
   0.16170175  0.83333331  0.33974418
   0.49503511  0.50000000  0.00000000
   0.32836843  0.50000000  0.16987211
   0.84244347  0.92589009  0.53462648
   0.49503511  0.16666667  0.00000000
   0.32836843  0.16666667  0.16987211
   0.16170175  0.16666667  0.33974418
   0.82836855  0.83333331  0.00000000
   0.43859720  0.40665925  0.89005387
   0.49503520  0.83333331  0.33974418
   0.82836855  0.50000000  0.00000000
   0.66170186  0.50000000  0.16987211
   0.49503520  0.50000000  0.33974418
   0.82836855  0.16666667  0.00000000
   0.66170186  0.16666667  0.16987211
   0.49503520  0.16666667  0.33974418
   0.24503510  0.75000006  0.08493605
   0.07836843  0.75000006  0.25480810
   0.91170174  0.75000006  0.42468023
   0.24503510  0.41666672  0.08493605
   0.07836843  0.41666672  0.25480810
   0.72705883  0.34896702  0.53462648
   0.24503510  0.08333334  0.08493605
   0.07836843  0.08333334  0.25480810
   0.91170174  0.08333334  0.42468023
   0.40013564  0.21435148  0.89005387
   0.41170186  0.75000006  0.25480810
   0.24503513  0.75000006  0.42468023
   0.57836848  0.41666672  0.08493605
   0.41170186  0.41666672  0.25480810
   0.24503513  0.41666672  0.42468023
   0.57836848  0.08333334  0.08493605
   0.18859725  0.65665930  0.53462648
   0.57321268  0.57973623  0.53462648
   0.91170174  0.75000006  0.08493605
   0.38090500  0.61819780  0.53462648
   0.57836837  0.75000006  0.42468023
   0.78475100  0.13742843  0.89005387
   0.76552028  0.54127473  0.53462648
   0.57836837  0.41666672  0.42468023
   0.91170174  0.08333334  0.08493605
   0.55398196  0.98358244  0.60571194
   0.57836837  0.08333334  0.42468023
   0.07836838  0.25000000  0.42468023
   0.95782793  0.00281310  0.67679733
   0.84244329  0.92588997  0.81896830
   0.32836846  0.00000000  0.33974418
   0.03475106  0.38742852  0.67679733
   0.91936636  0.31050539  0.81896830
   0.30398187  0.23358241  0.53462648
   0.18859720  0.15665928  0.67679733
   0.07321250  0.07973611  0.81896830
   0.91170180  0.58333343  0.25480810
   0.11167411  0.77204394  0.67679733
   0.99628943  0.69512081  0.81896830
   0.74503505  0.75000006  0.25480810
   0.26552030  0.54127467  0.67679733
   0.15013565  0.46435153  0.81896830
   0.66170174  0.66666669  0.33974418
   0.41936645  0.31050542  0.67679733
   0.30398178  0.23358229  0.81896830
   0.68859726  0.15665934  0.53462648
   0.57321256  0.07973611  0.67679733
   0.07836843  0.58333343  0.08493605
   0.24503510  0.91666675  0.25480810
   0.34244344  0.92589015  0.67679733
   0.22705877  0.84896696  0.81896830
   0.61167419  0.77204394  0.53462648
   0.49628952  0.69512081  0.67679733
   0.38090485  0.61819768  0.81896830
   0.74503505  0.41666672  0.25480810
   0.65013564  0.46435159  0.67679733
   0.53475094  0.38742846  0.81896830
   0.41170180  0.91666675  0.42468023
   0.80398184  0.23358226  0.67679733
   0.68859714  0.15665913  0.81896830
   0.16170175  0.50000000  0.33974418
   0.72705883  0.84896696  0.67679733
   0.61167413  0.77204382  0.81896830
   0.99628961  0.69512087  0.53462648
   0.88090497  0.61819774  0.67679733
   0.76552028  0.54127461  0.81896830
   0.09244342  0.67589009  0.60571194
   0.97705877  0.59896696  0.74788278
   0.86167407  0.52204382  0.89005387
   0.24628955  0.44512090  0.60571194
   0.13090488  0.36819777  0.74788278
   0.99503505  0.16666667  0.16987211
   0.40013573  0.21435162  0.60571194
   0.28475103  0.13742849  0.74788278
   0.66170180  0.66666669  0.00000000
   0.16936648  0.06050551  0.60571194
   0.05398178  0.98358238  0.74788278
   0.93859708  0.90665925  0.89005387
   0.32321265  0.82973629  0.60571194
   0.20782799  0.75281316  0.74788278
   0.41170177  0.25000000  0.08493605
   0.47705886  0.59896707  0.60571194
   0.36167419  0.52204388  0.74788278
   0.24628952  0.44512078  0.89005387
   0.63090497  0.36819777  0.60571194
   0.51552028  0.29127461  0.74788278
   0.57836848  0.75000006  0.08493605
   0.78475112  0.13742852  0.60571194
   0.66936642  0.06050539  0.74788278
   0.55398178  0.98358226  0.89005387
   0.74503505  0.08333334  0.25480810
   0.43859729  0.90665930  0.74788278
   0.32836846  0.00000000  0.00000000
   0.70782810  0.75281322  0.60571194
   0.59244341  0.67589003  0.74788278
   0.16170174  0.33333334  0.16987211
   0.86167425  0.52204394  0.60571194
   0.74628955  0.44512078  0.74788278
   0.99503505  0.50000000  0.16987211
   0.01552045  0.29127473  0.60571194
   0.90013570  0.21435157  0.74788278
   0.91170174  0.41666672  0.08493605
   0.93859744  0.90665937  0.60571194
   0.82321274  0.82973623  0.74788278
   0.49503511  0.66666669  0.16987211
   0.11167417  0.27204397  0.53462648
   0.99628949  0.19512083  0.67679733
   0.88090479  0.11819769  0.81896830
   0.41170186  0.08333334  0.25480810
   0.07321262  0.57973623  0.67679733
   0.95782787  0.50281304  0.81896830
   0.41170180  0.25000000  0.42468023
   0.22705877  0.34896702  0.67679733
   0.11167408  0.27204388  0.81896830
   0.49628958  0.19512083  0.53462648
   0.38090491  0.11819769  0.67679733
   0.26552022  0.04127455  0.81896830
   0.74503505  0.58333343  0.42468023
   0.15013564  0.96435153  0.67679733
   0.03475094  0.88742846  0.81896830
   0.57836855  0.58333343  0.25480810
   0.30398181  0.73358238  0.67679733
   0.18859716  0.65665925  0.81896830
   0.24503513  0.08333334  0.42468023
   0.45782801  0.50281310  0.67679733
   0.34244332  0.42588997  0.81896830
   0.91170174  0.41666672  0.42468023
   0.61167419  0.27204388  0.67679733
   0.49628952  0.19512075  0.81896830
   0.24503510  0.58333343  0.25480810
   0.76552028  0.04127467  0.67679733
   0.65013564  0.96435153  0.81896830
   0.65013570  0.96435159  0.53462648
   0.53475100  0.88742852  0.67679733
   0.41936639  0.81050533  0.81896830
   0.74503505  0.25000000  0.42468023
   0.68859720  0.65665925  0.67679733
   0.57321250  0.57973605  0.81896830
   0.95782804  0.50281322  0.53462648
   0.84244341  0.42589009  0.67679733
   0.72705871  0.34896696  0.81896830
   0.03475118  0.88742852  0.53462648
   0.91936648  0.81050539  0.67679733
   0.99503505  0.83333331  0.16987211
   0.82836843  0.83333331  0.33974418
   0.09244335  0.17589006  0.74788278
   0.16170177  0.16666667  0.00000000
   0.13090493  0.86819786  0.60571194
   0.01552033  0.79127467  0.74788278
   0.90013558  0.71435153  0.89005387
   0.28475112  0.63742864  0.60571194
   0.16936645  0.56050545  0.74788278
   0.99503511  0.00000000  0.00000000
   0.43859729  0.40665937  0.60571194
   0.32321262  0.32973623  0.74788278
   0.20782793  0.25281307  0.89005387
   0.59244341  0.17589007  0.60571194
   0.47705880  0.09896695  0.74788278
   0.36167410  0.02204371  0.89005387
   0.36167425  0.02204406  0.60571194
   0.24628958  0.94512087  0.74788278
   0.49503511  0.33333334  0.16987211
   0.51552033  0.79127485  0.60571194
   0.40013567  0.71435165  0.74788278
   0.28475100  0.63742852  0.89005387
   0.66936654  0.56050551  0.60571194
   0.55398184  0.48358238  0.74788278
   0.66170186  0.83333331  0.16987211
   0.82321268  0.32973623  0.60571194
   0.70782799  0.25281310  0.74788278
   0.66170180  0.00000000  0.00000000
   0.97705883  0.09896702  0.60571194
   0.86167413  0.02204382  0.74788278
   0.74628949  0.94512075  0.89005387
   0.74628967  0.94512099  0.60571194
   0.63090497  0.86819786  0.74788278
   0.99503511  0.33333334  0.00000000
   0.90013581  0.71435165  0.60571194
   0.78475112  0.63742852  0.74788278
   0.82836843  0.33333334  0.16987211
   0.05398190  0.48358247  0.60571194
   0.93859714  0.40665930  0.74788278
   0.49503511  0.83333331  0.00000000
 
 position of ions in cartesian coordinates  (Angst):
  19.37094542 12.97840031  0.00000000
  16.12634504 12.97840031  3.24460004
  10.41032078  7.54230461 10.21150065
  10.03594244 15.40421975 17.00025331
  13.03095646 10.91169351 17.00025331
  12.88174469  6.48920014  6.48919950
   1.05089571  9.41418707 17.00025331
  16.12634504  0.00000000  3.24460004
  12.88174469  0.00000000  6.48919950
   6.39254569 12.97840031  0.00000000
   3.14794475 12.97840031  3.24460004
  19.37094542 12.97840031  6.48919950
   6.39254569  6.48920014  0.00000000
   9.28718863 11.66044789 17.00025331
  19.37094542  6.48920014  6.48919950
   6.29217345 16.15297181 17.00025331
   3.14794475  0.00000000  3.24460004
  19.37094542  0.00000000  6.48919950
   3.29715653  1.17789472 17.00025331
  13.77971199 14.65546306 17.00025331
   6.39254569 12.97840031  6.48919950
  12.88174584  6.48920014  0.00000000
   2.54840388 16.90172619 17.00025331
   6.39254569  6.48920014  6.48919950
  11.53345002  3.42415495 17.00025331
   9.63714548  0.00000000  3.24460004
   2.92278195  9.03981278 10.21150065
   1.52564530 17.84530142  1.62230003
  17.74864580 17.84530142  4.86689892
  14.50404428 17.84530142  8.11149953
   8.91281144  0.05476201 15.64250096
   4.42028983 16.52735132 10.21150065
   5.16904362  0.80351870 10.21150065
   1.52564530  4.86689997  1.62230003
  17.74864580  4.86689997  4.86689892
  15.65159793 14.28108819 10.21150065
   8.01484530 17.84530142  1.62230003
   8.91281434  0.05476664 10.21150065
   1.52564428 17.84530142  8.11149953
   8.01484530 11.35610186  1.62230003
  17.14910554  2.30102746 10.21150065
   1.52564428 11.35610186  8.11149953
   1.79964921 13.15795662 17.00025331
   4.77024522  4.86689997  4.86689892
   1.42527407  1.55227308 10.21150065
  14.50404662 17.84530142  1.62230003
  11.25944741 17.84530142  4.86689892
  17.89785875  6.04479527 10.21150065
  14.50404662 11.35610186  1.62230003
   8.16405940 15.77859694 10.21150065
   8.01484587 11.35610186  8.11149953
  14.50404662  4.86689997  1.62230003
  11.25944741  4.86689997  4.86689892
   6.66655179  8.29105899 10.21150065
   3.14794534 16.22299949  0.00000000
  15.65159678 14.28108587 15.64250096
   4.04591264  4.92166602 11.56925073
   3.14794534  9.73379993  0.00000000
  12.28220323  7.16792452 17.00025331
  16.12634504  9.73379993  6.48919950
  19.02098683  1.92664838 17.00025331
   0.30214134  5.67041750 17.00025331
  16.12634504  3.24460008  6.48919950
  16.02597049  6.41917129 17.00025331
   6.39254511 16.22299949  3.24460004
   3.14794504 16.22299949  6.48919950
   9.63714548  9.73379993  0.00000000
   6.39254511  9.73379993  3.24460004
  16.40035231 18.02485776 10.21150065
   9.63714548  3.24460008  0.00000000
   6.39254511  3.24460008  3.24460004
   3.14794504  3.24460008  6.48919950
  16.12634738 16.22299949  0.00000000
   8.53843483  7.91667946 17.00025331
   9.63714721 16.22299949  6.48919950
  16.12634738  9.73379993  0.00000000
  12.88174700  9.73379993  3.24460004
   9.63714721  9.73379993  6.48919950
  16.12634738  3.24460008  0.00000000
  12.88174700  3.24460008  3.24460004
   9.63714721  3.24460008  6.48919950
   4.77024522 14.60070107  1.62230003
   1.52564530 14.60070107  4.86689892
  17.74864465 14.60070107  8.11149953
   4.77024522  8.11150091  1.62230003
   1.52564530  8.11150091  4.86689892
  14.15409034  6.79355023 10.21150065
   4.77024522  1.62230018  1.62230003
   1.52564530  1.62230018  4.86689892
  17.74864465  1.62230018  8.11149953
   7.78968045  4.17290875 17.00025331
   8.01484704 14.60070107  4.86689892
   4.77024581 14.60070107  8.11149953
  11.25944624  8.11150091  1.62230003
   8.01484704  8.11150091  4.86689892
   4.77024581  8.11150091  8.11149953
  11.25944624  1.62230018  1.62230003
   3.67153574 12.78358060 10.21150065
  11.15907515 11.28607301 10.21150065
[...]
     11.25945      4.86690      4.86690        -0.714852      0.728215     -0.725627
      6.66655      8.29106     10.21150        -0.148256     -0.156485     -3.002226
      3.14795     16.22300      0.00000         1.795393     -2.134238      6.714887
     15.65160     14.28109     15.64250         3.080896     -1.072833     -1.908572
      4.04591      4.92167     11.56925         0.017111     -0.208873     -0.576319
      3.14795      9.73380      0.00000        -0.491292      0.616767     -0.219451
     12.28220      7.16792     17.00025        -1.578467      2.414854     -4.077876
     16.12635      9.73380      6.48920        -0.173678      0.257510     -0.042180
     19.02099      1.92665     17.00025         0.672940     -0.064510      3.736199
      0.30214      5.67042     17.00025         0.171370     -1.326141      0.211702
     16.12635      3.24460      6.48920        -1.108334     -0.302540     -0.153214
     16.02597      6.41917     17.00025         0.065184      0.045712      3.987729
      6.39255     16.22300      3.24460        -0.638863      0.603545      0.578701
      3.14795     16.22300      6.48920         0.530642      0.360232     -0.651552
      9.63715      9.73380      0.00000        -0.322457     -0.003017     -0.554390
      6.39255      9.73380      3.24460        -0.724312      0.743494      0.749341
     16.40035     18.02486     10.21150        -0.121966     -0.080017     -3.088000
      9.63715      3.24460      0.00000        -0.677291      0.316367      0.586707
      6.39255      3.24460      3.24460         1.345743     -0.095527      0.061598
      3.14795      3.24460      6.48920        -0.092431      0.202919      1.429475
     16.12635     16.22300      0.00000         0.134821      0.048626     -1.561866
      8.53843      7.91668     17.00025        -0.519338     -0.157975      3.800865
      9.63715     16.22300      6.48920        -0.511739      0.794461      0.641349
     16.12635      9.73380      0.00000        -0.387397     -1.782976      3.929443
     12.88175      9.73380      3.24460        -0.075439     -0.024618      1.239918
      9.63715      9.73380      6.48920         0.637260      0.499984     -0.462140
     16.12635      3.24460      0.00000         2.028267      1.922782      5.103191
     12.88175      3.24460      3.24460         0.545533     -0.567277      0.708032
      9.63715      3.24460      6.48920        -1.363225     -0.019629     -0.241255
      4.77025     14.60070      1.62230        -0.055228     -0.119649     -0.175669
      1.52565     14.60070      4.86690        -0.704291      0.739231     -0.753541
     17.74864     14.60070      8.11150        -0.493069      0.636343      0.203437
      4.77025      8.11150      1.62230        -0.767778     -0.634930      0.944319
      1.52565      8.11150      4.86690         0.743353      0.555008     -0.707233
     14.15409      6.79355     10.21150         0.668670     -0.063195     -3.740178
      4.77025      1.62230      1.62230         0.099988      0.289539     -1.284501
      1.52565      1.62230      4.86690        -0.629106      0.620381     -0.577897
     17.74864      1.62230      8.11150         1.787984     -2.140204     -6.742927
      7.78968      4.17291     17.00025        -0.083571     -0.025414      3.154520
      8.01485     14.60070      4.86690         0.562327     -0.648459     -0.606893
      4.77025     14.60070      8.11150        -0.312740      0.000718      0.546368
     11.25945      8.11150      1.62230        -0.521259     -0.864255      0.732407
      8.01485      8.11150      4.86690         0.567003     -0.577854     -0.717172
      4.77025      8.11150      8.11150        -0.689236      0.318893     -0.588963
     11.25945      1.62230      1.62230         0.520622     -0.629027     -0.299574
      3.67154     12.78358     10.21150        -0.525157     -0.168462     -3.801230
     11.15908     11.28607     10.21150         0.044046      0.054365     -3.988165
     17.74864     14.60070      1.62230         0.776705      0.772055      0.904620
      7.41531     12.03483     10.21150        -1.581831      2.410708      4.085100
     11.25944     14.60070      8.11150        -0.379585     -1.793501     -3.923900
     15.27722      2.67540     17.00025        -2.202356     -1.705618     -2.495097
     14.90284     10.53732     10.21150         0.186417     -1.323235     -0.185238
     11.25944      8.11150      8.11150         2.025490      1.923649     -5.118433
     17.74864      1.62230      1.62230         1.152612     -0.221057      0.011276
     10.78470     19.14799     11.56925         3.079840     -1.050325      1.908339
     11.25944      1.62230      8.11150         0.135949      0.039557      1.563713
      1.52564      4.86690      8.11150         0.027558     -0.558262     -0.974263
     18.64661      0.05476     12.92700        -0.015831      0.043779      0.143397
     16.40035     18.02486     15.64250         0.147441      0.571647      0.196221
      6.39255      0.00000      6.48920        -0.202824      0.234933     -0.022909
      0.67652      7.54230     12.92700         0.064675     -0.021449      0.145595
     17.89786      6.04479     15.64250         0.055443      0.101744     -3.084442
      5.91780      4.54729     10.21150         3.538996     -0.328140     -2.687819
      3.67153      3.04978     12.92700        -0.435783     -2.342709      1.772743
      1.42527      1.55227     15.64250        -0.016504      0.033647     -3.022871
     17.74865     11.35610      4.86690         0.541387     -0.525617     -0.545527
      2.17403     15.02984     12.92700        -0.075782      0.009281      0.164648
     19.39536     13.53233     15.64250        -2.366620      0.715941     -1.671207
     14.50404     14.60070      4.86690        -0.313251      0.390696      0.310664
      5.16904     10.53732     12.92700         0.077419     -0.089054      0.162112
      2.92278      9.03981     15.64250         2.362419     -0.717082     -1.704643
     12.88174     12.97840      6.48920         0.282996     -0.213059     -0.295590
      8.16406      6.04480     12.92700         0.067172     -0.109323      0.090795
      5.91780      4.54729     15.64250        -2.453327     -0.006849     -1.201220
     13.40534      3.04978     10.21150        -0.282651      0.266095     -1.389152
     11.15907      1.55227     12.92700         0.513757      2.315275      1.613804
      1.52565     11.35610      1.62230        -0.458352     -0.385299      0.718082
      4.77025     17.84530      4.86690         0.437624      0.491998      0.433795
      6.66655     18.02486     12.92700        -0.034215     -0.089506      0.104249
      4.42029     16.52735     15.64250        -0.069780     -0.092694     -3.189385
     11.90783     15.02984     10.21150         0.962296      1.047874      4.076521
      9.66157     13.53233     12.92700        -0.024384     -0.022484      0.035348
      7.41530     12.03483     15.64250        -2.465652      0.083809     -1.186970
     14.50404      8.11150      4.86690         0.458113     -0.398997     -0.405098
     12.65658      9.03981     12.92700         0.089579      0.003439      0.046783
     10.41032      7.54230     15.64250         0.098411     -0.163105     -2.569883
      8.01485     17.84530      8.11150         0.092220      0.099159      0.047412
     15.65160      4.54729     12.92700        -0.018686      0.019400      0.090160
     13.40533      3.04978     15.64250         0.125653      0.169146     -2.430335
      3.14795      9.73380      6.48920         0.605644      0.622427     -0.760977
     14.15409     16.52735     12.92700        -0.126343      0.143672      0.070938
     11.90783     15.02984     15.64250        -0.054964      0.103431     -2.486729
     19.39537     13.53233     10.21150        -0.395717     -0.058500     -0.296154
     17.14911     12.03483     12.92700        -0.003267      0.040296      0.070625
     14.90284     10.53732     15.64250         2.422807     -0.191965     -1.198142
      1.79965     13.15796     11.56925        -2.244214      0.965387      1.374652
     19.02099     11.66045     14.28475        -0.148889      0.106905     -0.088531
     16.77473     10.16294     17.00025         0.968721      1.056307     -4.086974
      4.79467      8.66544     11.56925         0.056309      0.295661      3.391705
      2.54840      7.16793     14.28475         0.030809      0.102947     -0.076395
     19.37094      3.24460      3.24460         0.038401      0.015470     -0.018971
      7.78968      4.17291     11.56925        -0.059892     -0.182757     -0.130657
      5.54342      2.67540     14.28475         0.039133     -0.058802     -0.115558
     12.88175     12.97840      0.00000         0.089900      0.104842     -0.041455
      3.29716      1.17790     11.56925         0.011483      0.079742      3.094522
      1.05090     19.14799     14.28475         0.000870      0.026122     -0.093756
     18.27223     17.65048     17.00025        -0.282538      0.264448      1.395462
      6.29217     16.15297     11.56925        -0.002756      0.045347      3.050617
      4.04591     14.65547     14.28475        -0.018044      0.048395     -0.150469
      8.01485      4.86690      1.62230         0.599911      0.612966      0.766533
      9.28719     11.66045     11.56925        -0.054231     -0.100765      3.191915
      7.04093     10.16294     14.28475        -0.077633      0.030280     -0.155431
      4.79467      8.66543     17.00025        -0.399982     -0.056457      0.300950
     12.28221      7.16793     11.56925        -0.150498     -0.439311      2.913991
     10.03594      5.67042     14.28475         0.071041     -0.072716     -0.176773
     11.25945     14.60070      1.62230        -0.201289      0.222318      0.028518
     15.27722      2.67540     11.56925        -2.260105      0.350002      0.985096
     13.03096      1.17789     14.28475         0.061771     -0.055431     -0.065395
     10.78470     19.14799     17.00025         3.546421     -0.332370      2.687926
     14.50404      1.62230      4.86690        -0.110413      0.087870     -0.135315
      8.53844     17.65048     14.28475        -0.443467     -2.381786     -1.764374
      6.39255      0.00000      0.00000         0.029371     -0.566345      0.951087
     13.77971     14.65547     11.56925        -2.290173      0.237551      0.924914
     11.53345     13.15796     14.28475        -0.032687     -0.040012     -0.122877
      3.14794      6.48920      3.24460         0.129299     -0.116947      0.140695
     16.77473     10.16294     11.56925         2.347817     -0.423312      1.004287
     14.52847      8.66543     14.28475        -0.014815     -0.047028     -0.029049
     19.37094      9.73380      3.24460        -0.317551      0.405069     -0.320436
      0.30215      5.67042     11.56925         2.405669     -0.136146      1.085704
     17.52348      4.17291     14.28475         0.085707      0.020511     -0.046836
     17.74864      8.11150      1.62230         0.277519     -0.205717      0.309679
     18.27224     17.65048     11.56925         2.283856     -0.222459      0.867716
     16.02598     16.15297     14.28475         0.523890      2.287312     -1.643269
      9.63715     12.97840      3.24460         0.872444      0.076507     -0.009219
      2.17403      5.29604     10.21150        -2.420793      0.761895     -1.224553
     19.39537      3.79853     12.92700        -0.004910     -0.034182      0.038359
     17.14910      2.30103     15.64250        -0.143302     -0.427260     -2.910310
      8.01485      1.62230      4.86690        -0.317819     -0.524150      0.271480
      1.42527     11.28607     12.92700        -0.040896      0.039503      0.004962
     18.64661      9.78856     15.64250        -2.288439      0.233217     -0.927207
      8.01485      4.86690      8.11150        -0.162697     -0.258021      0.765247
      4.42029      6.79355     12.92700         0.336334      2.357229      1.752764
      2.17403      5.29604     15.64250         2.347238     -0.439644     -1.022360
      9.66157      3.79853     10.21150        -0.655883      0.096717     -0.744796
      7.41530      2.30103     12.92700        -0.023999      0.147936      0.058806
      5.16904      0.80352     15.64250         2.415225     -0.147723     -1.076722
     14.50404     11.35610      8.11150        -0.518189      1.428138     -4.044575
      2.92278     18.77361     12.92700         0.057348      0.018701      0.006588
      0.67652     17.27610     15.64250        -2.251151      0.356016     -0.985940
     11.25945     11.35610      4.86690        -0.013971      0.863894      0.008020
      5.91780     14.28109     12.92700         0.010076      0.042783      0.139007
      3.67153     12.78358     15.64250         2.276063     -0.213965     -0.876768
      4.77025      1.62230      8.11150         0.269996      0.579995     -4.008715
      8.91281      9.78856     12.92700        -0.044558      0.045066      0.174819
      6.66655      8.29106     15.64250        -2.236551      0.968024     -1.356023
     17.74864      8.11150      8.11150         0.718587     -0.092236      0.980251
     11.90783      5.29604     12.92700        -0.014362     -0.014639      0.152386
      9.66157      3.79853     15.64250         0.045546      0.308092     -3.395034
      4.77025     11.35610      4.86690        -0.575767     -0.355192      0.277414
     14.90284      0.80352     12.92700         0.005200     -0.068804      0.112640
     12.65658     18.77361     15.64250        -0.066979     -0.188762      0.114774
     12.65658     18.77361     10.21150         2.793831     -0.505289     -2.035232
     10.41032     17.27610     12.92700        -0.369391     -2.385302      1.806969
      8.16406     15.77859     15.64250         0.004283      0.077694     -3.089706
     14.50404      4.86690      8.11150        -0.842013      0.066269      0.769451
     13.40533     12.78358     12.92700         0.001200     -0.070810      0.111152
     11.15907     11.28607     15.64250         0.000541      0.051841     -3.064844
     18.64661      9.78857     10.21150         0.139068     -0.265375     -1.342253
     16.40035      8.29106     12.92700        -0.033415     -0.010501      0.092039
     14.15409      6.79355     15.64250        -0.069947     -0.089283     -3.198183
      0.67652     17.27610     10.21150        -0.599443     -0.872494      2.348431
     17.89786     15.77859     12.92700         0.135676     -0.074199      0.075562
     19.37094     16.22300      3.24460        -0.123149      0.087673      0.140366
     16.12635     16.22300      6.48920        -0.456129     -0.393780     -0.717555
      1.79965      3.42416     14.28475        -0.033062     -0.059752     -0.075101
      3.14795      3.24460      0.00000         0.709251     -0.094052     -0.989561
      2.54840     16.90173     11.56925        -2.457568      0.093496      1.181581
      0.30214     15.40422     14.28475         0.005595     -0.064352     -0.106711
     17.52348     13.90671     17.00025         2.822525     -0.523158      2.031017
      5.54342     12.40921     11.56925         0.100506     -0.169339      2.577994
      3.29716     10.91170     14.28475         0.125294     -0.103542     -0.097725
     19.37095      0.00000      0.00000        -0.844566      0.067829     -0.772153
      8.53844      7.91668     11.56925         0.111217      0.178603      2.443391
      6.29217      6.41917     14.28475        -0.027756      0.069832      0.029733
      4.04591      4.92166     17.00025         0.144243     -0.248423      1.342778
     11.53345      3.42416     11.56925         0.159466      0.574557     -0.202504
      9.28719      1.92665     14.28475         0.355578      2.403854     -1.743429
      7.04093      0.42914     17.00025        -2.438438      0.763601      1.223283
      7.04093      0.42914     11.56925        -0.054759      0.113075      2.488437
      4.79467     18.39923     14.28475        -0.019268     -0.022772     -0.032405
      9.63715      6.48920      3.24460        -0.559390     -0.352242     -0.283584
     10.03594     15.40422     11.56925         2.430322     -0.182899      1.189768
      7.78968     13.90671     14.28475         0.062479     -0.001130     -0.018718
      5.54342     12.40920     17.00025        -0.589063     -0.888471     -2.360178
     13.03096     10.91170     11.56925         0.032954      0.115151      3.068619
     10.78470      9.41419     14.28475         0.008851      0.042711     -0.137868
     12.88175     16.22300      3.24460         0.097860     -0.943686      0.132846
     16.02598      6.41917     11.56925         0.016775      0.034229      3.026256
     13.77971      4.92166     14.28475        -0.047294      0.050146     -0.172576
     12.88175      0.00000      0.00000        -0.180756     -0.240171     -0.759188
     19.02099      1.92665     11.56925        -0.079874     -0.089826      3.179861
     16.77473      0.42914     14.28475        -0.020743     -0.010595     -0.155963
     14.52847     18.39923     17.00025        -0.649936      0.108833      0.737065
     14.52847     18.39924     11.56925        -2.385261      0.695334      1.663662
     12.28221     16.90173     14.28475        -0.054610      0.048290     -0.065576
     19.37095      6.48920      0.00000        -0.534636      1.425165      4.026925
     17.52348     13.90671     11.56925         2.360122     -0.721584      1.710900
     15.27722     12.40920     14.28475        -0.341950     -2.358898     -1.838723
     16.12635      6.48920      3.24460        -0.011147      0.883288     -0.007322
      1.05090      9.41419     11.56925        -2.440322     -0.013750      1.191266
     18.27223      7.91668     14.28475        -0.007713     -0.036361     -0.140780
      9.63715     16.22300      0.00000         0.275121      0.582550      4.022841
 -----------------------------------------------------------------------------------
    total drift:                                0.108987      0.043509      0.281886


--------------------------------------------------------------------------------------------------------



  FREE ENERGIE OF THE ION-ELECTRON SYSTEM (eV)
  ---------------------------------------------------
  free  energy   TOTEN  =     -1120.40128746 eV

  energy  without entropy=    -1120.39693580  energy(sigma->0) =    -1120.39911163
 


--------------------------------------------------------------------------------------------------------


    POTLOK:  cpu time      3.0083: real time      3.0291


--------------------------------------------------------------------------------------------------------


     LOOP+:  cpu time   6097.1378: real time   6162.4093
    4ORBIT:  cpu time      0.0000: real time      0.0000

 total amount of memory used by VASP MPI-rank0   909726. kBytes
=======================================================================

   base      :      30000. kBytes
   nonlr-proj:      25427. kBytes
   fftplans  :      40888. kBytes
   grid      :      30643. kBytes
   one-center:        275. kBytes
   wavefun   :     782493. kBytes
 
  
  
 General timing and accounting informations for this job:
 ========================================================
  
                  Total CPU time used (sec):     6412.091
                            User time (sec):     6157.841
                          System time (sec):      254.250
                         Elapsed time (sec):     6486.561
  
                   Maximum memory used (kb):     1210524.
                   Average memory used (kb):          N/A
  
                          Minor page faults:       848157
                          Major page faults:         1616
                 Voluntary context switches:         4969
