<?xml version="1.0" encoding="ISO-8859-1"?>
<modeling>
 <generator>
  <i name="program" type="string">vasp </i>
  <i name="version" type="string">6.4.3  </i>
  <i name="subversion" type="string">19Mar24 (build Oct 22 2024 11:23:12) complex                          parallel </i>
  <i name="platform" type="string">LinuxIFC </i>
  <i name="date" type="string">2025 06 08 </i>
  <i name="time" type="string">03:29:19 </i>
 </generator>
 <incar>
  <i type="string" name="SYSTEM">Si and Ge interface calculation</i>
  <i type="int" name="ISTART">     0</i>
  <i type="logical" name="ADDGRID"> T  </i>
  <i type="int" name="ISPIN">     2</i>
  <i name="AMIX">      0.60000000</i>
  <i type="int" name="ICHARG">     2</i>
  <i type="int" name="NELM">   100</i>
  <i name="EDIFF">      0.00000010</i>
  <i name="ENCUT">    700.00000000</i>
  <i name="ENAUG">    900.00000000</i>
  <i type="int" name="NBANDS">   288</i>
  <i name="NUPDOWN">      1.00000000</i>
  <i name="NELECT">    480.00000000</i>
  <i type="string" name="LREAL">AUTO</i>
  <i type="int" name="ISMEAR">     0</i>
  <i name="SIGMA">      0.01000000</i>
  <i type="int" name="LMAXMIX">     6</i>
  <i type="logical" name="LWAVE"> F  </i>
  <i type="logical" name="LVTOT"> F  </i>
  <i type="logical" name="LVHAR"> T  </i>
  <i type="logical" name="LASPH"> T  </i>
  <i type="logical" name="LMIXTAU"> T  </i>
 </incar>
 <primitive_cell>
  <structure name="primitive_cell" >
   <crystal>
    <varray name="basis" >
     <v>      -6.65158987       0.00000000       0.00000000 </v>
     <v>       0.00000000       0.00000000       7.59944105 </v>
     <v>      -0.00000048      14.87340641       0.00000000 </v>
    </varray>
    <i name="volume">    751.82637774 </i>
    <varray name="rec_basis" >
     <v>      -0.15034000      -0.00000000       0.00000000 </v>
     <v>       0.00000000       0.00000000       0.13158863 </v>
     <v>       0.00000000       0.06723409       0.00000000 </v>
    </varray>
   </crystal>
   <varray name="positions" >
    <v>       0.37606925       0.00000000       0.65811950 </v>
    <v>       0.87606954       0.15980242       0.55811930 </v>
    <v>       0.37607002       0.31960484       0.45811909 </v>
    <v>       0.70940262       0.00000000       0.32478613 </v>
    <v>       0.20940287       0.15980242       0.22478597 </v>
    <v>       0.70940331       0.31960484       0.12478581 </v>
    <v>       0.04273594       0.00000000       0.99145281 </v>
    <v>       0.54273617       0.15980242       0.89145267 </v>
    <v>       0.04273659       0.31960484       0.79145253 </v>
    <v>       0.04273590       0.07990106       0.69145274 </v>
    <v>       0.54273641       0.23970348       0.59145248 </v>
    <v>       0.04273653       0.39950588       0.49145243 </v>
    <v>       0.37606916       0.07990106       0.35811949 </v>
    <v>       0.87606961       0.23970348       0.25811928 </v>
    <v>       0.37606981       0.39950588       0.15811914 </v>
    <v>       0.70940251       0.07990106       0.02478614 </v>
    <v>       0.20940292       0.23970348       0.92478597 </v>
    <v>       0.70940313       0.39950588       0.82478583 </v>
    <v>       0.66391158       0.77846545       0.91353130 </v>
    <v>       0.94962573       0.56856549       0.94210291 </v>
    <v>       0.30676889       0.67351550       0.92781711 </v>
    <v>       0.23534018       0.77846551       0.77067417 </v>
    <v>       0.52105409       0.56856543       0.79924578 </v>
    <v>       0.87819701       0.67351544       0.78495997 </v>
    <v>       0.80676830       0.77846551       0.62781703 </v>
    <v>       0.09248269       0.56856543       0.65638864 </v>
    <v>       0.44962585       0.67351544       0.64210284 </v>
    <v>       0.37819710       0.77846551       0.48495993 </v>
    <v>       0.66391134       0.56856543       0.51353145 </v>
    <v>       0.02105442       0.67351544       0.49924573 </v>
    <v>       0.94962576       0.77846545       0.34210274 </v>
    <v>       0.23533991       0.56856543       0.37067434 </v>
    <v>       0.59248281       0.67351544       0.35638857 </v>
    <v>       0.52105436       0.77846545       0.19924560 </v>
    <v>       0.80676854       0.56856549       0.22781718 </v>
    <v>       0.16391140       0.67351544       0.21353144 </v>
    <v>       0.09248292       0.77846551       0.05638850 </v>
    <v>       0.37819719       0.56856543       0.08495998 </v>
    <v>       0.73533976       0.67351550       0.07067430 </v>
    <v>       0.66391182       0.83094037       0.01353121 </v>
    <v>       0.94962585       0.62104040       0.04210293 </v>
    <v>       0.30676889       0.72599047       0.02781701 </v>
    <v>       0.23534006       0.83094037       0.87067419 </v>
    <v>       0.52105451       0.62104040       0.89924574 </v>
    <v>       0.87819749       0.72599047       0.88495988 </v>
    <v>       0.80676872       0.83094037       0.72781700 </v>
    <v>       0.09248310       0.62104028       0.75638860 </v>
    <v>       0.44962561       0.72599041       0.74210274 </v>
    <v>       0.37819725       0.83094031       0.58495992 </v>
    <v>       0.66391152       0.62104028       0.61353141 </v>
    <v>       0.02105439       0.72599041       0.59924567 </v>
    <v>       0.94962564       0.83094031       0.44210276 </v>
    <v>       0.23533982       0.62104028       0.47067434 </v>
    <v>       0.59248289       0.72599036       0.45638862 </v>
    <v>       0.52105477       0.83094037       0.29924557 </v>
    <v>       0.80676854       0.62104040       0.32781720 </v>
    <v>       0.16391182       0.72599041       0.31353140 </v>
    <v>       0.09248285       0.83094031       0.15638848 </v>
    <v>       0.37819702       0.62104040       0.18496007 </v>
    <v>       0.73534016       0.72599041       0.17067428 </v>
   </varray>
  </structure>
  <varray name="primitive_index" >
   <v type="int" >        1 </v>
   <v type="int" >        2 </v>
   <v type="int" >       21 </v>
   <v type="int" >        4 </v>
   <v type="int" >        5 </v>
   <v type="int" >       24 </v>
   <v type="int" >        7 </v>
   <v type="int" >        8 </v>
   <v type="int" >       27 </v>
   <v type="int" >       28 </v>
   <v type="int" >       29 </v>
   <v type="int" >       12 </v>
   <v type="int" >       31 </v>
   <v type="int" >       32 </v>
   <v type="int" >       15 </v>
   <v type="int" >       34 </v>
   <v type="int" >       35 </v>
   <v type="int" >       18 </v>
   <v type="int" >       79 </v>
   <v type="int" >       38 </v>
   <v type="int" >       81 </v>
   <v type="int" >       40 </v>
   <v type="int" >       83 </v>
   <v type="int" >       84 </v>
   <v type="int" >       85 </v>
   <v type="int" >       86 </v>
   <v type="int" >       45 </v>
   <v type="int" >       88 </v>
   <v type="int" >       47 </v>
   <v type="int" >       90 </v>
   <v type="int" >       49 </v>
   <v type="int" >       50 </v>
   <v type="int" >       93 </v>
   <v type="int" >       52 </v>
   <v type="int" >       95 </v>
   <v type="int" >       54 </v>
   <v type="int" >       97 </v>
   <v type="int" >       56 </v>
   <v type="int" >       57 </v>
   <v type="int" >       58 </v>
   <v type="int" >      101 </v>
   <v type="int" >       60 </v>
   <v type="int" >      103 </v>
   <v type="int" >       62 </v>
   <v type="int" >       63 </v>
   <v type="int" >      106 </v>
   <v type="int" >       65 </v>
   <v type="int" >      108 </v>
   <v type="int" >       67 </v>
   <v type="int" >      110 </v>
   <v type="int" >      111 </v>
   <v type="int" >      112 </v>
   <v type="int" >      113 </v>
   <v type="int" >       72 </v>
   <v type="int" >      115 </v>
   <v type="int" >       74 </v>
   <v type="int" >      117 </v>
   <v type="int" >       76 </v>
   <v type="int" >       77 </v>
   <v type="int" >      120 </v>
  </varray>
 </primitive_cell>
 <kpoints>
  <generation param="Gamma">
   <v type="int" name="divisions">       3        2        4 </v>
   <v name="usershift">      0.00000000       0.00000000       0.00000000 </v>
   <v name="genvec1">      0.33333333       0.00000000       0.00000000 </v>
   <v name="genvec2">      0.00000000       0.50000000       0.00000000 </v>
   <v name="genvec3">      0.00000000       0.00000000       0.25000000 </v>
   <v name="shift">      0.00000000       0.00000000       0.00000000 </v>
  </generation>
  <varray name="kpointlist" >
   <v>       0.00000000       0.00000000       0.00000000 </v>
   <v>       0.33333333      -0.00000000       0.00000000 </v>
   <v>       0.00000000       0.50000000       0.00000000 </v>
   <v>       0.33333333       0.50000000       0.00000000 </v>
   <v>       0.00000000       0.00000000       0.25000000 </v>
   <v>       0.33333333      -0.00000000       0.25000000 </v>
   <v>      -0.33333333       0.00000000       0.25000000 </v>
   <v>       0.00000000       0.50000000       0.25000000 </v>
   <v>       0.33333333       0.50000000       0.25000000 </v>
   <v>      -0.33333333       0.50000000       0.25000000 </v>
   <v>       0.00000000       0.00000000       0.50000000 </v>
   <v>       0.33333333      -0.00000000       0.50000000 </v>
   <v>       0.00000000       0.50000000       0.50000000 </v>
   <v>       0.33333333       0.50000000       0.50000000 </v>
  </varray>
  <varray name="weights" >
   <v>       0.04166667 </v>
   <v>       0.08333333 </v>
   <v>       0.04166667 </v>
   <v>       0.08333333 </v>
   <v>       0.08333333 </v>
   <v>       0.08333333 </v>
   <v>       0.08333333 </v>
   <v>       0.08333333 </v>
   <v>       0.08333333 </v>
   <v>       0.08333333 </v>
   <v>       0.04166667 </v>
   <v>       0.08333333 </v>
   <v>       0.04166667 </v>
   <v>       0.08333333 </v>
  </varray>
 </kpoints>
 <parameters>
  <separator name="general" >
   <i type="string" name="SYSTEM">Si and Ge interface calculation</i>
   <i type="logical" name="LCOMPAT"> F  </i>
  </separator>
  <separator name="electronic" >
   <i type="string" name="PREC">normal</i>
   <i name="ENMAX">    700.00000000</i>
   <i name="ENAUG">    900.00000000</i>
   <i name="EDIFF">      0.00000010</i>
   <i type="int" name="IALGO">    38</i>
   <i type="int" name="IWAVPR">    10</i>
   <i type="int" name="NBANDS">   288</i>
   <i type="int" name="NBANDSLOW">    -1</i>
   <i type="int" name="NBANDSHIGH">    -1</i>
   <i name="NELECT">    480.00000000</i>
   <i type="int" name="TURBO">     0</i>
   <i type="int" name="IRESTART">     0</i>
   <i type="int" name="NREBOOT">     0</i>
   <i type="int" name="NMIN">     0</i>
   <i name="EREF">      0.00000000</i>
   <separator name="electronic smearing" >
    <i type="int" name="ISMEAR">     0</i>
    <i name="SIGMA">      0.01000000</i>
    <i name="KSPACING">      0.50000000</i>
    <i type="logical" name="KGAMMA"> T  </i>
    <i type="logical" name="KBLOWUP"> F  </i>
   </separator>
   <separator name="electronic projectors" >
    <i type="logical" name="LREAL"> T  </i>
    <v name="ROPT">     -0.00050000     -0.00050000</v>
    <i type="int" name="LMAXPAW">  -100</i>
    <i type="int" name="LMAXMIX">     6</i>
    <i type="logical" name="NLSPLINE"> F  </i>
   </separator>
   <separator name="electronic startup" >
    <i type="int" name="ISTART">     0</i>
    <i type="int" name="ICHARG">     2</i>
    <i type="int" name="INIWAV">     1</i>
   </separator>
   <separator name="electronic spin" >
    <i type="int" name="ISPIN">     2</i>
    <i type="logical" name="LNONCOLLINEAR"> F  </i>
    <v name="MAGMOM">      0.00833333      0.00833333      0.00833333      0.00833333      0.00833333      0.00833333      0.00833333      0.00833333      0.00833333      0.00833333      0.00833333      0.00833333      0.00833333      0.00833333      0.00833333      0.00833333      0.00833333      0.00833333      0.00833333      0.00833333
      0.00833333      0.00833333      0.00833333      0.00833333      0.00833333      0.00833333      0.00833333      0.00833333      0.00833333      0.00833333      0.00833333      0.00833333      0.00833333      0.00833333      0.00833333      0.00833333      0.00833333      0.00833333      0.00833333      0.00833333
      0.00833333      0.00833333      0.00833333      0.00833333      0.00833333      0.00833333      0.00833333      0.00833333      0.00833333      0.00833333      0.00833333      0.00833333      0.00833333      0.00833333      0.00833333      0.00833333      0.00833333      0.00833333      0.00833333      0.00833333
      0.00833333      0.00833333      0.00833333      0.00833333      0.00833333      0.00833333      0.00833333      0.00833333      0.00833333      0.00833333      0.00833333      0.00833333      0.00833333      0.00833333      0.00833333      0.00833333      0.00833333      0.00833333      0.00833333      0.00833333
      0.00833333      0.00833333      0.00833333      0.00833333      0.00833333      0.00833333      0.00833333      0.00833333      0.00833333      0.00833333      0.00833333      0.00833333      0.00833333      0.00833333      0.00833333      0.00833333      0.00833333      0.00833333      0.00833333      0.00833333
      0.00833333      0.00833333      0.00833333      0.00833333      0.00833333      0.00833333      0.00833333      0.00833333      0.00833333      0.00833333      0.00833333      0.00833333      0.00833333      0.00833333      0.00833333      0.00833333      0.00833333      0.00833333      0.00833333      0.00833333
</v>
    <i name="NUPDOWN">      1.00000000</i>
    <i type="logical" name="LSORBIT"> F  </i>
    <v name="SAXIS">      0.00000000      0.00000000      1.00000000</v>
    <i type="logical" name="LSPIRAL"> F  </i>
    <v name="QSPIRAL">      0.00000000      0.00000000      0.00000000</v>
    <i type="logical" name="LZEROZ"> F  </i>
   </separator>
   <separator name="electronic exchange-correlation" >
    <i type="logical" name="LASPH"> T  </i>
   </separator>
   <separator name="electronic convergence" >
    <i type="int" name="NELM">   100</i>
    <i type="int" name="NELMDL">    -5</i>
    <i type="int" name="NELMIN">     2</i>
    <i name="ENINI">    700.00000000</i>
    <separator name="electronic convergence detail" >
     <i type="logical" name="LDIAG"> T  </i>
     <i type="logical" name="LSUBROT"> F  </i>
     <i name="WEIMIN">      0.00000000</i>
     <i name="EBREAK">      0.00000000</i>
     <i name="DEPER">      0.30000000</i>
     <i type="int" name="NRMM">     4</i>
     <i name="TIME">      0.40000000</i>
    </separator>
   </separator>
   <separator name="electronic mixer" >
    <i name="AMIX">      0.60000000</i>
    <i name="BMIX">      1.00000000</i>
    <i name="AMIN">      0.10000000</i>
    <i name="AMIX_MAG">      2.40000000</i>
    <i name="BMIX_MAG">      1.00000000</i>
    <separator name="electronic mixer details" >
     <i type="int" name="IMIX">     4</i>
     <i type="logical" name="MIXFIRST"> F  </i>
     <i type="int" name="MAXMIX">   -45</i>
     <i name="WC">    100.00000000</i>
     <i type="int" name="INIMIX">     1</i>
     <i type="int" name="MIXPRE">     1</i>
     <i type="int" name="MREMOVE">     5</i>
    </separator>
   </separator>
   <separator name="electronic dipolcorrection" >
    <i type="logical" name="LDIPOL"> F  </i>
    <i type="logical" name="LMONO"> F  </i>
    <i type="int" name="IDIPOL">     0</i>
    <i name="EPSILON">      1.00000000</i>
    <v name="DIPOL">   -100.00000000   -100.00000000   -100.00000000</v>
    <i name="EFIELD">      0.00000000</i>
    <i type="logical" name="LVACPOTAV"> F  </i>
   </separator>
  </separator>
  <separator name="grids" >
   <i type="int" name="NGX">    90</i>
   <i type="int" name="NGY">   108</i>
   <i type="int" name="NGZ">    50</i>
   <i type="int" name="NGXF">   180</i>
   <i type="int" name="NGYF">   216</i>
   <i type="int" name="NGZF">   100</i>
   <i type="logical" name="ADDGRID"> T  </i>
  </separator>
  <separator name="ionic" >
   <i type="int" name="NSW">     0</i>
   <i type="int" name="IBRION">    -1</i>
   <i type="int" name="MDALGO">     0</i>
   <i type="int" name="ISIF">     2</i>
   <i name="PSTRESS">      0.00000000</i>
   <i name="EDIFFG">      0.00000100</i>
   <i type="int" name="NFREE">     0</i>
   <i name="POTIM">      0.50000000</i>
   <i name="SMASS">     -3.00000000</i>
   <i name="SCALEE">      1.00000000</i>
  </separator>
  <separator name="ionic md" >
   <i name="TEBEG">      0.00010000</i>
   <i name="TEEND">      0.00010000</i>
   <i type="int" name="NBLOCK">     1</i>
   <i type="int" name="KBLOCK">     1</i>
   <i type="int" name="NPACO">   256</i>
   <i name="APACO">     10.00000000</i>
  </separator>
  <separator name="symmetry" >
   <i type="int" name="ISYM">     2</i>
   <i name="SYMPREC">      0.00001000</i>
  </separator>
  <separator name="dos" >
   <i type="int" name="LORBIT">     0</i>
   <v name="RWIGS">     -1.00000000     -1.00000000</v>
   <i type="int" name="NEDOS">   301</i>
   <i name="EMIN">     10.00000000</i>
   <i name="EMAX">    -10.00000000</i>
   <i name="EFERMI">      0.00000000</i>
  </separator>
  <separator name="writing" >
   <i type="int" name="NWRITE">     2</i>
   <i type="logical" name="LWAVE"> F  </i>
   <i type="logical" name="LDOWNSAMPLE"> F  </i>
   <i type="logical" name="LCHARG"> T  </i>
   <i type="logical" name="LPARD"> F  </i>
   <i type="logical" name="LVTOT"> F  </i>
   <i type="logical" name="LVHAR"> T  </i>
   <i type="logical" name="LELF"> F  </i>
   <i type="logical" name="LOPTICS"> F  </i>
   <v name="STM">      0.00000000      0.00000000      0.00000000      0.00000000      0.00000000      0.00000000      0.00000000</v>
  </separator>
  <separator name="performance" >
   <i type="int" name="NPAR">     4</i>
   <i type="int" name="NSIM">     4</i>
   <i type="int" name="NBLK">    -1</i>
   <i type="logical" name="LPLANE"> T  </i>
   <i type="logical" name="LSCALAPACK"> T  </i>
   <i type="logical" name="LSCAAWARE"> F  </i>
   <i type="logical" name="LSCALU"> F  </i>
   <i type="logical" name="LASYNC"> F  </i>
   <i type="logical" name="LORBITALREAL"> F  </i>
  </separator>
  <separator name="miscellaneous" >
   <i type="int" name="IDIOT">     3</i>
   <i type="int" name="PHON_NSTRUCT">    -1</i>
   <i type="logical" name="LMUSIC"> F  </i>
   <v name="POMASS">     28.08500000     12.01100000</v>
   <v name="DARWINR">      0.00000000      0.00000000</v>
   <v name="DARWINV">      1.00000000      1.00000000</v>
   <i type="logical" name="LCORR"> T  </i>
  </separator>
  <i type="logical" name="GGA_COMPAT"> T  </i>
  <i type="logical" name="LBERRY"> F  </i>
  <i type="int" name="ICORELEVEL">     0</i>
  <i type="logical" name="LDAU"> F  </i>
  <i type="int" name="I_CONSTRAINED_M">     0</i>
  <separator name="electronic exchange-correlation" >
   <i type="string" name="GGA    ">PE</i>
   <i type="string" name="XC_C">1</i>
   <i type="int" name="VOSKOWN">     0</i>
   <i type="logical" name="LHFCALC"> F  </i>
   <i type="string" name="PRECFOCK"></i>
   <i type="logical" name="LSYMGRAD"> F  </i>
   <i type="logical" name="LHFONE"> F  </i>
   <i type="logical" name="LRHFCALC"> F  </i>
   <i type="logical" name="LTHOMAS"> F  </i>
   <i type="logical" name="LMODELHF"> F  </i>
   <i type="logical" name="LFOCKACE"> F  </i>
   <i name="ENCUT4O">     -1.00000000</i>
   <i type="int" name="EXXOEP">     0</i>
   <i type="int" name="FOURORBIT">     0</i>
   <i name="AEXX">      0.00000000</i>
   <i name="HFALPHA">      0.00000000</i>
   <i name="MCALPHA">      0.00000000</i>
   <i name="ALDAX">      1.00000000</i>
   <i name="AGGAX">      1.00000000</i>
   <i name="AMGGAX">      1.00000000</i>
   <i name="ALDAC">      1.00000000</i>
   <i name="AGGAC">      1.00000000</i>
   <i name="AMGGAC">      1.00000000</i>
   <i type="int" name="NKREDX">     1</i>
   <i type="int" name="NKREDY">     1</i>
   <i type="int" name="NKREDZ">     1</i>
   <i type="logical" name="SHIFTRED"> F  </i>
   <i type="logical" name="ODDONLY"> F  </i>
   <i type="logical" name="EVENONLY"> F  </i>
   <i type="int" name="LMAXFOCK">     0</i>
   <i type="int" name="NMAXFOCKAE">     0</i>
   <i type="logical" name="LFOCKAEDFT"> F  </i>
   <i name="HFSCREEN">      0.00000000</i>
   <i name="HFSCREENC">      0.00000000</i>
   <i type="int" name="NBANDSGWLOW">     0</i>
  </separator>
  <separator name="vdW DFT" >
   <i type="logical" name="LUSE_VDW"> F  </i>
   <i type="int" name="IVDW_NL">    -1</i>
   <i type="logical" name="LSPIN_VDW"> F  </i>
   <i name="ZAB_VDW">     -0.84910000</i>
   <i name="GAMMA_VDW">      1.39626340</i>
   <i name="ALPHA_VDW">      0.00000000</i>
   <i name="PARAM1">      0.12340000</i>
   <i name="PARAM2">      1.00000000</i>
   <i name="BPARAM">      6.30000000</i>
   <i name="CPARAM">      0.00930000</i>
  </separator>
  <separator name="model GW" >
   <i type="int" name="MODEL_GW">     0</i>
   <i name="MODEL_EPS0">      7.51826378</i>
   <i name="MODEL_ALPHA">      1.00000000</i>
  </separator>
  <separator name="linear response parameters" >
   <i type="logical" name="LEPSILON"> F  </i>
   <i type="logical" name="LRPA"> F  </i>
   <i type="logical" name="LNABLA"> F  </i>
   <i type="logical" name="LVEL"> F  </i>
   <i name="CSHIFT">      0.10000000</i>
   <i name="OMEGAMAX">     -1.00000000</i>
   <i name="DEG_THRESHOLD">      0.00200000</i>
   <i name="RTIME">     -0.10000000</i>
   <i name="WPLASMAI">      0.00000000</i>
   <v name="DFIELD">      0.00000000      0.00000000      0.00000000</v>
   <v name="WPLASMA">      0.00000000      0.00000000      0.00000000      0.00000000      0.00000000      0.00000000      0.00000000      0.00000000      0.00000000</v>
  </separator>
  <separator name="orbital magnetization" >
   <i type="logical" name="NUCIND"> F  </i>
   <v name="MAGPOS">      0.00000000      0.00000000      0.00000000</v>
   <i type="logical" name="LNICSALL"> T  </i>
   <i type="logical" name="ORBITALMAG"> F  </i>
   <i type="logical" name="LMAGBLOCH"> F  </i>
   <i type="logical" name="LCHIMAG"> F  </i>
   <i type="logical" name="LGAUGE"> T  </i>
   <i type="int" name="MAGATOM">     0</i>
   <v name="MAGDIPOL">      0.00000000      0.00000000      0.00000000</v>
   <v name="AVECCONST">      0.00000000      0.00000000      0.00000000</v>
  </separator>
  <separator name="response functions" >
   <i type="logical" name="LALL_IN_ONE"> F  </i>
   <i type="int" name="IALL_IN_ONE">    -1</i>
   <i type="int" name="NBANDS_WAVE">    -1</i>
   <i type="logical" name="LFINITE_TEMPERATURE"> F  </i>
   <i type="logical" name="LADDER"> F  </i>
   <i type="logical" name="LRPAFORCE"> F  </i>
   <i type="logical" name="LFXC"> F  </i>
   <i type="logical" name="LHARTREE"> T  </i>
   <i type="int" name="IBSE">     0</i>
   <v type="int" name="KPOINT">    -1     0     0     0</v>
   <i type="logical" name="LTCTC"> F  </i>
   <i type="logical" name="LTCTE"> F  </i>
   <i type="logical" name="LTETE"> F  </i>
   <i type="logical" name="LTRIPLET"> F  </i>
   <i type="logical" name="LFXCEPS"> F  </i>
   <i type="logical" name="LFXHEG"> F  </i>
   <i type="int" name="NATURALO">     2</i>
   <i type="logical" name="LHOLEGF"> F  </i>
   <i type="logical" name="L2ORDER"> F  </i>
   <i type="logical" name="LDMP1"> F  </i>
   <i type="logical" name="LMP2LT"> F  </i>
   <i type="logical" name="LSMP2LT"> F  </i>
   <i type="logical" name="LGWLF"> F  </i>
   <i name="ENCUTGW">     -1.60000002</i>
   <i name="ENCUTGWSOFT">     -1.60000002</i>
   <i name="ENCUTLF">     -1.00000000</i>
   <i type="logical" name="ESF_SPLINES"> F  </i>
   <i name="ESF_CONV">      0.01000000</i>
   <i type="int" name="ESF_NINTER">    15</i>
   <i type="int" name="LMAXMP2">    -1</i>
   <i name="SCISSOR">      0.00000000</i>
   <i type="int" name="NOMEGA">     0</i>
   <i type="int" name="NOMEGAR">     0</i>
   <i type="int" name="NBANDSGW">    -1</i>
   <i type="int" name="NBANDSO">    -1</i>
   <i type="int" name="NBANDSV">    -1</i>
   <i type="int" name="NELMGW">     1</i>
   <i type="int" name="NELMHF">     1</i>
   <i type="int" name="DIM">     3</i>
   <i type="int" name="IESPILON">     4</i>
   <i type="int" name="ANTIRES">     0</i>
   <i name="OMEGAMAX">    -30.00000000</i>
   <i name="OMEGAMIN">    -30.00000000</i>
   <i name="OMEGATL">   -200.00000000</i>
   <i type="int" name="OMEGAGRID">     0</i>
   <i name="CSHIFT">     -0.10000000</i>
   <i type="logical" name="LSELFENERGY"> F  </i>
   <i type="logical" name="LSPECTRAL"> F  </i>
   <i type="logical" name="LSPECTRALGW"> F  </i>
   <i type="logical" name="LSINGLES"> F  </i>
   <i type="logical" name="LFERMIGW"> F  </i>
   <i type="logical" name="ODDONLYGW"> F  </i>
   <i type="logical" name="EVENONLYGW"> F  </i>
   <i type="int" name="NKREDLFX">     1</i>
   <i type="int" name="NKREDLFY">     1</i>
   <i type="int" name="NKREDLFZ">     1</i>
   <i type="int" name="MAXMEM">  2800</i>
   <i type="int" name="TELESCOPE">     0</i>
   <i type="int" name="NTAUPAR">    -1</i>
   <i type="int" name="NOMEGAPAR">    -1</i>
   <i name="DAMP_NEWTON">      0.80000001</i>
   <i name="LAMBDA">      1.00000000</i>
  </separator>
  <separator name="External order field" >
   <i name="OFIELD_KAPPA">      0.00000000</i>
   <v name="OFIELD_K">      0.00000000      0.00000000      0.00000000</v>
   <i name="OFIELD_Q6_NEAR">      0.00000000</i>
   <i name="OFIELD_Q6_FAR">      0.00000000</i>
   <i name="OFIELD_A">      0.00000000</i>
  </separator>
  <separator name="optional k-points parameters" >
   <i type="int" name="KPOINTS_OPT_MODE">     1</i>
   <i type="logical" name="LKPOINTS_OPT"> F  </i>
  </separator>
 </parameters>
 <atominfo>
  <atoms>     120 </atoms>
  <types>       2 </types>
  <array name="atoms" >
   <dimension dim="1">ion</dimension>
   <field type="string">element</field>
   <field type="int">atomtype</field>
   <set>
    <rc><c>Si</c><c>   1</c></rc>
    <rc><c>Si</c><c>   1</c></rc>
    <rc><c>Si</c><c>   1</c></rc>
    <rc><c>Si</c><c>   1</c></rc>
    <rc><c>Si</c><c>   1</c></rc>
    <rc><c>Si</c><c>   1</c></rc>
    <rc><c>Si</c><c>   1</c></rc>
    <rc><c>Si</c><c>   1</c></rc>
    <rc><c>Si</c><c>   1</c></rc>
    <rc><c>Si</c><c>   1</c></rc>
    <rc><c>Si</c><c>   1</c></rc>
    <rc><c>Si</c><c>   1</c></rc>
    <rc><c>Si</c><c>   1</c></rc>
    <rc><c>Si</c><c>   1</c></rc>
    <rc><c>Si</c><c>   1</c></rc>
    <rc><c>Si</c><c>   1</c></rc>
    <rc><c>Si</c><c>   1</c></rc>
    <rc><c>Si</c><c>   1</c></rc>
    <rc><c>Si</c><c>   1</c></rc>
    <rc><c>Si</c><c>   1</c></rc>
    <rc><c>Si</c><c>   1</c></rc>
    <rc><c>Si</c><c>   1</c></rc>
    <rc><c>Si</c><c>   1</c></rc>
    <rc><c>Si</c><c>   1</c></rc>
    <rc><c>Si</c><c>   1</c></rc>
    <rc><c>Si</c><c>   1</c></rc>
    <rc><c>Si</c><c>   1</c></rc>
    <rc><c>Si</c><c>   1</c></rc>
    <rc><c>Si</c><c>   1</c></rc>
    <rc><c>Si</c><c>   1</c></rc>
    <rc><c>Si</c><c>   1</c></rc>
    <rc><c>Si</c><c>   1</c></rc>
    <rc><c>Si</c><c>   1</c></rc>
    <rc><c>Si</c><c>   1</c></rc>
    <rc><c>Si</c><c>   1</c></rc>
    <rc><c>Si</c><c>   1</c></rc>
    <rc><c>C </c><c>   2</c></rc>
    <rc><c>C </c><c>   2</c></rc>
    <rc><c>C </c><c>   2</c></rc>
    <rc><c>C </c><c>   2</c></rc>
    <rc><c>C </c><c>   2</c></rc>
    <rc><c>C </c><c>   2</c></rc>
    <rc><c>C </c><c>   2</c></rc>
    <rc><c>C </c><c>   2</c></rc>
    <rc><c>C </c><c>   2</c></rc>
    <rc><c>C </c><c>   2</c></rc>
    <rc><c>C </c><c>   2</c></rc>
    <rc><c>C </c><c>   2</c></rc>
    <rc><c>C </c><c>   2</c></rc>
    <rc><c>C </c><c>   2</c></rc>
    <rc><c>C </c><c>   2</c></rc>
    <rc><c>C </c><c>   2</c></rc>
    <rc><c>C </c><c>   2</c></rc>
    <rc><c>C </c><c>   2</c></rc>
    <rc><c>C </c><c>   2</c></rc>
    <rc><c>C </c><c>   2</c></rc>
    <rc><c>C </c><c>   2</c></rc>
    <rc><c>C </c><c>   2</c></rc>
    <rc><c>C </c><c>   2</c></rc>
    <rc><c>C </c><c>   2</c></rc>
    <rc><c>C </c><c>   2</c></rc>
    <rc><c>C </c><c>   2</c></rc>
    <rc><c>C </c><c>   2</c></rc>
    <rc><c>C </c><c>   2</c></rc>
    <rc><c>C </c><c>   2</c></rc>
    <rc><c>C </c><c>   2</c></rc>
    <rc><c>C </c><c>   2</c></rc>
    <rc><c>C </c><c>   2</c></rc>
    <rc><c>C </c><c>   2</c></rc>
    <rc><c>C </c><c>   2</c></rc>
    <rc><c>C </c><c>   2</c></rc>
    <rc><c>C </c><c>   2</c></rc>
    <rc><c>C </c><c>   2</c></rc>
    <rc><c>C </c><c>   2</c></rc>
    <rc><c>C </c><c>   2</c></rc>
    <rc><c>C </c><c>   2</c></rc>
    <rc><c>C </c><c>   2</c></rc>
    <rc><c>C </c><c>   2</c></rc>
    <rc><c>C </c><c>   2</c></rc>
    <rc><c>C </c><c>   2</c></rc>
    <rc><c>C </c><c>   2</c></rc>
    <rc><c>C </c><c>   2</c></rc>
    <rc><c>C </c><c>   2</c></rc>
    <rc><c>C </c><c>   2</c></rc>
    <rc><c>C </c><c>   2</c></rc>
    <rc><c>C </c><c>   2</c></rc>
    <rc><c>C </c><c>   2</c></rc>
    <rc><c>C </c><c>   2</c></rc>
    <rc><c>C </c><c>   2</c></rc>
    <rc><c>C </c><c>   2</c></rc>
    <rc><c>C </c><c>   2</c></rc>
    <rc><c>C </c><c>   2</c></rc>
    <rc><c>C </c><c>   2</c></rc>
    <rc><c>C </c><c>   2</c></rc>
    <rc><c>C </c><c>   2</c></rc>
    <rc><c>C </c><c>   2</c></rc>
    <rc><c>C </c><c>   2</c></rc>
    <rc><c>C </c><c>   2</c></rc>
    <rc><c>C </c><c>   2</c></rc>
    <rc><c>C </c><c>   2</c></rc>
    <rc><c>C </c><c>   2</c></rc>
    <rc><c>C </c><c>   2</c></rc>
    <rc><c>C </c><c>   2</c></rc>
    <rc><c>C </c><c>   2</c></rc>
    <rc><c>C </c><c>   2</c></rc>
    <rc><c>C </c><c>   2</c></rc>
    <rc><c>C </c><c>   2</c></rc>
    <rc><c>C </c><c>   2</c></rc>
    <rc><c>C </c><c>   2</c></rc>
    <rc><c>C </c><c>   2</c></rc>
    <rc><c>C </c><c>   2</c></rc>
    <rc><c>C </c><c>   2</c></rc>
    <rc><c>C </c><c>   2</c></rc>
    <rc><c>C </c><c>   2</c></rc>
    <rc><c>C </c><c>   2</c></rc>
    <rc><c>C </c><c>   2</c></rc>
    <rc><c>C </c><c>   2</c></rc>
    <rc><c>C </c><c>   2</c></rc>
    <rc><c>C </c><c>   2</c></rc>
    <rc><c>C </c><c>   2</c></rc>
   </set>
  </array>
  <array name="atomtypes" >
   <dimension dim="1">type</dimension>
   <field type="int">atomspertype</field>
   <field type="string">element</field>
   <field>mass</field>
   <field>valence</field>
   <field type="string">pseudopotential</field>
   <set>
    <rc><c>  36</c><c>Si</c><c>     28.08500000</c><c>      4.00000000</c><c>  PAW_PBE Si 05Jan2001                  </c></rc>
    <rc><c>  84</c><c>C </c><c>     12.01100000</c><c>      4.00000000</c><c>  PAW_PBE C 08Apr2002                   </c></rc>
   </set>
  </array>
 </atominfo>
 <structure name="initialpos" >
  <crystal>
   <varray name="basis" >
    <v>      13.30317974       0.00000000       0.00000000 </v>
    <v>       6.65158939      14.87340641       0.00000000 </v>
    <v>       0.00000000       0.00000000       7.59944105 </v>
   </varray>
   <i name="volume">   1503.65275547 </i>
   <varray name="rec_basis" >
    <v>       0.07517000      -0.03361704       0.00000000 </v>
    <v>       0.00000000       0.06723409       0.00000000 </v>
    <v>       0.00000000       0.00000000       0.13158863 </v>
   </varray>
  </crystal>
  <varray name="positions" >
   <v>       0.98290563       0.65811950       0.00000000 </v>
   <v>       0.78290558       0.55811930       0.15980242 </v>
   <v>       0.58290541       0.45811909       0.31960484 </v>
   <v>       0.98290563       0.32478613       0.00000000 </v>
   <v>       0.78290558       0.22478597       0.15980242 </v>
   <v>       0.58290541       0.12478580       0.31960484 </v>
   <v>       0.98290563       0.99145281       0.00000000 </v>
   <v>       0.78290558       0.89145267       0.15980242 </v>
   <v>       0.58290541       0.79145253       0.31960484 </v>
   <v>       0.63290566       0.69145268       0.07990104 </v>
   <v>       0.43290559       0.59145248       0.23970348 </v>
   <v>       0.23290552       0.49145243       0.39950588 </v>
   <v>       0.63290566       0.35811943       0.07990104 </v>
   <v>       0.43290559       0.25811928       0.23970348 </v>
   <v>       0.23290552       0.15811914       0.39950588 </v>
   <v>       0.63290566       0.02478614       0.07990104 </v>
   <v>       0.43290559       0.92478597       0.23970348 </v>
   <v>       0.23290552       0.82478583       0.39950588 </v>
   <v>       0.48290563       0.65811950       0.00000000 </v>
   <v>       0.28290555       0.55811930       0.15980242 </v>
   <v>       0.08290544       0.45811909       0.31960484 </v>
   <v>       0.48290563       0.32478613       0.00000000 </v>
   <v>       0.28290555       0.22478595       0.15980242 </v>
   <v>       0.08290544       0.12478581       0.31960484 </v>
   <v>       0.48290563       0.99145281       0.00000000 </v>
   <v>       0.28290555       0.89145267       0.15980242 </v>
   <v>       0.08290544       0.79145253       0.31960484 </v>
   <v>       0.13290568       0.69145274       0.07990106 </v>
   <v>       0.93290555       0.59145248       0.23970348 </v>
   <v>       0.73290551       0.49145240       0.39950588 </v>
   <v>       0.13290568       0.35811949       0.07990106 </v>
   <v>       0.93290555       0.25811928       0.23970348 </v>
   <v>       0.73290551       0.15811913       0.39950588 </v>
   <v>       0.13290568       0.02478614       0.07990106 </v>
   <v>       0.93290555       0.92478597       0.23970348 </v>
   <v>       0.73290551       0.82478583       0.39950588 </v>
   <v>       0.71127868       0.91353124       0.77846551 </v>
   <v>       0.05413568       0.94210291       0.56856549 </v>
   <v>       0.38270712       0.92781711       0.67351544 </v>
   <v>       0.99699283       0.77067417       0.77846551 </v>
   <v>       0.33984995       0.79924578       0.56856549 </v>
   <v>       0.66842151       0.78495997       0.67351544 </v>
   <v>       0.28270709       0.62781703       0.77846551 </v>
   <v>       0.62556422       0.65638864       0.56856549 </v>
   <v>       0.95413566       0.64210284       0.67351544 </v>
   <v>       0.56842148       0.48495987       0.77846545 </v>
   <v>       0.91127860       0.51353145       0.56856543 </v>
   <v>       0.23985004       0.49924570       0.67351544 </v>
   <v>       0.85413575       0.34210274       0.77846545 </v>
   <v>       0.19699287       0.37067434       0.56856543 </v>
   <v>       0.52556419       0.35638857       0.67351544 </v>
   <v>       0.13985002       0.19924560       0.77846545 </v>
   <v>       0.48270702       0.22781721       0.56856543 </v>
   <v>       0.81127858       0.21353144       0.67351544 </v>
   <v>       0.42556441       0.05638850       0.77846551 </v>
   <v>       0.76842141       0.08495998       0.56856543 </v>
   <v>       0.09699297       0.07067430       0.67351550 </v>
   <v>       0.16127849       0.01353121       0.83094037 </v>
   <v>       0.50413561       0.04210281       0.62104040 </v>
   <v>       0.83270705       0.02781701       0.72599047 </v>
   <v>       0.44699275       0.87067413       0.83094037 </v>
   <v>       0.78984988       0.89924574       0.62104040 </v>
   <v>       0.11842132       0.88495988       0.72599047 </v>
   <v>       0.73270702       0.72781700       0.83094043 </v>
   <v>       0.07556415       0.75638860       0.62104028 </v>
   <v>       0.40413570       0.74210280       0.72599041 </v>
   <v>       0.01842141       0.58495992       0.83094031 </v>
   <v>       0.36127853       0.61353147       0.62104028 </v>
   <v>       0.68984985       0.59924573       0.72599041 </v>
   <v>       0.30413580       0.44210282       0.83094043 </v>
   <v>       0.64699292       0.47067440       0.62104028 </v>
   <v>       0.97556424       0.45638862       0.72599036 </v>
   <v>       0.58984995       0.29924563       0.83094043 </v>
   <v>       0.93270713       0.32781720       0.62104040 </v>
   <v>       0.26127863       0.31353140       0.72599041 </v>
   <v>       0.87556434       0.15638848       0.83094031 </v>
   <v>       0.21842146       0.18496007       0.62104040 </v>
   <v>       0.54699278       0.17067429       0.72599041 </v>
   <v>       0.21127856       0.91353130       0.77846545 </v>
   <v>       0.55413568       0.94210279       0.56856543 </v>
   <v>       0.88270700       0.92781711       0.67351550 </v>
   <v>       0.49699306       0.77067417       0.77846551 </v>
   <v>       0.83985007       0.79924578       0.56856543 </v>
   <v>       0.16842151       0.78495997       0.67351544 </v>
   <v>       0.78270733       0.62781703       0.77846551 </v>
   <v>       0.12556434       0.65638864       0.56856543 </v>
   <v>       0.45413578       0.64210284       0.67351544 </v>
   <v>       0.06842148       0.48495993       0.77846551 </v>
   <v>       0.41127849       0.51353151       0.56856543 </v>
   <v>       0.73984993       0.49924573       0.67351544 </v>
   <v>       0.35413563       0.34210286       0.77846551 </v>
   <v>       0.69699287       0.37067437       0.56856543 </v>
   <v>       0.02556431       0.35638857       0.67351544 </v>
   <v>       0.63985014       0.19924563       0.77846551 </v>
   <v>       0.98270714       0.22781718       0.56856549 </v>
   <v>       0.31127858       0.21353140       0.67351550 </v>
   <v>       0.92556429       0.05638850       0.77846551 </v>
   <v>       0.26842141       0.08496010       0.56856549 </v>
   <v>       0.59699285       0.07067430       0.67351550 </v>
   <v>       0.66127849       0.01353133       0.83094037 </v>
   <v>       0.00413561       0.04210293       0.62104040 </v>
   <v>       0.33270705       0.02781701       0.72599041 </v>
   <v>       0.94699287       0.87067419       0.83094037 </v>
   <v>       0.28985000       0.89924580       0.62104040 </v>
   <v>       0.61842132       0.88495994       0.72599041 </v>
   <v>       0.23270714       0.72781700       0.83094037 </v>
   <v>       0.57556438       0.75638860       0.62104040 </v>
   <v>       0.90413582       0.74210274       0.72599041 </v>
   <v>       0.51842129       0.58495992       0.83094031 </v>
   <v>       0.86127853       0.61353141       0.62104028 </v>
   <v>       0.18984997       0.59924567       0.72599041 </v>
   <v>       0.80413580       0.44210276       0.83094031 </v>
   <v>       0.14699292       0.47067434       0.62104028 </v>
   <v>       0.47556436       0.45638856       0.72599041 </v>
   <v>       0.08984983       0.29924557       0.83094037 </v>
   <v>       0.43270707       0.32781717       0.62104028 </v>
   <v>       0.76127839       0.31353140       0.72599041 </v>
   <v>       0.37556422       0.15638855       0.83094031 </v>
   <v>       0.71842146       0.18496005       0.62104040 </v>
   <v>       0.04699278       0.17067428       0.72599041 </v>
  </varray>
 </structure>
 <calculation>
  <scstep>
   <time name="dav">   25.86   26.07</time>
   <time name="total">   26.58   26.79</time>
   <energy>
    <i name="alphaZ">    647.39922086 </i>
    <i name="ewald">  -9643.96930087 </i>
    <i name="hartreedc">  -7680.29038302 </i>
    <i name="XCdc">    747.27127537 </i>
    <i name="pawpsdc">  12288.30765307 </i>
    <i name="pawaedc"> -11702.77953025 </i>
    <i name="eentropy">     -0.00186903 </i>
    <i name="bandstr">   1638.92413591 </i>
    <i name="atom">  16071.23009607 </i>
    <i name="e_fr_energy">   2366.09129812 </i>
    <i name="e_wo_entrp">   2366.09316715 </i>
    <i name="e_0_energy">   2366.09223264 </i>
   </energy>
  </scstep>
  <scstep>
   <time name="dav">   30.16   30.40</time>
   <time name="total">   30.16   30.40</time>
   <energy>
    <i name="e_fr_energy">   -532.10126578 </i>
    <i name="e_wo_entrp">   -532.09965312 </i>
    <i name="e_0_energy">   -532.10045945 </i>
   </energy>
  </scstep>
  <scstep>
   <time name="dav">   30.39   30.63</time>
   <time name="total">   30.39   30.64</time>
   <energy>
    <i name="e_fr_energy">   -835.86870481 </i>
    <i name="e_wo_entrp">   -835.86695167 </i>
    <i name="e_0_energy">   -835.86782824 </i>
   </energy>
  </scstep>
  <scstep>
   <time name="dav">   31.77   32.02</time>
   <time name="total">   31.77   32.03</time>
   <energy>
    <i name="e_fr_energy">   -851.00527861 </i>
    <i name="e_wo_entrp">   -851.00328950 </i>
    <i name="e_0_energy">   -851.00428406 </i>
   </energy>
  </scstep>
  <scstep>
   <time name="dav">   33.50   33.77</time>
   <time name="total">   34.58   34.86</time>
   <energy>
    <i name="e_fr_energy">   -851.75187245 </i>
    <i name="e_wo_entrp">   -851.74992906 </i>
    <i name="e_0_energy">   -851.75090075 </i>
   </energy>
  </scstep>
  <scstep>
   <time name="dav">   32.44   32.70</time>
   <time name="total">   34.21   34.48</time>
   <energy>
    <i name="e_fr_energy">   -834.97034238 </i>
    <i name="e_wo_entrp">   -834.96859184 </i>
    <i name="e_0_energy">   -834.96946711 </i>
   </energy>
  </scstep>
  <scstep>
   <time name="dav">   31.58   31.83</time>
   <time name="total">   33.37   33.64</time>
   <energy>
    <i name="e_fr_energy">   -800.99726584 </i>
    <i name="e_wo_entrp">   -800.99489596 </i>
    <i name="e_0_energy">   -800.99608090 </i>
   </energy>
  </scstep>
  <scstep>
   <time name="dav">   31.47   31.72</time>
   <time name="total">   33.25   33.51</time>
   <energy>
    <i name="e_fr_energy">   -803.85707299 </i>
    <i name="e_wo_entrp">   -803.85471190 </i>
    <i name="e_0_energy">   -803.85589245 </i>
   </energy>
  </scstep>
  <scstep>
   <time name="dav">   31.92   32.17</time>
   <time name="total">   33.70   33.96</time>
   <energy>
    <i name="e_fr_energy">   -802.65142000 </i>
    <i name="e_wo_entrp">   -802.64871964 </i>
    <i name="e_0_energy">   -802.65006982 </i>
   </energy>
  </scstep>
  <scstep>
   <time name="dav">   31.66   31.91</time>
   <time name="total">   33.43   33.69</time>
   <energy>
    <i name="e_fr_energy">   -802.24917051 </i>
    <i name="e_wo_entrp">   -802.24751016 </i>
    <i name="e_0_energy">   -802.24834034 </i>
   </energy>
  </scstep>
  <scstep>
   <time name="dav">   31.60   31.85</time>
   <time name="total">   33.36   33.62</time>
   <energy>
    <i name="e_fr_energy">   -802.07125128 </i>
    <i name="e_wo_entrp">   -802.06968587 </i>
    <i name="e_0_energy">   -802.07046857 </i>
   </energy>
  </scstep>
  <scstep>
   <time name="dav">   30.40   30.64</time>
   <time name="total">   32.17   32.42</time>
   <energy>
    <i name="e_fr_energy">   -802.07773100 </i>
    <i name="e_wo_entrp">   -802.07626572 </i>
    <i name="e_0_energy">   -802.07699836 </i>
   </energy>
  </scstep>
  <scstep>
   <time name="dav">   31.21   31.46</time>
   <time name="total">   33.00   33.26</time>
   <energy>
    <i name="e_fr_energy">   -802.07757693 </i>
    <i name="e_wo_entrp">   -802.07603949 </i>
    <i name="e_0_energy">   -802.07680821 </i>
   </energy>
  </scstep>
  <scstep>
   <time name="dav">   31.72   31.97</time>
   <time name="total">   33.49   33.75</time>
   <energy>
    <i name="e_fr_energy">   -802.07433784 </i>
    <i name="e_wo_entrp">   -802.07283679 </i>
    <i name="e_0_energy">   -802.07358732 </i>
   </energy>
  </scstep>
  <scstep>
   <time name="dav">   31.96   32.21</time>
   <time name="total">   33.73   34.00</time>
   <energy>
    <i name="e_fr_energy">   -802.07356617 </i>
    <i name="e_wo_entrp">   -802.07217270 </i>
    <i name="e_0_energy">   -802.07286944 </i>
   </energy>
  </scstep>
  <scstep>
   <time name="dav">   31.75   32.00</time>
   <time name="total">   33.51   33.78</time>
   <energy>
    <i name="e_fr_energy">   -802.07289669 </i>
    <i name="e_wo_entrp">   -802.07142405 </i>
    <i name="e_0_energy">   -802.07216037 </i>
   </energy>
  </scstep>
  <scstep>
   <time name="dav">   33.18   33.45</time>
   <time name="total">   34.94   35.22</time>
   <energy>
    <i name="e_fr_energy">   -802.07284858 </i>
    <i name="e_wo_entrp">   -802.07137822 </i>
    <i name="e_0_energy">   -802.07211340 </i>
   </energy>
  </scstep>
  <scstep>
   <time name="dav">   32.15   32.42</time>
   <time name="total">   33.93   34.20</time>
   <energy>
    <i name="e_fr_energy">   -802.07283284 </i>
    <i name="e_wo_entrp">   -802.07136907 </i>
    <i name="e_0_energy">   -802.07210096 </i>
   </energy>
  </scstep>
  <scstep>
   <time name="dav">   31.09   31.34</time>
   <time name="total">   32.85   33.11</time>
   <energy>
    <i name="e_fr_energy">   -802.07283772 </i>
    <i name="e_wo_entrp">   -802.07136554 </i>
    <i name="e_0_energy">   -802.07210163 </i>
   </energy>
  </scstep>
  <scstep>
   <time name="dav">   32.48   32.74</time>
   <time name="total">   34.25   34.52</time>
   <energy>
    <i name="e_fr_energy">   -802.07283789 </i>
    <i name="e_wo_entrp">   -802.07137030 </i>
    <i name="e_0_energy">   -802.07210410 </i>
   </energy>
  </scstep>
  <scstep>
   <time name="dav">   31.65   31.91</time>
   <time name="total">   33.42   33.69</time>
   <energy>
    <i name="e_fr_energy">   -802.07283804 </i>
    <i name="e_wo_entrp">   -802.07136950 </i>
    <i name="e_0_energy">   -802.07210377 </i>
   </energy>
  </scstep>
  <scstep>
   <time name="dav">   32.10   32.36</time>
   <time name="total">   33.87   34.13</time>
   <energy>
    <i name="e_fr_energy">   -802.07283839 </i>
    <i name="e_wo_entrp">   -802.07136880 </i>
    <i name="e_0_energy">   -802.07210360 </i>
   </energy>
  </scstep>
  <scstep>
   <time name="dav">   32.36   32.62</time>
   <time name="total">   34.12   34.39</time>
   <energy>
    <i name="e_fr_energy">   -802.07283860 </i>
    <i name="e_wo_entrp">   -802.07136903 </i>
    <i name="e_0_energy">   -802.07210382 </i>
   </energy>
  </scstep>
  <scstep>
   <time name="dav">   33.13   33.40</time>
   <time name="total">   34.91   35.18</time>
   <energy>
    <i name="e_fr_energy">   -802.07283877 </i>
    <i name="e_wo_entrp">   -802.07136884 </i>
    <i name="e_0_energy">   -802.07210380 </i>
   </energy>
  </scstep>
  <scstep>
   <time name="dav">   31.03   31.28</time>
   <time name="total">   31.72   31.97</time>
   <energy>
    <i name="alphaZ">    647.39922086 </i>
    <i name="ewald">  -9643.96930087 </i>
    <i name="hartreedc">  -8276.16952838 </i>
    <i name="XCdc">    782.91642322 </i>
    <i name="pawpsdc">  37071.68114982 </i>
    <i name="pawaedc"> -36493.44021909 </i>
    <i name="eentropy">     -0.00146998 </i>
    <i name="bandstr">   -961.71921049 </i>
    <i name="atom">  16071.23009607 </i>
    <i name="e_fr_energy">   -802.07283885 </i>
    <i name="e_wo_entrp">   -802.07136887 </i>
    <i name="e_0_energy">   -802.07210386 </i>
   </energy>
  </scstep>
  <structure>
   <crystal>
    <varray name="basis" >
     <v>      13.30317974       0.00000000       0.00000000 </v>
     <v>       6.65158939      14.87340641       0.00000000 </v>
     <v>       0.00000000       0.00000000       7.59944105 </v>
    </varray>
    <i name="volume">   1503.65275547 </i>
    <varray name="rec_basis" >
     <v>       0.07517000      -0.03361704       0.00000000 </v>
     <v>       0.00000000       0.06723409       0.00000000 </v>
     <v>       0.00000000       0.00000000       0.13158863 </v>
    </varray>
   </crystal>
   <varray name="positions" >
    <v>       0.98290563       0.65811950       0.00000000 </v>
    <v>       0.78290558       0.55811930       0.15980242 </v>
    <v>       0.58290541       0.45811909       0.31960484 </v>
    <v>       0.98290563       0.32478613       0.00000000 </v>
    <v>       0.78290558       0.22478597       0.15980242 </v>
    <v>       0.58290541       0.12478580       0.31960484 </v>
    <v>       0.98290563       0.99145281       0.00000000 </v>
    <v>       0.78290558       0.89145267       0.15980242 </v>
    <v>       0.58290541       0.79145253       0.31960484 </v>
    <v>       0.63290566       0.69145268       0.07990104 </v>
    <v>       0.43290559       0.59145248       0.23970348 </v>
    <v>       0.23290552       0.49145243       0.39950588 </v>
    <v>       0.63290566       0.35811943       0.07990104 </v>
    <v>       0.43290559       0.25811928       0.23970348 </v>
    <v>       0.23290552       0.15811914       0.39950588 </v>
    <v>       0.63290566       0.02478614       0.07990104 </v>
    <v>       0.43290559       0.92478597       0.23970348 </v>
    <v>       0.23290552       0.82478583       0.39950588 </v>
    <v>       0.48290563       0.65811950       0.00000000 </v>
    <v>       0.28290555       0.55811930       0.15980242 </v>
    <v>       0.08290544       0.45811909       0.31960484 </v>
    <v>       0.48290563       0.32478613       0.00000000 </v>
    <v>       0.28290555       0.22478595       0.15980242 </v>
    <v>       0.08290544       0.12478581       0.31960484 </v>
    <v>       0.48290563       0.99145281       0.00000000 </v>
    <v>       0.28290555       0.89145267       0.15980242 </v>
    <v>       0.08290544       0.79145253       0.31960484 </v>
    <v>       0.13290568       0.69145274       0.07990106 </v>
    <v>       0.93290555       0.59145248       0.23970348 </v>
    <v>       0.73290551       0.49145240       0.39950588 </v>
    <v>       0.13290568       0.35811949       0.07990106 </v>
    <v>       0.93290555       0.25811928       0.23970348 </v>
    <v>       0.73290551       0.15811913       0.39950588 </v>
    <v>       0.13290568       0.02478614       0.07990106 </v>
    <v>       0.93290555       0.92478597       0.23970348 </v>
    <v>       0.73290551       0.82478583       0.39950588 </v>
    <v>       0.71127868       0.91353124       0.77846551 </v>
    <v>       0.05413568       0.94210291       0.56856549 </v>
    <v>       0.38270712       0.92781711       0.67351544 </v>
    <v>       0.99699283       0.77067417       0.77846551 </v>
    <v>       0.33984995       0.79924578       0.56856549 </v>
    <v>       0.66842151       0.78495997       0.67351544 </v>
    <v>       0.28270709       0.62781703       0.77846551 </v>
    <v>       0.62556422       0.65638864       0.56856549 </v>
    <v>       0.95413566       0.64210284       0.67351544 </v>
    <v>       0.56842148       0.48495987       0.77846545 </v>
    <v>       0.91127860       0.51353145       0.56856543 </v>
    <v>       0.23985004       0.49924570       0.67351544 </v>
    <v>       0.85413575       0.34210274       0.77846545 </v>
    <v>       0.19699287       0.37067434       0.56856543 </v>
    <v>       0.52556419       0.35638857       0.67351544 </v>
    <v>       0.13985002       0.19924560       0.77846545 </v>
    <v>       0.48270702       0.22781721       0.56856543 </v>
    <v>       0.81127858       0.21353144       0.67351544 </v>
    <v>       0.42556441       0.05638850       0.77846551 </v>
    <v>       0.76842141       0.08495998       0.56856543 </v>
    <v>       0.09699297       0.07067430       0.67351550 </v>
    <v>       0.16127849       0.01353121       0.83094037 </v>
    <v>       0.50413561       0.04210281       0.62104040 </v>
    <v>       0.83270705       0.02781701       0.72599047 </v>
    <v>       0.44699275       0.87067413       0.83094037 </v>
    <v>       0.78984988       0.89924574       0.62104040 </v>
    <v>       0.11842132       0.88495988       0.72599047 </v>
    <v>       0.73270702       0.72781700       0.83094043 </v>
    <v>       0.07556415       0.75638860       0.62104028 </v>
    <v>       0.40413570       0.74210280       0.72599041 </v>
    <v>       0.01842141       0.58495992       0.83094031 </v>
    <v>       0.36127853       0.61353147       0.62104028 </v>
    <v>       0.68984985       0.59924573       0.72599041 </v>
    <v>       0.30413580       0.44210282       0.83094043 </v>
    <v>       0.64699292       0.47067440       0.62104028 </v>
    <v>       0.97556424       0.45638862       0.72599036 </v>
    <v>       0.58984995       0.29924563       0.83094043 </v>
    <v>       0.93270713       0.32781720       0.62104040 </v>
    <v>       0.26127863       0.31353140       0.72599041 </v>
    <v>       0.87556434       0.15638848       0.83094031 </v>
    <v>       0.21842146       0.18496007       0.62104040 </v>
    <v>       0.54699278       0.17067429       0.72599041 </v>
    <v>       0.21127856       0.91353130       0.77846545 </v>
    <v>       0.55413568       0.94210279       0.56856543 </v>
    <v>       0.88270700       0.92781711       0.67351550 </v>
    <v>       0.49699306       0.77067417       0.77846551 </v>
    <v>       0.83985007       0.79924578       0.56856543 </v>
    <v>       0.16842151       0.78495997       0.67351544 </v>
    <v>       0.78270733       0.62781703       0.77846551 </v>
    <v>       0.12556434       0.65638864       0.56856543 </v>
    <v>       0.45413578       0.64210284       0.67351544 </v>
    <v>       0.06842148       0.48495993       0.77846551 </v>
    <v>       0.41127849       0.51353151       0.56856543 </v>
    <v>       0.73984993       0.49924573       0.67351544 </v>
    <v>       0.35413563       0.34210286       0.77846551 </v>
    <v>       0.69699287       0.37067437       0.56856543 </v>
    <v>       0.02556431       0.35638857       0.67351544 </v>
    <v>       0.63985014       0.19924563       0.77846551 </v>
    <v>       0.98270714       0.22781718       0.56856549 </v>
    <v>       0.31127858       0.21353140       0.67351550 </v>
    <v>       0.92556429       0.05638850       0.77846551 </v>
    <v>       0.26842141       0.08496010       0.56856549 </v>
    <v>       0.59699285       0.07067430       0.67351550 </v>
    <v>       0.66127849       0.01353133       0.83094037 </v>
    <v>       0.00413561       0.04210293       0.62104040 </v>
    <v>       0.33270705       0.02781701       0.72599041 </v>
    <v>       0.94699287       0.87067419       0.83094037 </v>
    <v>       0.28985000       0.89924580       0.62104040 </v>
    <v>       0.61842132       0.88495994       0.72599041 </v>
    <v>       0.23270714       0.72781700       0.83094037 </v>
    <v>       0.57556438       0.75638860       0.62104040 </v>
    <v>       0.90413582       0.74210274       0.72599041 </v>
    <v>       0.51842129       0.58495992       0.83094031 </v>
    <v>       0.86127853       0.61353141       0.62104028 </v>
    <v>       0.18984997       0.59924567       0.72599041 </v>
    <v>       0.80413580       0.44210276       0.83094031 </v>
    <v>       0.14699292       0.47067434       0.62104028 </v>
    <v>       0.47556436       0.45638856       0.72599041 </v>
    <v>       0.08984983       0.29924557       0.83094037 </v>
    <v>       0.43270707       0.32781717       0.62104028 </v>
    <v>       0.76127839       0.31353140       0.72599041 </v>
    <v>       0.37556422       0.15638855       0.83094031 </v>
    <v>       0.71842146       0.18496005       0.62104040 </v>
    <v>       0.04699278       0.17067428       0.72599041 </v>
   </varray>
  </structure>
  <varray name="forces" >
   <v>       0.67849200       2.59829653       2.78484755 </v>
   <v>       0.80533855      -0.21395787      -0.44765562 </v>
   <v>       0.24169596      -0.07862177       1.29890228 </v>
   <v>      -1.62362094       0.52827210       0.37868271 </v>
   <v>       0.72126350      -0.29688059      -0.91466155 </v>
   <v>      -0.49345175       1.01416388       0.22364494 </v>
   <v>      -0.15006731      -1.27476213      -0.95878095 </v>
   <v>       0.22679101       0.10738142      -0.04145851 </v>
   <v>      -0.27656979       0.12724187       1.05151245 </v>
   <v>       0.61553826       0.47715655      -1.09290408 </v>
   <v>      -0.88810279       0.19309739       0.22869228 </v>
   <v>       0.50972053       0.06443520       0.82934408 </v>
   <v>      -0.07662583      -0.05246163      -1.44285707 </v>
   <v>      -0.26418148      -0.33828466       0.44604481 </v>
   <v>      -0.96448553       0.99415785      -5.76527621 </v>
   <v>       0.36954849      -0.60574497      -0.97349337 </v>
   <v>      -0.49034368      -0.08086231       0.04251506 </v>
   <v>      -0.18304508       0.18797274       0.15411875 </v>
   <v>       0.67849200       2.59829653       2.78484755 </v>
   <v>       0.80533855      -0.21395787      -0.44765562 </v>
   <v>       0.24169596      -0.07862177       1.29890228 </v>
   <v>      -1.62362094       0.52827210       0.37868271 </v>
   <v>       0.72126350      -0.29688059      -0.91466155 </v>
   <v>      -0.49345175       1.01416388       0.22364494 </v>
   <v>      -0.15006731      -1.27476213      -0.95878095 </v>
   <v>       0.22679101       0.10738142      -0.04145851 </v>
   <v>      -0.27656979       0.12724187       1.05151245 </v>
   <v>       0.61553826       0.47715655      -1.09290408 </v>
   <v>      -0.88810279       0.19309739       0.22869228 </v>
   <v>       0.50972053       0.06443520       0.82934408 </v>
   <v>      -0.07662583      -0.05246163      -1.44285707 </v>
   <v>      -0.26418148      -0.33828466       0.44604481 </v>
   <v>      -0.96448553       0.99415785      -5.76527621 </v>
   <v>       0.36954849      -0.60574497      -0.97349337 </v>
   <v>      -0.49034368      -0.08086231       0.04251506 </v>
   <v>      -0.18304508       0.18797274       0.15411875 </v>
   <v>      -0.92017870       2.87847720      -2.15040966 </v>
   <v>       0.37527189       1.76543313       2.24674564 </v>
   <v>      -1.27857801       2.10446468       4.07536865 </v>
   <v>      -1.39525126       3.31653821      -0.66613830 </v>
   <v>      -0.06047199       0.95609777       2.65991257 </v>
   <v>      -1.09910086       1.72682829       4.16810985 </v>
   <v>      -0.89349250       3.78623758      -2.94976131 </v>
   <v>       0.03046861       0.12304947       3.37751752 </v>
   <v>      -1.35502620       1.75172517       2.36253424 </v>
   <v>      -1.46145925       3.21895481      -1.12095008 </v>
   <v>       0.97228863       1.43639406       2.35932016 </v>
   <v>      -0.63190062       1.95949128       2.86030072 </v>
   <v>      -0.28252884       3.10496328      -1.02100799 </v>
   <v>      -0.33514967       1.35948917       2.25741732 </v>
   <v>      -0.82567874       2.22687523       2.64268031 </v>
   <v>      -1.23834329       3.14727234      -1.48569027 </v>
   <v>      -0.30560063       1.68499076       2.63800233 </v>
   <v>      -0.39661964       1.74855934       5.14145302 </v>
   <v>      -1.55463318       2.28944156       0.78695012 </v>
   <v>       0.90722632      -2.61833887       5.23044991 </v>
   <v>      -1.43863713       1.80130982       3.12017673 </v>
   <v>       0.36576618      -1.01379133      -1.84347471 </v>
   <v>       2.22092511      -3.54095243       0.31276454 </v>
   <v>       0.14912123      -1.38564881      -4.72746031 </v>
   <v>       0.52568584      -0.73802756      -2.73083722 </v>
   <v>       1.01498333      -2.80042545       2.30319416 </v>
   <v>       1.01836216      -1.59831273      -2.82359287 </v>
   <v>      -1.16512272      -2.13268076      -0.89145970 </v>
   <v>       1.51634562      -3.06778226      -0.20173326 </v>
   <v>       1.01889158      -1.84539323      -4.01733499 </v>
   <v>      -0.04276830      -3.62533933      -5.32605246 </v>
   <v>       1.15667450      -3.93956832       2.02177315 </v>
   <v>       1.38939559      -1.05558505      -3.99549836 </v>
   <v>       0.10437255      -0.96620929      -2.13671573 </v>
   <v>      -0.27719806      -2.84293659       2.59920486 </v>
   <v>       0.92447403      -1.99144280      -3.74463020 </v>
   <v>      -0.10140006      -2.24381525      -1.65026952 </v>
   <v>       1.36963039      -3.40951670       1.00310523 </v>
   <v>       1.28904652      -2.12286973      -4.74777012 </v>
   <v>      -0.18610503      -0.08280452      -2.54644809 </v>
   <v>       0.81493302      -0.70745073       4.20633635 </v>
   <v>       1.32348748      -2.00830106      -3.39729974 </v>
   <v>      -0.92017870       2.87847720      -2.15040966 </v>
   <v>       0.37527189       1.76543313       2.24674564 </v>
   <v>      -1.27857801       2.10446468       4.07536865 </v>
   <v>      -1.39525126       3.31653821      -0.66613830 </v>
   <v>      -0.06047199       0.95609777       2.65991257 </v>
   <v>      -1.09910086       1.72682829       4.16810985 </v>
   <v>      -0.89349250       3.78623758      -2.94976131 </v>
   <v>       0.03046861       0.12304947       3.37751752 </v>
   <v>      -1.35502620       1.75172517       2.36253424 </v>
   <v>      -1.46145925       3.21895481      -1.12095008 </v>
   <v>       0.97228863       1.43639406       2.35932016 </v>
   <v>      -0.63190062       1.95949128       2.86030072 </v>
   <v>      -0.28252884       3.10496328      -1.02100799 </v>
   <v>      -0.33514967       1.35948917       2.25741732 </v>
   <v>      -0.82567874       2.22687523       2.64268031 </v>
   <v>      -1.23834329       3.14727234      -1.48569027 </v>
   <v>      -0.30560063       1.68499076       2.63800233 </v>
   <v>      -0.39661964       1.74855934       5.14145302 </v>
   <v>      -1.55463318       2.28944156       0.78695012 </v>
   <v>       0.90722632      -2.61833887       5.23044991 </v>
   <v>      -1.43863713       1.80130982       3.12017673 </v>
   <v>       0.36576618      -1.01379133      -1.84347471 </v>
   <v>       2.22092511      -3.54095243       0.31276454 </v>
   <v>       0.14912123      -1.38564881      -4.72746031 </v>
   <v>       0.52568584      -0.73802756      -2.73083722 </v>
   <v>       1.01498333      -2.80042545       2.30319416 </v>
   <v>       1.01836216      -1.59831273      -2.82359287 </v>
   <v>      -1.16512272      -2.13268076      -0.89145970 </v>
   <v>       1.51634562      -3.06778226      -0.20173326 </v>
   <v>       1.01889158      -1.84539323      -4.01733499 </v>
   <v>      -0.04276830      -3.62533933      -5.32605246 </v>
   <v>       1.15667450      -3.93956832       2.02177315 </v>
   <v>       1.38939559      -1.05558505      -3.99549836 </v>
   <v>       0.10437255      -0.96620929      -2.13671573 </v>
   <v>      -0.27719806      -2.84293659       2.59920486 </v>
   <v>       0.92447403      -1.99144280      -3.74463020 </v>
   <v>      -0.10140006      -2.24381525      -1.65026952 </v>
   <v>       1.36963039      -3.40951670       1.00310523 </v>
   <v>       1.28904652      -2.12286973      -4.74777012 </v>
   <v>      -0.18610503      -0.08280452      -2.54644809 </v>
   <v>       0.81493302      -0.70745073       4.20633635 </v>
   <v>       1.32348748      -2.00830106      -3.39729974 </v>
  </varray>
  <varray name="stress" >
   <v>     -75.30075455       1.30167139     -15.38003983 </v>
   <v>       1.30162550     -73.53952651       9.82706272 </v>
   <v>     -15.38001717       9.82706075    -162.02059826 </v>
  </varray>
  <energy>
   <i name="e_fr_energy">   -802.07283885 </i>
   <i name="e_wo_entrp">   -802.07136887 </i>
   <i name="e_0_energy">   -802.07210386 </i>
  </energy>
  <time name="totalsc">  855.95  863.31</time>
  <eigenvalues>
   <array>
    <dimension dim="1">band</dimension>
    <dimension dim="2">kpoint</dimension>
    <dimension dim="3">spin</dimension>
    <field>eigene</field>
    <field>occ</field>
    <set>
     <set comment="spin 1">
      <set comment="kpoint 1">
       <r>  -13.5126    1.0000 </r>
       <r>  -13.0748    1.0000 </r>
       <r>  -13.0100    1.0000 </r>
       <r>  -12.9856    1.0000 </r>
       <r>  -12.8607    1.0000 </r>
       <r>  -12.7970    1.0000 </r>
       <r>  -12.7627    1.0000 </r>
       <r>  -12.2878    1.0000 </r>
       <r>  -11.9704    1.0000 </r>
       <r>  -11.9413    1.0000 </r>
       <r>  -11.8861    1.0000 </r>
       <r>  -11.7931    1.0000 </r>
       <r>  -11.5387    1.0000 </r>
       <r>  -11.4596    1.0000 </r>
       <r>  -11.0813    1.0000 </r>
       <r>  -10.8834    1.0000 </r>
       <r>  -10.6573    1.0000 </r>
       <r>  -10.5590    1.0000 </r>
       <r>  -10.4984    1.0000 </r>
       <r>  -10.3251    1.0000 </r>
       <r>  -10.0618    1.0000 </r>
       <r>   -9.7934    1.0000 </r>
       <r>   -9.6946    1.0000 </r>
       <r>   -9.5601    1.0000 </r>
       <r>   -9.3873    1.0000 </r>
       <r>   -9.3195    1.0000 </r>
       <r>   -9.1740    1.0000 </r>
       <r>   -9.0269    1.0000 </r>
       <r>   -9.0095    1.0000 </r>
       <r>   -8.9635    1.0000 </r>
       <r>   -8.9019    1.0000 </r>
       <r>   -8.7725    1.0000 </r>
       <r>   -8.5808    1.0000 </r>
       <r>   -8.5141    1.0000 </r>
       <r>   -8.4518    1.0000 </r>
       <r>   -8.3138    1.0000 </r>
       <r>   -8.2552    1.0000 </r>
       <r>   -8.0926    1.0000 </r>
       <r>   -7.8648    1.0000 </r>
       <r>   -7.5833    1.0000 </r>
       <r>   -7.2942    1.0000 </r>
       <r>   -6.9953    1.0000 </r>
       <r>   -6.9901    1.0000 </r>
       <r>   -6.8232    1.0000 </r>
       <r>   -6.7277    1.0000 </r>
       <r>   -6.4001    1.0000 </r>
       <r>   -6.3412    1.0000 </r>
       <r>   -6.2942    1.0000 </r>
       <r>   -6.1557    1.0000 </r>
       <r>   -5.9742    1.0000 </r>
       <r>   -5.9547    1.0000 </r>
       <r>   -5.8254    1.0000 </r>
       <r>   -5.7570    1.0000 </r>
       <r>   -5.7218    1.0000 </r>
       <r>   -5.6601    1.0000 </r>
       <r>   -5.6174    1.0000 </r>
       <r>   -5.3599    1.0000 </r>
       <r>   -5.3026    1.0000 </r>
       <r>   -5.1530    1.0000 </r>
       <r>   -5.0820    1.0000 </r>
       <r>   -5.0060    1.0000 </r>
       <r>   -4.9784    1.0000 </r>
       <r>   -4.9681    1.0000 </r>
       <r>   -4.7376    1.0000 </r>
       <r>   -4.6361    1.0000 </r>
       <r>   -4.5569    1.0000 </r>
       <r>   -4.5319    1.0000 </r>
       <r>   -4.4532    1.0000 </r>
       <r>   -4.3847    1.0000 </r>
       <r>   -4.3475    1.0000 </r>
       <r>   -4.2768    1.0000 </r>
       <r>   -4.2296    1.0000 </r>
       <r>   -4.1659    1.0000 </r>
       <r>   -4.1027    1.0000 </r>
       <r>   -4.0912    1.0000 </r>
       <r>   -4.0391    1.0000 </r>
       <r>   -4.0312    1.0000 </r>
       <r>   -3.8905    1.0000 </r>
       <r>   -3.7494    1.0000 </r>
       <r>   -3.7462    1.0000 </r>
       <r>   -3.6716    1.0000 </r>
       <r>   -3.5760    1.0000 </r>
       <r>   -3.5456    1.0000 </r>
       <r>   -3.5179    1.0000 </r>
       <r>   -3.4383    1.0000 </r>
       <r>   -3.3907    1.0000 </r>
       <r>   -3.2759    1.0000 </r>
       <r>   -3.2284    1.0000 </r>
       <r>   -3.1694    1.0000 </r>
       <r>   -3.1644    1.0000 </r>
       <r>   -3.0710    1.0000 </r>
       <r>   -2.9737    1.0000 </r>
       <r>   -2.8990    1.0000 </r>
       <r>   -2.8915    1.0000 </r>
       <r>   -2.8563    1.0000 </r>
       <r>   -2.7620    1.0000 </r>
       <r>   -2.7363    1.0000 </r>
       <r>   -2.6905    1.0000 </r>
       <r>   -2.4906    1.0000 </r>
       <r>   -2.3337    1.0000 </r>
       <r>   -2.2603    1.0000 </r>
       <r>   -2.0459    1.0000 </r>
       <r>   -2.0159    1.0000 </r>
       <r>   -1.9951    1.0000 </r>
       <r>   -1.8284    1.0000 </r>
       <r>   -1.8058    1.0000 </r>
       <r>   -1.7737    1.0000 </r>
       <r>   -1.7102    1.0000 </r>
       <r>   -1.6771    1.0000 </r>
       <r>   -1.6661    1.0000 </r>
       <r>   -1.5666    1.0000 </r>
       <r>   -1.4413    1.0000 </r>
       <r>   -1.4372    1.0000 </r>
       <r>   -1.3357    1.0000 </r>
       <r>   -1.2672    1.0000 </r>
       <r>   -1.2574    1.0000 </r>
       <r>   -1.1828    1.0000 </r>
       <r>   -1.1588    1.0000 </r>
       <r>   -1.0913    1.0000 </r>
       <r>   -1.0407    1.0000 </r>
       <r>   -1.0334    1.0000 </r>
       <r>   -0.9713    1.0000 </r>
       <r>   -0.9152    1.0000 </r>
       <r>   -0.8556    1.0000 </r>
       <r>   -0.8321    1.0000 </r>
       <r>   -0.8117    1.0000 </r>
       <r>   -0.7492    1.0000 </r>
       <r>   -0.6584    1.0000 </r>
       <r>   -0.6065    1.0000 </r>
       <r>   -0.5879    1.0000 </r>
       <r>   -0.5539    1.0000 </r>
       <r>   -0.4902    1.0000 </r>
       <r>   -0.4428    1.0000 </r>
       <r>   -0.3971    1.0000 </r>
       <r>   -0.3667    1.0000 </r>
       <r>   -0.2715    1.0000 </r>
       <r>   -0.2476    1.0000 </r>
       <r>   -0.1986    1.0000 </r>
       <r>   -0.1753    1.0000 </r>
       <r>    0.0134    1.0000 </r>
       <r>    0.0212    1.0000 </r>
       <r>    0.0491    1.0000 </r>
       <r>    0.0493    1.0000 </r>
       <r>    0.1788    1.0000 </r>
       <r>    0.1793    1.0000 </r>
       <r>    0.2410    1.0000 </r>
       <r>    0.2847    1.0000 </r>
       <r>    0.3761    1.0000 </r>
       <r>    0.4204    1.0000 </r>
       <r>    0.4602    1.0000 </r>
       <r>    0.5776    1.0000 </r>
       <r>    0.6102    1.0000 </r>
       <r>    0.6727    1.0000 </r>
       <r>    0.7243    1.0000 </r>
       <r>    0.7748    1.0000 </r>
       <r>    0.8403    1.0000 </r>
       <r>    0.8482    1.0000 </r>
       <r>    0.8885    1.0000 </r>
       <r>    1.0440    1.0000 </r>
       <r>    1.0841    1.0000 </r>
       <r>    1.1195    1.0000 </r>
       <r>    1.1385    1.0000 </r>
       <r>    1.2069    1.0000 </r>
       <r>    1.2597    1.0000 </r>
       <r>    1.3186    1.0000 </r>
       <r>    1.3631    1.0000 </r>
       <r>    1.3684    1.0000 </r>
       <r>    1.4008    1.0000 </r>
       <r>    1.4929    1.0000 </r>
       <r>    1.5407    1.0000 </r>
       <r>    1.5747    1.0000 </r>
       <r>    1.6357    1.0000 </r>
       <r>    1.6463    1.0000 </r>
       <r>    1.7212    1.0000 </r>
       <r>    1.7415    1.0000 </r>
       <r>    1.7866    1.0000 </r>
       <r>    1.8743    1.0000 </r>
       <r>    1.9842    1.0000 </r>
       <r>    2.0377    1.0000 </r>
       <r>    2.0721    1.0000 </r>
       <r>    2.1627    1.0000 </r>
       <r>    2.1669    1.0000 </r>
       <r>    2.1992    1.0000 </r>
       <r>    2.2802    1.0000 </r>
       <r>    2.3331    1.0000 </r>
       <r>    2.3346    1.0000 </r>
       <r>    2.3500    1.0000 </r>
       <r>    2.3988    1.0000 </r>
       <r>    2.4196    1.0000 </r>
       <r>    2.4724    1.0000 </r>
       <r>    2.5494    1.0000 </r>
       <r>    2.5735    1.0000 </r>
       <r>    2.6384    1.0000 </r>
       <r>    2.6597    1.0000 </r>
       <r>    2.6955    1.0000 </r>
       <r>    2.7806    1.0000 </r>
       <r>    2.8662    1.0000 </r>
       <r>    2.8780    1.0000 </r>
       <r>    2.9236    1.0000 </r>
       <r>    2.9302    1.0000 </r>
       <r>    2.9406    1.0000 </r>
       <r>    2.9623    1.0000 </r>
       <r>    3.0705    1.0000 </r>
       <r>    3.0873    1.0000 </r>
       <r>    3.2414    1.0000 </r>
       <r>    3.2509    1.0000 </r>
       <r>    3.2786    1.0000 </r>
       <r>    3.3352    1.0000 </r>
       <r>    3.3753    1.0000 </r>
       <r>    3.4013    1.0000 </r>
       <r>    3.4069    1.0000 </r>
       <r>    3.4657    1.0000 </r>
       <r>    3.4911    1.0000 </r>
       <r>    3.5157    1.0000 </r>
       <r>    3.5847    1.0000 </r>
       <r>    3.5999    1.0000 </r>
       <r>    3.6709    1.0000 </r>
       <r>    3.7072    1.0000 </r>
       <r>    3.7228    1.0000 </r>
       <r>    3.8350    1.0000 </r>
       <r>    3.8579    1.0000 </r>
       <r>    3.9543    1.0000 </r>
       <r>    3.9764    1.0000 </r>
       <r>    4.0117    1.0000 </r>
       <r>    4.1444    1.0000 </r>
       <r>    4.1542    1.0000 </r>
       <r>    4.2199    1.0000 </r>
       <r>    4.2585    1.0000 </r>
       <r>    4.3203    1.0000 </r>
       <r>    4.3332    1.0000 </r>
       <r>    4.4239    1.0000 </r>
       <r>    4.4305    1.0000 </r>
       <r>    4.5152    1.0000 </r>
       <r>    4.5618    1.0000 </r>
       <r>    4.6107    1.0000 </r>
       <r>    4.6361    1.0000 </r>
       <r>    4.6377    1.0000 </r>
       <r>    4.6906    1.0000 </r>
       <r>    4.7146    1.0000 </r>
       <r>    4.7587    1.0000 </r>
       <r>    4.8624    0.0708 </r>
       <r>    4.8872    0.0000 </r>
       <r>    4.9042    0.0000 </r>
       <r>    4.9095    0.0000 </r>
       <r>    4.9655    0.0000 </r>
       <r>    4.9704    0.0000 </r>
       <r>    5.0670    0.0000 </r>
       <r>    5.1362    0.0000 </r>
       <r>    5.1598    0.0000 </r>
       <r>    5.1878    0.0000 </r>
       <r>    5.2301    0.0000 </r>
       <r>    5.2404    0.0000 </r>
       <r>    5.2896    0.0000 </r>
       <r>    5.3526    0.0000 </r>
       <r>    5.3968    0.0000 </r>
       <r>    5.4583    0.0000 </r>
       <r>    5.4913    0.0000 </r>
       <r>    5.5663    0.0000 </r>
       <r>    5.5837    0.0000 </r>
       <r>    5.6343    0.0000 </r>
       <r>    5.6367    0.0000 </r>
       <r>    5.7165    0.0000 </r>
       <r>    5.7216    0.0000 </r>
       <r>    5.7722    0.0000 </r>
       <r>    5.8644    0.0000 </r>
       <r>    5.9349    0.0000 </r>
       <r>    5.9562    0.0000 </r>
       <r>    6.0760    0.0000 </r>
       <r>    6.0818    0.0000 </r>
       <r>    6.1132    0.0000 </r>
       <r>    6.1161    0.0000 </r>
       <r>    6.2334    0.0000 </r>
       <r>    6.3295    0.0000 </r>
       <r>    6.4271    0.0000 </r>
       <r>    6.4505    0.0000 </r>
       <r>    6.4621    0.0000 </r>
       <r>    6.5722    0.0000 </r>
       <r>    6.6124    0.0000 </r>
       <r>    6.6517    0.0000 </r>
       <r>    6.7011    0.0000 </r>
       <r>    6.7942    0.0000 </r>
       <r>    6.8349    0.0000 </r>
       <r>    6.8818    0.0000 </r>
       <r>    6.9490    0.0000 </r>
       <r>    7.0457    0.0000 </r>
       <r>    7.0838    0.0000 </r>
       <r>    7.1238    0.0000 </r>
       <r>    7.1594    0.0000 </r>
      </set>
      <set comment="kpoint 2">
       <r>  -13.4380    1.0000 </r>
       <r>  -13.2224    1.0000 </r>
       <r>  -13.1307    1.0000 </r>
       <r>  -13.0634    1.0000 </r>
       <r>  -12.8111    1.0000 </r>
       <r>  -12.5837    1.0000 </r>
       <r>  -12.4164    1.0000 </r>
       <r>  -12.3298    1.0000 </r>
       <r>  -12.2015    1.0000 </r>
       <r>  -12.1645    1.0000 </r>
       <r>  -11.9045    1.0000 </r>
       <r>  -11.7909    1.0000 </r>
       <r>  -11.4409    1.0000 </r>
       <r>  -11.4283    1.0000 </r>
       <r>  -11.0099    1.0000 </r>
       <r>  -10.8243    1.0000 </r>
       <r>  -10.6879    1.0000 </r>
       <r>  -10.6848    1.0000 </r>
       <r>  -10.5269    1.0000 </r>
       <r>  -10.1548    1.0000 </r>
       <r>  -10.0780    1.0000 </r>
       <r>   -9.7790    1.0000 </r>
       <r>   -9.5843    1.0000 </r>
       <r>   -9.5506    1.0000 </r>
       <r>   -9.4977    1.0000 </r>
       <r>   -9.4429    1.0000 </r>
       <r>   -9.1379    1.0000 </r>
       <r>   -9.1071    1.0000 </r>
       <r>   -9.0224    1.0000 </r>
       <r>   -8.9418    1.0000 </r>
       <r>   -8.8213    1.0000 </r>
       <r>   -8.8013    1.0000 </r>
       <r>   -8.5737    1.0000 </r>
       <r>   -8.5518    1.0000 </r>
       <r>   -8.4130    1.0000 </r>
       <r>   -8.3386    1.0000 </r>
       <r>   -8.0925    1.0000 </r>
       <r>   -8.0125    1.0000 </r>
       <r>   -7.9488    1.0000 </r>
       <r>   -7.6864    1.0000 </r>
       <r>   -7.3323    1.0000 </r>
       <r>   -7.1593    1.0000 </r>
       <r>   -6.9574    1.0000 </r>
       <r>   -6.8032    1.0000 </r>
       <r>   -6.5822    1.0000 </r>
       <r>   -6.4543    1.0000 </r>
       <r>   -6.3625    1.0000 </r>
       <r>   -6.2537    1.0000 </r>
       <r>   -6.1903    1.0000 </r>
       <r>   -6.0650    1.0000 </r>
       <r>   -6.0498    1.0000 </r>
       <r>   -5.9083    1.0000 </r>
       <r>   -5.8643    1.0000 </r>
       <r>   -5.7250    1.0000 </r>
       <r>   -5.4181    1.0000 </r>
       <r>   -5.3067    1.0000 </r>
       <r>   -5.2873    1.0000 </r>
       <r>   -5.2364    1.0000 </r>
       <r>   -5.0519    1.0000 </r>
       <r>   -5.0461    1.0000 </r>
       <r>   -4.9585    1.0000 </r>
       <r>   -4.9463    1.0000 </r>
       <r>   -4.8613    1.0000 </r>
       <r>   -4.7030    1.0000 </r>
       <r>   -4.6997    1.0000 </r>
       <r>   -4.6356    1.0000 </r>
       <r>   -4.5864    1.0000 </r>
       <r>   -4.5555    1.0000 </r>
       <r>   -4.4734    1.0000 </r>
       <r>   -4.4245    1.0000 </r>
       <r>   -4.3071    1.0000 </r>
       <r>   -4.2520    1.0000 </r>
       <r>   -4.1865    1.0000 </r>
       <r>   -4.1774    1.0000 </r>
       <r>   -4.0617    1.0000 </r>
       <r>   -3.9969    1.0000 </r>
       <r>   -3.9827    1.0000 </r>
       <r>   -3.9213    1.0000 </r>
       <r>   -3.9148    1.0000 </r>
       <r>   -3.7944    1.0000 </r>
       <r>   -3.7342    1.0000 </r>
       <r>   -3.6285    1.0000 </r>
       <r>   -3.6022    1.0000 </r>
       <r>   -3.5482    1.0000 </r>
       <r>   -3.5102    1.0000 </r>
       <r>   -3.3604    1.0000 </r>
       <r>   -3.3107    1.0000 </r>
       <r>   -3.2558    1.0000 </r>
       <r>   -3.2495    1.0000 </r>
       <r>   -3.1471    1.0000 </r>
       <r>   -3.1144    1.0000 </r>
       <r>   -2.9950    1.0000 </r>
       <r>   -2.9670    1.0000 </r>
       <r>   -2.8928    1.0000 </r>
       <r>   -2.6724    1.0000 </r>
       <r>   -2.6051    1.0000 </r>
       <r>   -2.5200    1.0000 </r>
       <r>   -2.4768    1.0000 </r>
       <r>   -2.3087    1.0000 </r>
       <r>   -2.3038    1.0000 </r>
       <r>   -2.1867    1.0000 </r>
       <r>   -2.0506    1.0000 </r>
       <r>   -2.0378    1.0000 </r>
       <r>   -1.9433    1.0000 </r>
       <r>   -1.9362    1.0000 </r>
       <r>   -1.8285    1.0000 </r>
       <r>   -1.7884    1.0000 </r>
       <r>   -1.6982    1.0000 </r>
       <r>   -1.6642    1.0000 </r>
       <r>   -1.6512    1.0000 </r>
       <r>   -1.5498    1.0000 </r>
       <r>   -1.5140    1.0000 </r>
       <r>   -1.4744    1.0000 </r>
       <r>   -1.4208    1.0000 </r>
       <r>   -1.3218    1.0000 </r>
       <r>   -1.3048    1.0000 </r>
       <r>   -1.2020    1.0000 </r>
       <r>   -1.1134    1.0000 </r>
       <r>   -1.0900    1.0000 </r>
       <r>   -1.0728    1.0000 </r>
       <r>   -0.9709    1.0000 </r>
       <r>   -0.9405    1.0000 </r>
       <r>   -0.9364    1.0000 </r>
       <r>   -0.8629    1.0000 </r>
       <r>   -0.8295    1.0000 </r>
       <r>   -0.7933    1.0000 </r>
       <r>   -0.7843    1.0000 </r>
       <r>   -0.7618    1.0000 </r>
       <r>   -0.6907    1.0000 </r>
       <r>   -0.6828    1.0000 </r>
       <r>   -0.5282    1.0000 </r>
       <r>   -0.4656    1.0000 </r>
       <r>   -0.4454    1.0000 </r>
       <r>   -0.4100    1.0000 </r>
       <r>   -0.3465    1.0000 </r>
       <r>   -0.3268    1.0000 </r>
       <r>   -0.2471    1.0000 </r>
       <r>   -0.1737    1.0000 </r>
       <r>   -0.1231    1.0000 </r>
       <r>   -0.1093    1.0000 </r>
       <r>   -0.0319    1.0000 </r>
       <r>   -0.0002    1.0000 </r>
       <r>    0.0653    1.0000 </r>
       <r>    0.1137    1.0000 </r>
       <r>    0.2104    1.0000 </r>
       <r>    0.2298    1.0000 </r>
       <r>    0.3448    1.0000 </r>
       <r>    0.3928    1.0000 </r>
       <r>    0.4776    1.0000 </r>
       <r>    0.5166    1.0000 </r>
       <r>    0.5728    1.0000 </r>
       <r>    0.6406    1.0000 </r>
       <r>    0.6516    1.0000 </r>
       <r>    0.7184    1.0000 </r>
       <r>    0.8018    1.0000 </r>
       <r>    0.8248    1.0000 </r>
       <r>    0.9089    1.0000 </r>
       <r>    0.9532    1.0000 </r>
       <r>    0.9888    1.0000 </r>
       <r>    1.0536    1.0000 </r>
       <r>    1.0598    1.0000 </r>
       <r>    1.1329    1.0000 </r>
       <r>    1.1528    1.0000 </r>
       <r>    1.2459    1.0000 </r>
       <r>    1.2617    1.0000 </r>
       <r>    1.3614    1.0000 </r>
       <r>    1.4046    1.0000 </r>
       <r>    1.4694    1.0000 </r>
       <r>    1.4804    1.0000 </r>
       <r>    1.5012    1.0000 </r>
       <r>    1.5624    1.0000 </r>
       <r>    1.6604    1.0000 </r>
       <r>    1.7150    1.0000 </r>
       <r>    1.7775    1.0000 </r>
       <r>    1.8119    1.0000 </r>
       <r>    1.8850    1.0000 </r>
       <r>    1.9084    1.0000 </r>
       <r>    2.0065    1.0000 </r>
       <r>    2.0610    1.0000 </r>
       <r>    2.0618    1.0000 </r>
       <r>    2.1613    1.0000 </r>
[...]
       <r>    -9.8201     4.1995    44.0000 </r>
       <r>    -9.7437    13.0975    45.0000 </r>
       <r>    -9.6674    13.0882    45.9993 </r>
       <r>    -9.5910     1.1337    46.0866 </r>
       <r>    -9.5147    25.0625    48.0001 </r>
       <r>    -9.4383    12.5577    48.9589 </r>
       <r>    -9.3620    22.5133    50.6778 </r>
       <r>    -9.2856     8.5753    51.3333 </r>
       <r>    -9.2093     0.0000    51.3333 </r>
       <r>    -9.1329    26.2036    53.3340 </r>
       <r>    -9.0566    17.3473    54.6819 </r>
       <r>    -8.9802    17.2519    55.9995 </r>
       <r>    -8.9039    25.7111    57.9631 </r>
       <r>    -8.8275    26.9429    60.0479 </r>
       <r>    -8.7512    22.9400    61.7994 </r>
       <r>    -8.6748    14.9346    62.9972 </r>
       <r>    -8.5985    12.1310    63.9262 </r>
       <r>    -8.5221    36.2047    66.7451 </r>
       <r>    -8.4458     6.1529    67.2405 </r>
       <r>    -8.3694    23.1615    69.0376 </r>
       <r>    -8.2931    30.3392    71.3540 </r>
       <r>    -8.2167     3.9845    71.6667 </r>
       <r>    -8.1404    21.5892    73.3150 </r>
       <r>    -8.0640    17.1384    74.6635 </r>
       <r>    -7.9877    15.8983    75.8805 </r>
       <r>    -7.9113    24.8108    77.7876 </r>
       <r>    -7.8350    24.5458    79.6652 </r>
       <r>    -7.7586     3.8857    79.9633 </r>
       <r>    -7.6823     9.9759    80.7254 </r>
       <r>    -7.6059     7.9282    81.3333 </r>
       <r>    -7.5296     4.5293    81.6791 </r>
       <r>    -7.4532     4.2024    82.0000 </r>
       <r>    -7.3769     0.0000    82.0000 </r>
       <r>    -7.3005    10.2679    82.7839 </r>
       <r>    -7.2242     2.6849    83.0000 </r>
       <r>    -7.1478     5.4729    83.4179 </r>
       <r>    -7.0715     7.6247    84.0000 </r>
       <r>    -6.9951     1.8378    84.1403 </r>
       <r>    -6.9188    15.6256    85.3333 </r>
       <r>    -6.8424     0.0001    85.3333 </r>
       <r>    -6.7661    17.7125    86.6857 </r>
       <r>    -6.6897     8.4299    87.3333 </r>
       <r>    -6.6134     0.0000    87.3333 </r>
       <r>    -6.5370    10.1693    88.1098 </r>
       <r>    -6.4607    18.3351    89.5098 </r>
       <r>    -6.3843    17.7155    90.9126 </r>
       <r>    -6.3080    11.2985    91.8117 </r>
       <r>    -6.2316    32.4503    94.2966 </r>
       <r>    -6.1553    12.7850    95.3040 </r>
       <r>    -6.0789    19.2308    96.7847 </r>
       <r>    -6.0026    25.9234    98.7916 </r>
       <r>    -5.9262    25.5780   100.7618 </r>
       <r>    -5.8499    16.9006   102.0549 </r>
       <r>    -5.7735    27.8060   104.2187 </r>
       <r>    -5.6972    23.6611   106.0379 </r>
       <r>    -5.6208    20.3834   107.6432 </r>
       <r>    -5.5445    13.3274   108.6866 </r>
       <r>    -5.4681    21.4167   110.3322 </r>
       <r>    -5.3918    15.0927   111.5173 </r>
       <r>    -5.3154    20.6562   113.0972 </r>
       <r>    -5.2391    29.0870   115.3478 </r>
       <r>    -5.1627    18.1046   116.7903 </r>
       <r>    -5.0864    18.2017   118.1802 </r>
       <r>    -5.0100    36.7377   120.9851 </r>
       <r>    -4.9337    31.6789   123.4744 </r>
       <r>    -4.8573    31.8711   125.9397 </r>
       <r>    -4.7810    22.6509   127.7064 </r>
       <r>    -4.7046    25.8974   129.6845 </r>
       <r>    -4.6283    37.1157   132.5704 </r>
       <r>    -4.5519    30.0148   134.8622 </r>
       <r>    -4.4756    25.0073   136.8277 </r>
       <r>    -4.3993    34.0840   139.4839 </r>
       <r>    -4.3229    24.3600   141.4486 </r>
       <r>    -4.2466    34.5304   144.1068 </r>
       <r>    -4.1702    33.3415   146.6671 </r>
       <r>    -4.0939    22.0262   148.3978 </r>
       <r>    -4.0175    35.9750   151.1546 </r>
       <r>    -3.9412    27.9183   153.3538 </r>
       <r>    -3.8648    19.1101   154.9146 </r>
       <r>    -3.7885    30.4416   157.2584 </r>
       <r>    -3.7121    23.3223   159.0409 </r>
       <r>    -3.6358    22.6454   160.8358 </r>
       <r>    -3.5594    31.1105   163.2136 </r>
       <r>    -3.4831    42.0188   166.4715 </r>
       <r>    -3.4067    15.6768   167.7113 </r>
       <r>    -3.3304    25.3028   169.6919 </r>
       <r>    -3.2540    32.0126   172.1368 </r>
       <r>    -3.1777    26.5714   174.2178 </r>
       <r>    -3.1013    31.2853   176.6065 </r>
       <r>    -3.0250    27.7494   178.7583 </r>
       <r>    -2.9486    38.8098   181.7382 </r>
       <r>    -2.8723    27.0278   183.8294 </r>
       <r>    -2.7959    23.2806   185.6948 </r>
       <r>    -2.7196    25.9832   187.6786 </r>
       <r>    -2.6432    34.5421   190.3436 </r>
       <r>    -2.5669    19.5860   191.8713 </r>
       <r>    -2.4905    23.8293   193.6907 </r>
       <r>    -2.4142    36.4568   196.5005 </r>
       <r>    -2.3378    22.1232   198.2224 </r>
       <r>    -2.2615    26.4155   200.2398 </r>
       <r>    -2.1851    26.0947   202.2811 </r>
       <r>    -2.1088    29.8621   204.6557 </r>
       <r>    -2.0324    39.1368   207.6478 </r>
       <r>    -1.9561    27.2751   209.9345 </r>
       <r>    -1.8797    33.0575   212.4748 </r>
       <r>    -1.8034    25.0230   214.4054 </r>
       <r>    -1.7270    35.6411   217.1744 </r>
       <r>    -1.6507    34.6990   219.8367 </r>
       <r>    -1.5743    31.5722   222.3075 </r>
       <r>    -1.4980    34.9364   225.0104 </r>
       <r>    -1.4216    37.6747   227.9775 </r>
       <r>    -1.3453    20.9958   229.6480 </r>
       <r>    -1.2689    36.0832   232.4082 </r>
       <r>    -1.1926    32.2123   234.8717 </r>
       <r>    -1.1162    37.2473   237.7706 </r>
       <r>    -1.0399    29.5475   240.1077 </r>
       <r>    -0.9635    35.5122   242.8344 </r>
       <r>    -0.8872    37.5503   245.8068 </r>
       <r>    -0.8108    48.3270   249.6343 </r>
       <r>    -0.7345    37.8964   252.6381 </r>
       <r>    -0.6581    37.5616   255.5625 </r>
       <r>    -0.5818    40.3441   258.6683 </r>
       <r>    -0.5054    31.4294   261.1100 </r>
       <r>    -0.4291    42.7958   264.3963 </r>
       <r>    -0.3527    37.7343   267.3972 </r>
       <r>    -0.2764    33.8646   270.0057 </r>
       <r>    -0.2000    39.7451   273.1423 </r>
       <r>    -0.1237    40.5823   276.2888 </r>
       <r>    -0.0473    33.8117   278.9375 </r>
       <r>     0.0290    32.3235   281.4302 </r>
       <r>     0.1054    48.2122   285.1470 </r>
       <r>     0.1817    36.0519   287.9304 </r>
       <r>     0.2581    34.6314   290.6459 </r>
       <r>     0.3344    31.1361   293.0429 </r>
       <r>     0.4108    38.9748   296.0457 </r>
       <r>     0.4871    29.8359   298.3953 </r>
       <r>     0.5635    39.4605   301.4291 </r>
       <r>     0.6398    31.5061   303.9128 </r>
       <r>     0.7162    41.9577   307.1461 </r>
       <r>     0.7925    38.6891   310.1459 </r>
       <r>     0.8689    36.3727   312.9733 </r>
       <r>     0.9452    38.1572   315.9650 </r>
       <r>     1.0216    41.7978   319.1563 </r>
       <r>     1.0979    38.9690   322.1568 </r>
       <r>     1.1743    37.2797   325.0324 </r>
       <r>     1.2506    41.7251   328.2383 </r>
       <r>     1.3270    30.1331   330.6348 </r>
       <r>     1.4033    38.3024   333.6105 </r>
       <r>     1.4797    38.2172   336.5305 </r>
       <r>     1.5560    42.6877   339.8009 </r>
       <r>     1.6324    37.8218   342.7707 </r>
       <r>     1.7087    42.7684   346.0417 </r>
       <r>     1.7851    41.4375   349.2363 </r>
       <r>     1.8614    45.9009   352.7584 </r>
       <r>     1.9378    42.5523   356.0487 </r>
       <r>     2.0141    35.7167   358.8029 </r>
       <r>     2.0905    35.9309   361.5749 </r>
       <r>     2.1668    45.0187   365.0288 </r>
       <r>     2.2432    51.7874   368.9875 </r>
       <r>     2.3195    44.9489   372.4936 </r>
       <r>     2.3959    40.7013   375.7287 </r>
       <r>     2.4722    39.4960   378.7906 </r>
       <r>     2.5486    58.5739   383.3314 </r>
       <r>     2.6249    28.4427   385.5770 </r>
       <r>     2.7013    54.2585   389.7426 </r>
       <r>     2.7776    45.3553   393.3165 </r>
       <r>     2.8540    42.4906   396.5985 </r>
       <r>     2.9303    37.9738   399.5532 </r>
       <r>     3.0067    47.7761   403.3332 </r>
       <r>     3.0830    46.9557   407.0014 </r>
       <r>     3.1594    35.4934   409.7437 </r>
       <r>     3.2357    48.4596   413.4942 </r>
       <r>     3.3121    29.7035   415.8136 </r>
       <r>     3.3884    39.7346   418.8864 </r>
       <r>     3.4648    49.7379   422.7348 </r>
       <r>     3.5411    35.5093   425.4893 </r>
       <r>     3.6175    37.4257   428.4020 </r>
       <r>     3.6938    47.3352   432.0386 </r>
       <r>     3.7702    40.5365   435.3097 </r>
       <r>     3.8465    38.0836   438.3111 </r>
       <r>     3.9229    32.6584   440.8813 </r>
       <r>     3.9992    47.8084   444.5619 </r>
       <r>     4.0756    40.2622   447.7331 </r>
       <r>     4.1519    37.3581   450.5914 </r>
       <r>     4.2283    33.7099   453.2031 </r>
       <r>     4.3046    40.0815   456.3562 </r>
       <r>     4.3810    35.2926   459.0773 </r>
       <r>     4.4573    43.4323   462.4611 </r>
       <r>     4.5337    41.2003   465.6518 </r>
       <r>     4.6100    44.5256   469.0981 </r>
       <r>     4.6864    45.4430   472.6435 </r>
       <r>     4.7627    47.3874   476.2932 </r>
       <r>     4.8391    43.3365   479.7279 </r>
       <r>     4.9154    33.0535   482.3381 </r>
       <r>     4.9918    52.0312   486.3823 </r>
       <r>     5.0681    41.5002   489.6382 </r>
       <r>     5.1445    42.9728   492.9756 </r>
       <r>     5.2208    49.5538   496.8519 </r>
       <r>     5.2972    39.8322   499.9546 </r>
       <r>     5.3735    53.0032   504.0193 </r>
       <r>     5.4499    37.7213   507.0205 </r>
       <r>     5.5262    42.2593   510.2479 </r>
       <r>     5.6026    41.3354   513.4311 </r>
       <r>     5.6789    57.4862   517.8249 </r>
       <r>     5.7553    40.5887   520.9773 </r>
       <r>     5.8316    41.7633   524.2178 </r>
       <r>     5.9080    32.3610   526.7513 </r>
       <r>     5.9843    35.6889   529.4956 </r>
       <r>     6.0607    42.8802   532.7785 </r>
       <r>     6.1370    30.7207   535.1834 </r>
       <r>     6.2134    23.7614   537.0242 </r>
       <r>     6.2897    37.3350   539.9158 </r>
       <r>     6.3660    40.1641   542.9995 </r>
       <r>     6.4424    34.6634   545.6519 </r>
       <r>     6.5187    32.8412   548.1876 </r>
       <r>     6.5951    35.7634   550.9446 </r>
       <r>     6.6714    36.1609   553.7181 </r>
       <r>     6.7478    35.6832   556.4844 </r>
       <r>     6.8241    37.5859   559.4316 </r>
       <r>     6.9005    37.8640   562.3345 </r>
       <r>     6.9768    33.9846   565.0077 </r>
       <r>     7.0532    42.4431   568.3010 </r>
       <r>     7.1295    36.7801   571.1716 </r>
       <r>     7.2059    26.4271   573.2648 </r>
       <r>     7.2822    31.7276   575.7470 </r>
       <r>     7.3586     3.1746   576.0000 </r>
       <r>     7.4349     0.0000   576.0000 </r>
       <r>     7.5113     0.0000   576.0000 </r>
       <r>     7.5876     0.0000   576.0000 </r>
       <r>     7.6640     0.0000   576.0000 </r>
       <r>     7.7403     0.0000   576.0000 </r>
       <r>     7.8167     0.0000   576.0000 </r>
       <r>     7.8930     0.0000   576.0000 </r>
       <r>     7.9694     0.0000   576.0000 </r>
       <r>     8.0457     0.0000   576.0000 </r>
       <r>     8.1221     0.0000   576.0000 </r>
       <r>     8.1984     0.0000   576.0000 </r>
       <r>     8.2748     0.0000   576.0000 </r>
       <r>     8.3511     0.0000   576.0000 </r>
      </set>
     </set>
    </array>
   </total>
  </dos>
 </calculation>
 <structure name="finalpos" >
  <crystal>
   <varray name="basis" >
    <v>      13.30317974       0.00000000       0.00000000 </v>
    <v>       6.65158939      14.87340641       0.00000000 </v>
    <v>       0.00000000       0.00000000       7.59944105 </v>
   </varray>
   <i name="volume">   1503.65275547 </i>
   <varray name="rec_basis" >
    <v>       0.07517000      -0.03361704       0.00000000 </v>
    <v>       0.00000000       0.06723409       0.00000000 </v>
    <v>       0.00000000       0.00000000       0.13158863 </v>
   </varray>
  </crystal>
  <varray name="positions" >
   <v>       0.98290563       0.65811950       0.00000000 </v>
   <v>       0.78290558       0.55811930       0.15980242 </v>
   <v>       0.58290541       0.45811909       0.31960484 </v>
   <v>       0.98290563       0.32478613       0.00000000 </v>
   <v>       0.78290558       0.22478597       0.15980242 </v>
   <v>       0.58290541       0.12478580       0.31960484 </v>
   <v>       0.98290563       0.99145281       0.00000000 </v>
   <v>       0.78290558       0.89145267       0.15980242 </v>
   <v>       0.58290541       0.79145253       0.31960484 </v>
   <v>       0.63290566       0.69145268       0.07990104 </v>
   <v>       0.43290559       0.59145248       0.23970348 </v>
   <v>       0.23290552       0.49145243       0.39950588 </v>
   <v>       0.63290566       0.35811943       0.07990104 </v>
   <v>       0.43290559       0.25811928       0.23970348 </v>
   <v>       0.23290552       0.15811914       0.39950588 </v>
   <v>       0.63290566       0.02478614       0.07990104 </v>
   <v>       0.43290559       0.92478597       0.23970348 </v>
   <v>       0.23290552       0.82478583       0.39950588 </v>
   <v>       0.48290563       0.65811950       0.00000000 </v>
   <v>       0.28290555       0.55811930       0.15980242 </v>
   <v>       0.08290544       0.45811909       0.31960484 </v>
   <v>       0.48290563       0.32478613       0.00000000 </v>
   <v>       0.28290555       0.22478595       0.15980242 </v>
   <v>       0.08290544       0.12478581       0.31960484 </v>
   <v>       0.48290563       0.99145281       0.00000000 </v>
   <v>       0.28290555       0.89145267       0.15980242 </v>
   <v>       0.08290544       0.79145253       0.31960484 </v>
   <v>       0.13290568       0.69145274       0.07990106 </v>
   <v>       0.93290555       0.59145248       0.23970348 </v>
   <v>       0.73290551       0.49145240       0.39950588 </v>
   <v>       0.13290568       0.35811949       0.07990106 </v>
   <v>       0.93290555       0.25811928       0.23970348 </v>
   <v>       0.73290551       0.15811913       0.39950588 </v>
   <v>       0.13290568       0.02478614       0.07990106 </v>
   <v>       0.93290555       0.92478597       0.23970348 </v>
   <v>       0.73290551       0.82478583       0.39950588 </v>
   <v>       0.71127868       0.91353124       0.77846551 </v>
   <v>       0.05413568       0.94210291       0.56856549 </v>
   <v>       0.38270712       0.92781711       0.67351544 </v>
   <v>       0.99699283       0.77067417       0.77846551 </v>
   <v>       0.33984995       0.79924578       0.56856549 </v>
   <v>       0.66842151       0.78495997       0.67351544 </v>
   <v>       0.28270709       0.62781703       0.77846551 </v>
   <v>       0.62556422       0.65638864       0.56856549 </v>
   <v>       0.95413566       0.64210284       0.67351544 </v>
   <v>       0.56842148       0.48495987       0.77846545 </v>
   <v>       0.91127860       0.51353145       0.56856543 </v>
   <v>       0.23985004       0.49924570       0.67351544 </v>
   <v>       0.85413575       0.34210274       0.77846545 </v>
   <v>       0.19699287       0.37067434       0.56856543 </v>
   <v>       0.52556419       0.35638857       0.67351544 </v>
   <v>       0.13985002       0.19924560       0.77846545 </v>
   <v>       0.48270702       0.22781721       0.56856543 </v>
   <v>       0.81127858       0.21353144       0.67351544 </v>
   <v>       0.42556441       0.05638850       0.77846551 </v>
   <v>       0.76842141       0.08495998       0.56856543 </v>
   <v>       0.09699297       0.07067430       0.67351550 </v>
   <v>       0.16127849       0.01353121       0.83094037 </v>
   <v>       0.50413561       0.04210281       0.62104040 </v>
   <v>       0.83270705       0.02781701       0.72599047 </v>
   <v>       0.44699275       0.87067413       0.83094037 </v>
   <v>       0.78984988       0.89924574       0.62104040 </v>
   <v>       0.11842132       0.88495988       0.72599047 </v>
   <v>       0.73270702       0.72781700       0.83094043 </v>
   <v>       0.07556415       0.75638860       0.62104028 </v>
   <v>       0.40413570       0.74210280       0.72599041 </v>
   <v>       0.01842141       0.58495992       0.83094031 </v>
   <v>       0.36127853       0.61353147       0.62104028 </v>
   <v>       0.68984985       0.59924573       0.72599041 </v>
   <v>       0.30413580       0.44210282       0.83094043 </v>
   <v>       0.64699292       0.47067440       0.62104028 </v>
   <v>       0.97556424       0.45638862       0.72599036 </v>
   <v>       0.58984995       0.29924563       0.83094043 </v>
   <v>       0.93270713       0.32781720       0.62104040 </v>
   <v>       0.26127863       0.31353140       0.72599041 </v>
   <v>       0.87556434       0.15638848       0.83094031 </v>
   <v>       0.21842146       0.18496007       0.62104040 </v>
   <v>       0.54699278       0.17067429       0.72599041 </v>
   <v>       0.21127856       0.91353130       0.77846545 </v>
   <v>       0.55413568       0.94210279       0.56856543 </v>
   <v>       0.88270700       0.92781711       0.67351550 </v>
   <v>       0.49699306       0.77067417       0.77846551 </v>
   <v>       0.83985007       0.79924578       0.56856543 </v>
   <v>       0.16842151       0.78495997       0.67351544 </v>
   <v>       0.78270733       0.62781703       0.77846551 </v>
   <v>       0.12556434       0.65638864       0.56856543 </v>
   <v>       0.45413578       0.64210284       0.67351544 </v>
   <v>       0.06842148       0.48495993       0.77846551 </v>
   <v>       0.41127849       0.51353151       0.56856543 </v>
   <v>       0.73984993       0.49924573       0.67351544 </v>
   <v>       0.35413563       0.34210286       0.77846551 </v>
   <v>       0.69699287       0.37067437       0.56856543 </v>
   <v>       0.02556431       0.35638857       0.67351544 </v>
   <v>       0.63985014       0.19924563       0.77846551 </v>
   <v>       0.98270714       0.22781718       0.56856549 </v>
   <v>       0.31127858       0.21353140       0.67351550 </v>
   <v>       0.92556429       0.05638850       0.77846551 </v>
   <v>       0.26842141       0.08496010       0.56856549 </v>
   <v>       0.59699285       0.07067430       0.67351550 </v>
   <v>       0.66127849       0.01353133       0.83094037 </v>
   <v>       0.00413561       0.04210293       0.62104040 </v>
   <v>       0.33270705       0.02781701       0.72599041 </v>
   <v>       0.94699287       0.87067419       0.83094037 </v>
   <v>       0.28985000       0.89924580       0.62104040 </v>
   <v>       0.61842132       0.88495994       0.72599041 </v>
   <v>       0.23270714       0.72781700       0.83094037 </v>
   <v>       0.57556438       0.75638860       0.62104040 </v>
   <v>       0.90413582       0.74210274       0.72599041 </v>
   <v>       0.51842129       0.58495992       0.83094031 </v>
   <v>       0.86127853       0.61353141       0.62104028 </v>
   <v>       0.18984997       0.59924567       0.72599041 </v>
   <v>       0.80413580       0.44210276       0.83094031 </v>
   <v>       0.14699292       0.47067434       0.62104028 </v>
   <v>       0.47556436       0.45638856       0.72599041 </v>
   <v>       0.08984983       0.29924557       0.83094037 </v>
   <v>       0.43270707       0.32781717       0.62104028 </v>
   <v>       0.76127839       0.31353140       0.72599041 </v>
   <v>       0.37556422       0.15638855       0.83094031 </v>
   <v>       0.71842146       0.18496005       0.62104040 </v>
   <v>       0.04699278       0.17067428       0.72599041 </v>
  </varray>
 </structure>
</modeling>
