Si and Ge interface calculation         
           1
    13.303180    0.000000    0.000000
     6.651589   14.873406    0.000000
     0.000000    0.000000    7.599441
   Si   C 
    36    84
Direct configuration=     1
   0.98290563  0.65811950  0.00000000
   0.78290558  0.55811930  0.15980242
   0.58290541  0.45811909  0.31960484
   0.98290563  0.32478613  0.00000000
   0.78290558  0.22478597  0.15980242
   0.58290541  0.12478580  0.31960484
   0.98290563  0.99145281  0.00000000
   0.78290558  0.89145267  0.15980242
   0.58290541  0.79145253  0.31960484
   0.63290566  0.69145268  0.07990104
   0.43290559  0.59145248  0.23970348
   0.23290552  0.49145243  0.39950588
   0.63290566  0.35811943  0.07990104
   0.43290559  0.25811928  0.23970348
   0.23290552  0.15811914  0.39950588
   0.63290566  0.02478614  0.07990104
   0.43290559  0.92478597  0.23970348
   0.23290552  0.82478583  0.39950588
   0.48290563  0.65811950  0.00000000
   0.28290555  0.55811930  0.15980242
   0.08290544  0.45811909  0.31960484
   0.48290563  0.32478613  0.00000000
   0.28290555  0.22478595  0.15980242
   0.08290544  0.12478581  0.31960484
   0.48290563  0.99145281  0.00000000
   0.28290555  0.89145267  0.15980242
   0.08290544  0.79145253  0.31960484
   0.13290568  0.69145274  0.07990106
   0.93290555  0.59145248  0.23970348
   0.73290551  0.49145240  0.39950588
   0.13290568  0.35811949  0.07990106
   0.93290555  0.25811928  0.23970348
   0.73290551  0.15811913  0.39950588
   0.13290568  0.02478614  0.07990106
   0.93290555  0.92478597  0.23970348
   0.73290551  0.82478583  0.39950588
   0.71127868  0.91353124  0.77846551
   0.05413568  0.94210291  0.56856549
   0.38270712  0.92781711  0.67351544
   0.99699283  0.77067417  0.77846551
   0.33984995  0.79924578  0.56856549
   0.66842151  0.78495997  0.67351544
   0.28270709  0.62781703  0.77846551
   0.62556422  0.65638864  0.56856549
   0.95413566  0.64210284  0.67351544
   0.56842148  0.48495987  0.77846545
   0.91127860  0.51353145  0.56856543
   0.23985004  0.49924570  0.67351544
   0.85413575  0.34210274  0.77846545
   0.19699287  0.37067434  0.56856543
   0.52556419  0.35638857  0.67351544
   0.13985002  0.19924560  0.77846545
   0.48270702  0.22781721  0.56856543
   0.81127858  0.21353144  0.67351544
   0.42556441  0.05638850  0.77846551
   0.76842141  0.08495998  0.56856543
   0.09699297  0.07067430  0.67351550
   0.16127849  0.01353121  0.83094037
   0.50413561  0.04210281  0.62104040
   0.83270705  0.02781701  0.72599047
   0.44699275  0.87067413  0.83094037
   0.78984988  0.89924574  0.62104040
   0.11842132  0.88495988  0.72599047
   0.73270702  0.72781700  0.83094043
   0.07556415  0.75638860  0.62104028
   0.40413570  0.74210280  0.72599041
   0.01842141  0.58495992  0.83094031
   0.36127853  0.61353147  0.62104028
   0.68984985  0.59924573  0.72599041
   0.30413580  0.44210282  0.83094043
   0.64699292  0.47067440  0.62104028
   0.97556424  0.45638862  0.72599036
   0.58984995  0.29924563  0.83094043
   0.93270713  0.32781720  0.62104040
   0.26127863  0.31353140  0.72599041
   0.87556434  0.15638848  0.83094031
   0.21842146  0.18496007  0.62104040
   0.54699278  0.17067429  0.72599041
   0.21127856  0.91353130  0.77846545
   0.55413568  0.94210279  0.56856543
   0.88270700  0.92781711  0.67351550
   0.49699306  0.77067417  0.77846551
   0.83985007  0.79924578  0.56856543
   0.16842151  0.78495997  0.67351544
   0.78270733  0.62781703  0.77846551
   0.12556434  0.65638864  0.56856543
   0.45413578  0.64210284  0.67351544
   0.06842148  0.48495993  0.77846551
   0.41127849  0.51353151  0.56856543
   0.73984993  0.49924573  0.67351544
   0.35413563  0.34210286  0.77846551
   0.69699287  0.37067437  0.56856543
   0.02556431  0.35638857  0.67351544
   0.63985014  0.19924563  0.77846551
   0.98270714  0.22781718  0.56856549
   0.31127858  0.21353140  0.67351550
   0.92556429  0.05638850  0.77846551
   0.26842141  0.08496010  0.56856549
   0.59699285  0.07067430  0.67351550
   0.66127849  0.01353133  0.83094037
   0.00413561  0.04210293  0.62104040
   0.33270705  0.02781701  0.72599041
   0.94699287  0.87067419  0.83094037
   0.28985000  0.89924580  0.62104040
   0.61842132  0.88495994  0.72599041
   0.23270714  0.72781700  0.83094037
   0.57556438  0.75638860  0.62104040
   0.90413582  0.74210274  0.72599041
   0.51842129  0.58495992  0.83094031
   0.86127853  0.61353141  0.62104028
   0.18984997  0.59924567  0.72599041
   0.80413580  0.44210276  0.83094031
   0.14699292  0.47067434  0.62104028
   0.47556436  0.45638856  0.72599041
   0.08984983  0.29924557  0.83094037
   0.43270707  0.32781717  0.62104028
   0.76127839  0.31353140  0.72599041
   0.37556422  0.15638855  0.83094031
   0.71842146  0.18496005  0.62104040
   0.04699278  0.17067428  0.72599041
