 vasp.6.4.3 19Mar24 (build Oct 22 2024 11:23:12) complex                        
  
 executed on             LinuxIFC date 2025.04.30  10:08:24
 running   16 mpi-ranks, on    1 nodes
 distrk:  each k-point on   16 cores,    1 groups
 distr:  one band on NCORE=  16 cores,    1 groups


--------------------------------------------------------------------------------------------------------


 INCAR:
   SYSTEM = Si011 and Ge011 interface calculation
   ISTART = 0
   ICHARG = 2
   LWAVE = .FALSE.
   LREAL = AUTO
   ENCUT = 700
   ENAUG = 900
   ADDGRID = .TRUE.
   LMAXMIX = 6
   LASPH = .TRUE.
   LMIXTAU = .TRUE.
   NCORE = 16
   NELM = 100
   NBANDS = 116
   EDIFF = 1d-7
   AMIX = 0.6
   ISMEAR = 0
   SIGMA = 0.01
   NELECT = 192
   ISPIN = 2
   NUPDOWN = 1
   LVTOT = .FALSE.
   LVHAR = .TRUE.

 POTCAR:    PAW_PBE Si 05Jan2001                  
 POTCAR:    PAW_PBE Ge 05Jan2001                  
 -----------------------------------------------------------------------------
|                                                                             |
|           W    W    AA    RRRRR   N    N  II  N    N   GGGG   !!!           |
|           W    W   A  A   R    R  NN   N  II  NN   N  G    G  !!!           |
|           W    W  A    A  R    R  N N  N  II  N N  N  G       !!!           |
|           W WW W  AAAAAA  RRRRR   N  N N  II  N  N N  G  GGG   !            |
|           WW  WW  A    A  R   R   N   NN  II  N   NN  G    G                |
|           W    W  A    A  R    R  N    N  II  N    N   GGGG   !!!           |
|                                                                             |
|     You use a magnetic or noncollinear calculation, but did not specify     |
|     the initial magnetic moment with the MAGMOM tag. Note that a            |
|     default of 0.021 will be used for all atoms. This ferromagnetic         |
|     setup may break the symmetry of the crystal, in particular it may       |
|     rule out finding an antiferromagnetic solution. Thence, we              |
|     recommend setting the initial magnetic moment manually or verifying     |
|     carefully that this magnetic setup is desired.                          |
|                                                                             |
 -----------------------------------------------------------------------------

 -----------------------------------------------------------------------------
|                                                                             |
|           W    W    AA    RRRRR   N    N  II  N    N   GGGG   !!!           |
|           W    W   A  A   R    R  NN   N  II  NN   N  G    G  !!!           |
|           W    W  A    A  R    R  N N  N  II  N N  N  G       !!!           |
|           W WW W  AAAAAA  RRRRR   N  N N  II  N  N N  G  GGG   !            |
|           WW  WW  A    A  R   R   N   NN  II  N   NN  G    G                |
|           W    W  A    A  R    R  N    N  II  N    N   GGGG   !!!           |
|                                                                             |
|     For optimal performance we recommend to set                             |
|       NCORE = 2 up to number-of-cores-per-socket                            |
|     NCORE specifies how many cores store one orbital (NPAR=cpu/NCORE).      |
|     This setting can greatly improve the performance of VASP for DFT.       |
|     The default, NCORE=1 might be grossly inefficient on modern             |
|     multi-core architectures or massively parallel machines. Do your        |
|     own testing! More info at https://www.vasp.at/wiki/index.php/NCORE      |
|     Unfortunately you need to use the default for GW and RPA                |
|     calculations (for HF NCORE is supported but not extensively tested      |
|     yet).                                                                   |
|                                                                             |
 -----------------------------------------------------------------------------

 POTCAR:    PAW_PBE Si 05Jan2001                  
   VRHFIN =Si: s2p2                                                                                 
   LEXCH  = PE                                                                                      
   EATOM  =   103.0669 eV,    7.5752 Ry                                                             
                                                                                                    
   TITEL  = PAW_PBE Si 05Jan2001                                                                    
   LULTRA =        F    use ultrasoft PP ?                                                          
   IUNSCR =        1    unscreen: 0-lin 1-nonlin 2-no                                               
   RPACOR =    1.500    partial core radius                                                         
   POMASS =   28.085; ZVAL   =    4.000    mass and valenz                                          
   RCORE  =    1.900    outmost cutoff radius                                                       
   RWIGS  =    2.480; RWIGS  =    1.312    wigner-seitz radius (au A)                               
   ENMAX  =  245.345; ENMIN  =  184.009 eV                                                          
   ICORE  =        2    local potential                                                             
   LCOR   =        T    correct aug charges                                                         
   LPAW   =        T    paw PP                                                                      
   EAUG   =  322.069                                                                                
   DEXC   =    0.000                                                                                
   RMAX   =    1.950    core radius for proj-oper                                                   
   RAUG   =    1.300    factor for augmentation sphere                                              
   RDEP   =    1.993    radius for radial grids                                                     
   RDEPT  =    1.837    core radius for aug-charge                                                  
                                                                                                    
   Atomic configuration                                                                             
    6 entries                                                                                       
     n  l   j            E        occ.                                                              
     1  0  0.50     -1785.8828   2.0000                                                             
     2  0  0.50      -139.4969   2.0000                                                             
     2  1  1.50       -95.5546   6.0000                                                             
     3  0  0.50       -10.8127   2.0000                                                             
     3  1  0.50        -4.0811   2.0000                                                             
     3  2  1.50        -4.0817   0.0000                                                             
   Description                                                                                      
     l       E           TYP  RCUT    TYP  RCUT                                                     
     0    -10.8127223     23  1.900                                                                 
     0     -7.6451159     23  1.900                                                                 
     1     -4.0811372     23  1.900                                                                 
     1      2.4879257     23  1.900                                                                 
     2     -4.0817478      7  1.900                                                                 
  local pseudopotential read in
  partial core-charges read in
  partial kinetic energy density read in
  atomic valenz-charges read in
  non local Contribution for L=           0  read in
    real space projection operators read in
  non local Contribution for L=           0  read in
    real space projection operators read in
  non local Contribution for L=           1  read in
    real space projection operators read in
  non local Contribution for L=           1  read in
    real space projection operators read in
    PAW grid and wavefunctions read in
 
   number of l-projection  operators is LMAX  =           4
   number of lm-projection operators is LMMAX =           8
 
 POTCAR:    PAW_PBE Ge 05Jan2001                  
   VRHFIN =Ge: s2p2                                                                                 
   LEXCH  = PE                                                                                      
   EATOM  =   104.9960 eV,    7.7170 Ry                                                             
                                                                                                    
   TITEL  = PAW_PBE Ge 05Jan2001                                                                    
   LULTRA =        F    use ultrasoft PP ?                                                          
   IUNSCR =        1    unscreen: 0-lin 1-nonlin 2-no                                               
   RPACOR =    2.170    partial core radius                                                         
   POMASS =   72.610; ZVAL   =    4.000    mass and valenz                                          
   RCORE  =    2.300    outmost cutoff radius                                                       
   RWIGS  =    2.300; RWIGS  =    1.217    wigner-seitz radius (au A)                               
   ENMAX  =  173.807; ENMIN  =  130.355 eV                                                          
   ICORE  =        3    local potential                                                             
   LCOR   =        T    correct aug charges                                                         
   LPAW   =        T    paw PP                                                                      
   EAUG   =  385.843                                                                                
   DEXC   =    0.000                                                                                
   RMAX   =    2.342    core radius for proj-oper                                                   
   RAUG   =    1.300    factor for augmentation sphere                                              
   RDEP   =    2.318    radius for radial grids                                                     
   RDEPT  =    2.103    core radius for aug-charge                                                  
                                                                                                    
   Atomic configuration                                                                             
   10 entries                                                                                       
     n  l   j            E        occ.                                                              
     1  0  0.50    -10959.8463   2.0000                                                             
     2  0  0.50     -1371.6056   2.0000                                                             
     2  1  1.50     -1198.4791   6.0000                                                             
     3  0  0.50      -168.4733   2.0000                                                             
     3  1  1.50      -115.6019   6.0000                                                             
     3  2  2.50       -29.3106  10.0000                                                             
     4  0  0.50       -11.7309   2.0000                                                             
     4  1  0.50        -3.8952   2.0000                                                             
     4  2  1.50        -4.0817   0.0000                                                             
     4  3  2.50        -4.0817   0.0000                                                             
   Description                                                                                      
     l       E           TYP  RCUT    TYP  RCUT                                                     
     0    -11.7309493     23  2.300                                                                 
     0     -7.4578696     23  2.300                                                                 
     1     -3.8952261     23  2.300                                                                 
     1      6.1178114     23  2.300                                                                 
     2     -4.0817478     23  2.300                                                                 
     3     -1.3605826      7  2.300                                                                 
  local pseudopotential read in
  partial core-charges read in
  partial kinetic energy density read in
  atomic valenz-charges read in
  non local Contribution for L=           0  read in
    real space projection operators read in
  non local Contribution for L=           0  read in
    real space projection operators read in
  non local Contribution for L=           1  read in
    real space projection operators read in
  non local Contribution for L=           1  read in
    real space projection operators read in
  non local Contribution for L=           2  read in
    real space projection operators read in
    PAW grid and wavefunctions read in
 
   number of l-projection  operators is LMAX  =           5
   number of lm-projection operators is LMMAX =          13
 
 Optimization of the real space projectors (new method)

 maximal supplied QI-value         = 19.84
 optimisation between [QCUT,QGAM] = [ 13.49, 26.99] = [ 50.98,203.92] Ry 
 Optimized for a Real-space Cutoff    1.07 Angstroem

   l    n(q)    QCUT    max X(q) W(low)/X(q) W(high)/X(q)  e(spline) 
   0      9    13.493   159.560    0.22E-03    0.15E-03    0.72E-07
   0      9    13.493   115.863    0.21E-03    0.15E-03    0.71E-07
   1      8    13.493    88.339    0.15E-03    0.11E-03    0.13E-06
   1      8    13.493    48.592    0.15E-03    0.10E-03    0.13E-06
 Optimization of the real space projectors (new method)

 maximal supplied QI-value         = 16.25
 optimisation between [QCUT,QGAM] = [ 13.49, 26.98] = [ 50.95,203.80] Ry 
 Optimized for a Real-space Cutoff    1.25 Angstroem

   l    n(q)    QCUT    max X(q) W(low)/X(q) W(high)/X(q)  e(spline) 
   0     10    13.489    65.336    0.91E-04    0.11E-03    0.34E-06
   0     10    13.489    52.220    0.89E-04    0.11E-03    0.34E-06
   1     10    13.489    36.409    0.22E-03    0.27E-03    0.14E-06
   1     10    13.489    21.334    0.21E-03    0.27E-03    0.14E-06
   2      9    13.489     4.673    0.11E-03    0.12E-03    0.19E-06
  PAW_PBE Si 05Jan2001                  :
 energy of atom  1       EATOM= -103.0669
 kinetic energy error for atom=    0.0003 (will be added to EATOM!!)
  PAW_PBE Ge 05Jan2001                  :
 energy of atom  2       EATOM= -104.9960
 kinetic energy error for atom=    0.0001 (will be added to EATOM!!)
 
 
 POSCAR: fcc Si+fcc Ge
  positions in direct lattice
  No initial velocities read in


 exchange-correlation table for PE
   RHO(1)=    0.500       N(1)  =     2000
   RHO(2)=  100.500       N(2)  =     4000
 


--------------------------------------------------------------------------------------------------------


 ion  position               nearest neighbor table
   1  0.917  0.011  0.902-  30 2.37  36 2.37  29 2.43  42 2.46
   2  0.250  0.750  0.079-  19 2.37  14 2.37  20 2.37  15 2.37
   3  0.500  0.500  0.158-  16 2.37  15 2.37  21 2.37  20 2.37
   4  0.750  0.250  0.237-  21 2.37  17 2.37  16 2.37  22 2.37
   5  0.000  0.000  0.316-  18 2.37  22 2.37  17 2.37  23 2.37
   6  0.167  0.761  0.494-  25 2.37  31 2.37  32 2.43  37 2.46
   7  0.417  0.511  0.902-  36 2.37  30 2.37  35 2.43  48 2.46
   8  0.750  0.250  0.079-  13 2.37  20 2.37  14 2.37  21 2.37
   9  0.000  0.000  0.158-  22 2.37  21 2.37  15 2.37  14 2.37
  10  0.250  0.750  0.237-  15 2.37  23 2.37  22 2.37  16 2.37
  11  0.500  0.500  0.316-  24 2.37  16 2.37  23 2.37  17 2.37
  12  0.667  0.261  0.494-  31 2.37  25 2.37  26 2.43  43 2.46
  13  0.000  0.250  0.000-   8 2.37  42 2.37  48 2.37  30 2.46
  14  0.250  0.000  0.079-  42 2.37   8 2.37   2 2.37   9 2.37
  15  0.500  0.750  0.158-  10 2.37   9 2.37   3 2.37   2 2.37
  16  0.750  0.500  0.237-   3 2.37  11 2.37  10 2.37   4 2.37
  17  0.000  0.250  0.316-  43 2.37   4 2.37  11 2.37   5 2.37
  18  0.250  0.000  0.396-   5 2.37  37 2.37  43 2.37  25 2.46
  19  0.500  0.750  0.000-   2 2.37  42 2.37  48 2.37  36 2.46
  20  0.750  0.500  0.079-  48 2.37   8 2.37   2 2.37   3 2.37
  21  0.000  0.250  0.158-   4 2.37   3 2.37   9 2.37   8 2.37
  22  0.250  0.000  0.237-   9 2.37   5 2.37   4 2.37  10 2.37
  23  0.500  0.750  0.316-  37 2.37  10 2.37  11 2.37   5 2.37
  24  0.750  0.500  0.396-  11 2.37  37 2.37  43 2.37  31 2.46
  25  0.167  0.011  0.494-   6 2.37  12 2.37  38 2.43  18 2.46
  26  0.917  0.261  0.575-  38 2.37  44 2.37  39 2.43  12 2.43
  27  0.667  0.511  0.657-  39 2.37  45 2.37  44 2.43  40 2.43
  28  0.417  0.761  0.739-  40 2.37  46 2.37  45 2.43  41 2.43
  29  0.167  0.011  0.820-  41 2.37  47 2.37   1 2.43  46 2.43
  30  0.917  0.261  0.902-   1 2.37   7 2.37  47 2.43  13 2.46
  31  0.667  0.511  0.494-   6 2.37  12 2.37  44 2.43  24 2.46
  32  0.417  0.761  0.575-  38 2.37  44 2.37  45 2.43   6 2.43
  33  0.167  0.011  0.657-  39 2.37  45 2.37  38 2.43  46 2.43
  34  0.917  0.261  0.739-  40 2.37  46 2.37  39 2.43  47 2.43
  35  0.667  0.511  0.820-  41 2.37  47 2.37   7 2.43  40 2.43
  36  0.417  0.761  0.902-   1 2.37   7 2.37  41 2.43  19 2.46
  37  0.250  0.750  0.396-  23 2.37  18 2.37  24 2.37   6 2.46
  38  0.917  0.011  0.575-  26 2.37  32 2.37  33 2.43  25 2.43
  39  0.667  0.261  0.657-  27 2.37  33 2.37  34 2.43  26 2.43
  40  0.417  0.511  0.739-  28 2.37  34 2.37  35 2.43  27 2.43
  41  0.167  0.761  0.820-  29 2.37  35 2.37  36 2.43  28 2.43
  42  0.000  0.000  0.000-  14 2.37  13 2.37  19 2.37   1 2.46
  43  0.750  0.250  0.396-  17 2.37  24 2.37  18 2.37  12 2.46
  44  0.417  0.511  0.575-  32 2.37  26 2.37  27 2.43  31 2.43
  45  0.167  0.761  0.657-  33 2.37  27 2.37  28 2.43  32 2.43
  46  0.917  0.011  0.739-  34 2.37  28 2.37  29 2.43  33 2.43
  47  0.667  0.261  0.820-  35 2.37  29 2.37  30 2.43  34 2.43
  48  0.500  0.500  0.000-  20 2.37  19 2.37  13 2.37   7 2.46
 
  LATTYP: Found a simple orthorhombic cell.
 ALAT       =     5.4800000000
 B/A-ratio  =     1.4142135624
 C/A-ratio  =     4.4695116526
  
  Lattice vectors:
  
 A1 = (   5.4800000000,   0.0000000000,   0.0000000000)
 A2 = (   0.0000000000,   7.7498903220,   0.0000000000)
 A3 = (   0.0000000000,   0.0000000000,  24.4929238560)


Analysis of symmetry for initial positions (statically):
=====================================================================
 Subroutine PRICEL returns following result:
 
  LATTYP: Found a simple orthorhombic cell.
 ALAT       =     3.8749451610
 B/A-ratio  =     1.4142135623
 C/A-ratio  =     6.3208439961
  
  Lattice vectors:
  
 A1 = (   0.0000000000,   3.8749451610,   0.0000000000)
 A2 = (  -5.4800000000,  -0.0000000000,   0.0000000000)
 A3 = (   0.0000000000,   0.0000000000,  24.4929238560)
 
   2 primitive cells build up your supercell.
 

 Routine SETGRP: Setting up the symmetry group for a 
 simple orthorhombic supercell.


 Subroutine GETGRP returns: Found  2 space group operations
 (whereof  1 operations were pure point group operations)
 out of a pool of  8 trial point group operations.


The static configuration has the point symmetry C_1 .
 The point group associated with its full space group is C_1h.


Analysis of symmetry for dynamics (positions and initial velocities):
=====================================================================
 Subroutine PRICEL returns following result:
 
  LATTYP: Found a simple orthorhombic cell.
 ALAT       =     3.8749451610
 B/A-ratio  =     1.4142135623
 C/A-ratio  =     6.3208439961
  
  Lattice vectors:
  
 A1 = (   0.0000000000,   3.8749451610,   0.0000000000)
 A2 = (  -5.4800000000,  -0.0000000000,   0.0000000000)
 A3 = (   0.0000000000,   0.0000000000,  24.4929238560)
 
   2 primitive cells build up your supercell.
 

 Routine SETGRP: Setting up the symmetry group for a 
 simple orthorhombic supercell.


 Subroutine GETGRP returns: Found  2 space group operations
 (whereof  1 operations were pure point group operations)
 out of a pool of  8 trial point group operations.


The dynamic configuration has the point symmetry C_1 .
 The point group associated with its full space group is C_1h.


Analysis of structural, dynamic, and magnetic symmetry:
=====================================================================
 Subroutine PRICEL returns following result:
 
  LATTYP: Found a simple orthorhombic cell.
 ALAT       =     3.8749451610
 B/A-ratio  =     1.4142135623
 C/A-ratio  =     6.3208439961
  
  Lattice vectors:
  
 A1 = (   0.0000000000,   3.8749451610,   0.0000000000)
 A2 = (  -5.4800000000,  -0.0000000000,   0.0000000000)
 A3 = (   0.0000000000,   0.0000000000,  24.4929238560)
 
   2 primitive cells build up your supercell.
 

 Routine SETGRP: Setting up the symmetry group for a 
 simple orthorhombic supercell.


 Subroutine GETGRP returns: Found  2 space group operations
 (whereof  1 operations were pure point group operations)
 out of a pool of  8 trial point group operations.


The overall configuration has the point symmetry C_1 .
 The point group associated with its full space group is C_1h.


 Subroutine INISYM returns: Found  2 space group operations
 (whereof  1 operations are pure point group operations),
 and found     2 'primitive' translations


----------------------------------------------------------------------------------------

                                     Primitive cell                                     

  volume of cell :     520.0999

  direct lattice vectors                    reciprocal lattice vectors
     0.000000000  3.874945161  0.000000000    -0.000000000  0.258068168  0.000000000
    -5.480000000 -0.000000000  0.000000000    -0.182481752  0.000000000  0.000000000
     0.000000000  0.000000000 24.492923856     0.000000000  0.000000000  0.040828119

  length of vectors
     3.874945161  5.480000000 24.492923856     0.258068168  0.182481752  0.040828119

  position of ions in fractional coordinates (direct lattice)
     0.021276596  0.093971631  0.902012515
     0.500000000  0.500000000  0.079103360
     0.000000000  0.000000000  0.158206721
     0.500000000  0.500000000  0.237310081
     0.000000000  0.000000000  0.316413441
     0.521276596  0.593971631  0.493504286
     0.500000000  0.250000000  0.000000000
     1.000000000  0.750000000  0.079103360
     0.500000000  0.250000000  0.158206721
     1.000000000  0.750000000  0.237310081
     0.500000000  0.250000000  0.316413441
     1.000000000  0.750000000  0.395516801
     0.021276596  0.843971631  0.493504286
     0.521276596  0.343971631  0.575205932
     0.021276596  0.843971631  0.656907578
     0.521276596  0.343971631  0.738609224
     0.021276596  0.843971631  0.820310870
     0.521276596  0.343971631  0.902012515
     0.500000000  0.500000000  0.395516801
     0.021276596  0.093971631  0.575205932
     0.521276596  0.593971631  0.656907578
     0.021276596  0.093971631  0.738609224
     0.521276596  0.593971631  0.820310870
     0.000000000  0.000000000  0.000000000

  ion indices of the primitive-cell ions
   primitive index   ion index
                 1           1
                 2           8
                 3           9
                 4           4
                 5           5
                 6           6
                 7          13
                 8          14
                 9          21
                10          22
                11          17
                12          18
                13          25
                14          26
                15          33
                16          34
                17          29
                18          30
                19          43
                20          38
                21          39
                22          46
                23          41
                24          42

----------------------------------------------------------------------------------------

 
 
 KPOINTS: Automatic KPOINTS generated             

Automatic generation of k-mesh.
 Grid dimensions read from file:
 generate k-points for:    7    4    1

 Generating k-lattice:

  Cartesian coordinates                     Fractional coordinates (reciprocal lattice)
     0.026068822  0.018433441  0.000000000     0.142857143  0.000000000  0.000000000
     0.000000000  0.032258521  0.000000000     0.000000000  0.250000000  0.000000000
     0.000000000  0.000000000  0.040828119     0.000000000  0.000000000  1.000000000

  Length of vectors
     0.031927656  0.032258521  0.040828119

  Shift w.r.t. Gamma in fractional coordinates (k-lattice)
     0.000000000  0.000000000  0.000000000

 -----------------------------------------------------------------------------
|                                                                             |
|           W    W    AA    RRRRR   N    N  II  N    N   GGGG   !!!           |
|           W    W   A  A   R    R  NN   N  II  NN   N  G    G  !!!           |
|           W    W  A    A  R    R  N N  N  II  N N  N  G       !!!           |
|           W WW W  AAAAAA  RRRRR   N  N N  II  N  N N  G  GGG   !            |
|           WW  WW  A    A  R   R   N   NN  II  N   NN  G    G                |
|           W    W  A    A  R    R  N    N  II  N    N   GGGG   !!!           |
|                                                                             |
|     Your reciprocal lattice and k-lattice belong to different lattice       |
|     classes:                                                                |
|                                                                             |
|        The reciprocal lattice is simple orthorhombic,                       |
|        whereas your k-lattice is simple monoclinic.                         |
|                                                                             |
|     Results are often still useful ...                                      |
|                                                                             |
 -----------------------------------------------------------------------------

 WARNING: IBZKPT: internal override: KBLOWUP is changed to .FALSE.
      ... skipping the blow-up phase ...

 
 Subroutine IBZKPT returns following result:
 ===========================================
 
 Found     15 irreducible k-points:
 
 Following reciprocal coordinates:
            Coordinates               Weight
  0.000000  0.000000  0.000000      1.000000
  0.142857 -0.000000  0.000000      2.000000
  0.285714  0.000000  0.000000      2.000000
  0.428571 -0.000000  0.000000      2.000000
  0.000000  0.250000  0.000000      2.000000
  0.142857  0.250000  0.000000      2.000000
  0.285714  0.250000  0.000000      2.000000
  0.428571  0.250000  0.000000      2.000000
 -0.428571  0.250000  0.000000      2.000000
 -0.285714  0.250000  0.000000      2.000000
 -0.142857  0.250000  0.000000      2.000000
  0.000000  0.500000  0.000000      1.000000
  0.142857  0.500000  0.000000      2.000000
  0.285714  0.500000  0.000000      2.000000
  0.428571  0.500000  0.000000      2.000000
 
 Following cartesian coordinates:
            Coordinates               Weight
  0.000000  0.000000  0.000000      1.000000
  0.026069  0.018433  0.000000      2.000000
  0.052138  0.036867  0.000000      2.000000
  0.078206  0.055300  0.000000      2.000000
  0.000000  0.032259  0.000000      2.000000
  0.026069  0.050692  0.000000      2.000000
  0.052138  0.069125  0.000000      2.000000
  0.078206  0.087559  0.000000      2.000000
 -0.078206 -0.023042  0.000000      2.000000
 -0.052138 -0.004608  0.000000      2.000000
 -0.026069  0.013825  0.000000      2.000000
  0.000000  0.064517  0.000000      1.000000
  0.026069  0.082950  0.000000      2.000000
  0.052138  0.101384  0.000000      2.000000
  0.078206  0.119817  0.000000      2.000000
 


--------------------------------------------------------------------------------------------------------




 Dimension of arrays:
   k-points           NKPTS =     15   k-points in BZ     NKDIM =     15   number of bands    NBANDS=    116
   number of dos      NEDOS =    301   number of ions     NIONS =     48
   non local maximal  LDIM  =      5   non local SUM 2l+1 LMDIM =     13
   total plane-waves  NPLWV = 368640
   max r-space proj   IRMAX =   2922   max aug-charges    IRDMAX= 154273
   dimension x,y,z NGX =    36 NGY =   64 NGZ =  160
   dimension x,y,z NGXF=    72 NGYF=  128 NGZF=  320
   support grid    NGXF=   144 NGYF=  256 NGZF=  640
   ions per type =              24  24
   NGX,Y,Z   is equivalent  to a cutoff of  10.92, 11.21, 10.86 a.u.
   NGXF,Y,Z  is equivalent  to a cutoff of  21.84, 22.42, 21.72 a.u.

 SYSTEM =  Si011 and Ge011 interface calculation   
 POSCAR =  fcc Si+fcc Ge                           

 Startparameter for this run:
   NWRITE =      2    write-flag & timer
   PREC   = normal    normal or accurate (medium, high low for compatibility)
   ISTART =      0    job   : 0-new  1-cont  2-samecut
   ICHARG =      2    charge: 1-file 2-atom 10-const
   ISPIN  =      2    spin polarized calculation?
   LNONCOLLINEAR =      F non collinear calculations
   LSORBIT =      F    spin-orbit coupling
   INIWAV =      1    electr: 0-lowe 1-rand  2-diag
   LASPH  =      T    aspherical Exc in radial PAW
 Electronic Relaxation 1
   ENCUT  =  700.0 eV  51.45 Ry    7.17 a.u.  11.82 20.48 52.84*2*pi/ulx,y,z
   ENINI  =  700.0     initial cutoff
   ENAUG  =  900.0 eV  augmentation charge cutoff
   NELM   =    100;   NELMIN=  2; NELMDL= -5     # of ELM steps 
   EDIFF  = 0.1E-06   stopping-criterion for ELM
   LREAL  =      T    real-space projection
   NLSPLINE    = F    spline interpolate recip. space projectors
   LCOMPAT=      F    compatible to vasp.4.4
   GGA_COMPAT  = T    GGA compatible to vasp.4.4-vasp.4.6
   LMAXPAW     = -100 max onsite density
   LMAXMIX     =    6 max onsite mixed and CHGCAR
   VOSKOWN=      0    Vosko Wilk Nusair interpolation
   ROPT   =   -0.00050  -0.00050
 Ionic relaxation
   EDIFFG = 0.1E-05   stopping-criterion for IOM
   NSW    =      0    number of steps for IOM
   NBLOCK =      1;   KBLOCK =      1    inner block; outer block 
   IBRION =     -1    ionic relax: 0-MD 1-quasi-New 2-CG
   NFREE  =      0    steps in history (QN), initial steepest desc. (CG)
   ISIF   =      2    stress and relaxation
   IWAVPR =     10    prediction:  0-non 1-charg 2-wave 3-comb
   ISYM   =      2    0-nonsym 1-usesym 2-fastsym
   LCORR  =      T    Harris-Foulkes like correction to forces

   POTIM  = 0.5000    time-step for ionic-motion
   TEIN   =    0.0    initial temperature
   TEBEG  =    0.0;   TEEND  =   0.0 temperature during run
   SMASS  =  -3.00    Nose mass-parameter (am)
   estimated Nose-frequenzy (Omega)   =  0.10E-29 period in steps = 0.13E+47 mass=  -0.686E-27a.u.
   SCALEE = 1.0000    scale energy and forces
   NPACO  =    256;   APACO  = 10.0  distance and # of slots for P.C.
   PSTRESS=    0.0 pullay stress

  Mass of Ions in am
   POMASS =  28.09 72.61
  Ionic Valenz
   ZVAL   =   4.00  4.00
  Atomic Wigner-Seitz radii
   RWIGS  =  -1.00 -1.00
  virtual crystal weights 
   VCA    =   1.00  1.00
   NELECT =     192.0000    total number of electrons
   NUPDOWN=       1.0000    fix difference up-down

 DOS related values:
   EMIN   =  10.00;   EMAX   =-10.00  energy-range for DOS
   EFERMI =   0.00;   METHOD = LEGACY      
   ISMEAR =     0;   SIGMA  =   0.01  broadening in eV -4-tet -1-fermi 0-gaus

 Electronic relaxation 2 (details)
   IALGO  =     38    algorithm
   LDIAG  =      T    sub-space diagonalisation (order eigenvalues)
   LSUBROT=      F    optimize rotation matrix (better conditioning)
   TURBO    =      0    0=normal 1=particle mesh
   IRESTART =      0    0=no restart 2=restart with 2 vectors
   NREBOOT  =      0    no. of reboots
   NMIN     =      0    reboot dimension
   EREF     =   0.00    reference energy to select bands
   IMIX   =      4    mixing-type and parameters
     AMIX     =   0.60;   BMIX     =  1.00
     AMIX_MAG =   2.40;   BMIX_MAG =  1.00
     AMIN     =   0.10
     WC   =   100.;   INIMIX=   1;  MIXPRE=   1;  MAXMIX= -45

 Intra band minimization:
   WEIMIN = 0.0000     energy-eigenvalue tresh-hold
   EBREAK =  0.22E-09  absolut break condition
   DEPER  =   0.30     relativ break condition  

   TIME   =   0.40     timestep for ELM

  volume/ion in A,a.u.               =      21.67       146.24
  Fermi-wavevector in a.u.,A,eV,Ry     =   0.932115  1.761443 11.821273  0.868839
  Thomas-Fermi vector in A             =   2.058679
 
 Write flags
   LWAVE        =      F    write WAVECAR
   LDOWNSAMPLE  =      F    k-point downsampling of WAVECAR
   LCHARG       =      T    write CHGCAR
   LVTOT        =      F    write LOCPOT, total local potential
   LVHAR        =      T    write LOCPOT, Hartree potential only
   WRT_POTENTIAL=  hartree ionic  ! write potential to hdf5 file
   LELF         =      F    write electronic localiz. function (ELF)
   LORBIT       =      0    0 simple, 1 ext, 2 COOP (PROOUT), +10 PAW based schemes


 Dipole corrections
   LMONO      =      F    monopole corrections only (constant potential shift)
   LDIPOL     =      F    correct potential (dipole corrections)
   IDIPOL     =      0    1-x, 2-y, 3-z, 4-all directions 
   EPSILON    =  1.0000000 bulk dielectric constant
   LVACPOTAV  =      F  vacuum potentials using an averaging scheme for the charge density
   VACPOTFLAT =  0.1000000 required flatness to determine vacuum potential
 Exchange correlation treatment:
   GGA     = PE    functional components
   XC_C    = 1    coefficients multiplying the functional components
   LIBXC   =     F    Libxc                    
   VOSKOWN =     0    Vosko Wilk Nusair interpolation
   LHFCALC =     F    Hartree Fock is set to
   LHFONE  =     F    Hartree Fock one center treatment
   AEXX    =    0.0000 exact exchange contribution

 Parameters of functionals:
   PE:
     No parameter
 
 Van der Waals corrections
   IVDW    =     0    specifies the selected vdW correction

 Linear response parameters
   LEPSILON=     F    determine dielectric tensor
   LRPA    =     F    only Hartree local field effects (RPA)
   LNABLA  =     F    use nabla operator in PAW spheres
   LVEL    =     F    velocity operator in full k-point grid
   CSHIFT  =0.1000    complex shift for real part using Kramers Kronig
   OMEGAMAX=  -1.0    maximum frequency
   DEG_THRESHOLD= 0.2000000E-02 threshold for treating states as degnerate
   RTIME   =   -0.100 relaxation time in fs
  (WPLASMAI=    0.000 imaginary part of plasma frequency in eV, 0.658/RTIME)
   DFIELD  = 0.0000000 0.0000000 0.0000000 field for delta impulse in time
 
  Optional k-point grid parameters
   LKPOINTS_OPT  =     F    use optional k-point grid
   KPOINTS_OPT_MODE=     1    mode for optional k-point grid
 
 Orbital magnetization related:
   ORBITALMAG=     F  switch on orbital magnetization
   LCHIMAG   =     F  perturbation theory with respect to B field
   DQ        =  0.001000  dq finite difference perturbation B field
   LLRAUG    =     F  two centre corrections for induced B field
   LBONE     =     F  B-component reconstruction in AE one-centre
   LVGVCALC  =     T  calculate vGv susceptibility
   LVGVAPPL  =     F  apply vGv susceptibility instead of pGv for G=0

 Random number generation:
   RANDOM_GENERATOR = DEFAULT
   PCG_SEED         = not used


--------------------------------------------------------------------------------------------------------


 Static calculation
 charge density and potential will be updated during run
 spin polarized calculation
 Variant of blocked Davidson
 Davidson routine will perform the subspace rotation
 perform sub-space diagonalisation
    after iterative eigenvector-optimisation
 modified Broyden-mixing scheme, WC =      100.0
 initial mixing is a Kerker type mixing with AMIX =  0.6000 and BMIX =      1.0000
 Hartree-type preconditioning will be used
 using additional bands           20
 real space projection scheme for non local part
 use partial core corrections
 calculate Harris-corrections to forces 
   (improved forces if not selfconsistent)
 use gradient corrections 
 use of overlap-Matrix (Vanderbilt PP)
 Gauss-broadening in eV      SIGMA  =   0.01


--------------------------------------------------------------------------------------------------------


  energy-cutoff  :      700.00
  volume of cell :     1040.20
      direct lattice vectors                 reciprocal lattice vectors
     5.480000000  0.000000000  0.000000000     0.182481752  0.129034084  0.000000000
    -5.480000000  7.749890322  0.000000000     0.000000000  0.129034084  0.000000000
     0.000000000  0.000000000 24.492923856     0.000000000  0.000000000  0.040828119

  length of vectors
     5.480000000  9.491638426 24.492923856     0.223493590  0.129034084  0.040828119


 
 k-points in units of 2pi/SCALE and weight: Automatic KPOINTS generated             
   0.00000000  0.00000000  0.00000000       0.036
   0.02606882  0.01843344  0.00000000       0.071
   0.05213764  0.03686688  0.00000000       0.071
   0.07820647  0.05530032  0.00000000       0.071
   0.00000000  0.03225852  0.00000000       0.071
   0.02606882  0.05069196  0.00000000       0.071
   0.05213764  0.06912540  0.00000000       0.071
   0.07820647  0.08755884  0.00000000       0.071
  -0.07820647 -0.02304180  0.00000000       0.071
  -0.05213764 -0.00460836  0.00000000       0.071
  -0.02606882  0.01382508  0.00000000       0.071
   0.00000000  0.06451704  0.00000000       0.036
   0.02606882  0.08295048  0.00000000       0.071
   0.05213764  0.10138392  0.00000000       0.071
   0.07820647  0.11981736  0.00000000       0.071
 
 k-points in reciprocal lattice and weights: Automatic KPOINTS generated             
   0.00000000  0.00000000  0.00000000       0.036
   0.14285714 -0.00000000  0.00000000       0.071
   0.28571429  0.00000000  0.00000000       0.071
   0.42857143 -0.00000000  0.00000000       0.071
   0.00000000  0.25000000  0.00000000       0.071
   0.14285714  0.25000000  0.00000000       0.071
   0.28571429  0.25000000  0.00000000       0.071
   0.42857143  0.25000000  0.00000000       0.071
  -0.42857143  0.25000000  0.00000000       0.071
  -0.28571429  0.25000000  0.00000000       0.071
  -0.14285714  0.25000000  0.00000000       0.071
   0.00000000  0.50000000  0.00000000       0.036
   0.14285714  0.50000000  0.00000000       0.071
   0.28571429  0.50000000  0.00000000       0.071
   0.42857143  0.50000000  0.00000000       0.071
 
 position of ions in fractional coordinates (direct lattice) 
   0.91666667  0.01063830  0.90201252
   0.25000000  0.75000000  0.07910336
   0.50000000  0.50000000  0.15820672
   0.75000000  0.25000000  0.23731008
   0.00000000  0.00000000  0.31641344
   0.16666667  0.76063830  0.49350429
   0.41666667  0.51063830  0.90201252
   0.75000000  0.25000000  0.07910336
   0.00000000  0.00000000  0.15820672
   0.25000000  0.75000000  0.23731008
   0.50000000  0.50000000  0.31641344
   0.66666667  0.26063830  0.49350429
   0.00000000  0.25000000  0.00000000
   0.25000000  0.00000000  0.07910336
   0.50000000  0.75000000  0.15820672
   0.75000000  0.50000000  0.23731008
   0.00000000  0.25000000  0.31641344
   0.25000000  0.00000000  0.39551680
   0.50000000  0.75000000  0.00000000
   0.75000000  0.50000000  0.07910336
   0.00000000  0.25000000  0.15820672
   0.25000000  0.00000000  0.23731008
   0.50000000  0.75000000  0.31641344
   0.75000000  0.50000000  0.39551680
   0.16666667  0.01063830  0.49350429
   0.91666667  0.26063830  0.57520593
   0.66666667  0.51063830  0.65690758
   0.41666667  0.76063830  0.73860922
   0.16666667  0.01063830  0.82031087
   0.91666667  0.26063830  0.90201252
   0.66666667  0.51063830  0.49350429
   0.41666667  0.76063830  0.57520593
   0.16666667  0.01063830  0.65690758
   0.91666667  0.26063830  0.73860922
   0.66666667  0.51063830  0.82031087
   0.41666667  0.76063830  0.90201252
   0.25000000  0.75000000  0.39551680
   0.91666667  0.01063830  0.57520593
   0.66666667  0.26063830  0.65690758
   0.41666667  0.51063830  0.73860922
   0.16666667  0.76063830  0.82031087
   0.00000000  0.00000000  0.00000000
   0.75000000  0.25000000  0.39551680
   0.41666667  0.51063830  0.57520593
   0.16666667  0.76063830  0.65690758
   0.91666667  0.01063830  0.73860922
   0.66666667  0.26063830  0.82031087
   0.50000000  0.50000000  0.00000000
 
 position of ions in cartesian coordinates  (Angst):
   4.96503546  0.08244564 22.09292385
  -2.74000000  5.81241774  1.93747257
   0.00000000  3.87494516  3.87494517
   2.74000000  1.93747258  5.81241774
   0.00000000  0.00000000  7.74989032
  -3.25496454  5.89486338 12.08736290
  -0.51496454  3.95739080 22.09292385
   2.74000000  1.93747258  1.93747257
   0.00000000  0.00000000  3.87494517
  -2.74000000  5.81241774  5.81241774
   0.00000000  3.87494516  7.74989032
   2.22503546  2.01991822 12.08736290
  -1.37000000  1.93747258  0.00000000
   1.37000000  0.00000000  1.93747257
  -1.37000000  5.81241774  3.87494517
   1.37000000  3.87494516  5.81241774
  -1.37000000  1.93747258  7.74989032
   1.37000000  0.00000000  9.68736289
  -1.37000000  5.81241774  0.00000000
   1.37000000  3.87494516  1.93747257
  -1.37000000  1.93747258  3.87494517
   1.37000000  0.00000000  5.81241774
  -1.37000000  5.81241774  7.74989032
   1.37000000  3.87494516  9.68736289
   0.85503546  0.08244564 12.08736290
   3.59503546  2.01991822 14.08847509
   0.85503546  3.95739080 16.08958729
  -1.88496454  5.89486338 18.09069948
   0.85503546  0.08244564 20.09181168
   3.59503546  2.01991822 22.09292385
   0.85503546  3.95739080 12.08736290
  -1.88496454  5.89486338 14.08847509
   0.85503546  0.08244564 16.08958729
   3.59503546  2.01991822 18.09069948
   0.85503546  3.95739080 20.09181168
  -1.88496454  5.89486338 22.09292385
  -2.74000000  5.81241774  9.68736289
   4.96503546  0.08244564 14.08847509
   2.22503546  2.01991822 16.08958729
  -0.51496454  3.95739080 18.09069948
  -3.25496454  5.89486338 20.09181168
   0.00000000  0.00000000  0.00000000
   2.74000000  1.93747258  9.68736289
  -0.51496454  3.95739080 14.08847509
  -3.25496454  5.89486338 16.08958729
   4.96503546  0.08244564 18.09069948
   2.22503546  2.01991822 20.09181168
   0.00000000  3.87494516  0.00000000
 


--------------------------------------------------------------------------------------------------------


 k-point     1 :   0.0000 0.0000 0.0000  plane waves:   43759
 k-point     2 :   0.1429-0.0000 0.0000  plane waves:   43735
 k-point     3 :   0.2857 0.0000 0.0000  plane waves:   43718
 k-point     4 :   0.4286-0.0000 0.0000  plane waves:   43764
 k-point     5 :   0.0000 0.2500 0.0000  plane waves:   43695
 k-point     6 :   0.1429 0.2500 0.0000  plane waves:   43715
 k-point     7 :   0.2857 0.2500 0.0000  plane waves:   43783
 k-point     8 :   0.4286 0.2500 0.0000  plane waves:   43810
 k-point     9 :  -0.4286 0.2500 0.0000  plane waves:   43769
 k-point    10 :  -0.2857 0.2500 0.0000  plane waves:   43751
 k-point    11 :  -0.1429 0.2500 0.0000  plane waves:   43775
 k-point    12 :   0.0000 0.5000 0.0000  plane waves:   43722
 k-point    13 :   0.1429 0.5000 0.0000  plane waves:   43708
 k-point    14 :   0.2857 0.5000 0.0000  plane waves:   43762
 k-point    15 :   0.4286 0.5000 0.0000  plane waves:   43706

 maximum and minimum number of plane-waves per node :      2768     2704

 maximum number of plane-waves:     43810
 maximum index in each direction: 
   IXMAX=   12   IYMAX=   20   IZMAX=   52
   IXMIN=  -12   IYMIN=  -20   IZMIN=  -52


 real space projection operators:
  total allocation   :       9452.02 KBytes
  max/ min on nodes  :        797.52        503.65


 parallel 3D FFT for wavefunctions:
    minimum data exchange during FFTs selected (reduces bandwidth)
 parallel 3D FFT for charge:
    minimum data exchange during FFTs selected (reduces bandwidth)


 total amount of memory used by VASP MPI-rank0   235261. kBytes
=======================================================================

   base      :      30000. kBytes
   nonlr-proj:       3291. kBytes
   fftplans  :      28147. kBytes
   grid      :      18929. kBytes
   one-center:         48. kBytes
   wavefun   :     154846. kBytes
 
     INWAV:  cpu time      0.0001: real time      0.0004
 Broyden mixing: mesh for mixing (old mesh)
   NGX = 23   NGY = 41   NGZ =105
  (NGX  = 72   NGY  =128   NGZ  =320)
  gives a total of  99015 points

 initial charge density was supplied:
 charge density of overlapping atoms calculated
 number of electron     192.0000000 magnetization       1.0000000
 keeping initial charge density in first step


--------------------------------------------------------------------------------------------------------


 Maximum index for non-local projection operator          403
 Maximum index for augmentation-charges         9513 (set IRDMAX)


--------------------------------------------------------------------------------------------------------


 First call to EWALD:  gamma=   0.175
 Maximum number of real-space cells 6x 3x 1
 Maximum number of reciprocal cells 2x 3x 6

    FEWALD:  cpu time      0.0021: real time      0.0021


--------------------------------------- Ionic step        1  -------------------------------------------




--------------------------------------- Iteration      1(   1)  ---------------------------------------


    POTLOK:  cpu time      0.2677: real time      0.2699
    SETDIJ:  cpu time      1.6549: real time      1.6636
     EDDAV:  cpu time     23.4741: real time     23.7013
       DOS:  cpu time      0.0017: real time      0.0017
    --------------------------------------------
      LOOP:  cpu time     25.3983: real time     25.6365

 eigenvalue-minimisations  :  6960
 total energy-change (2. order) : 0.8156991E+03  (-0.8585070E+04)
 number of electron     192.0000000 magnetization       1.0000000
 augmentation part      192.0000000 magnetization       1.0000000

 Free energy of the ion-electron system (eV)
  ---------------------------------------------------
  alpha Z        PSCENC =       248.95636964
  Ewald energy   TEWEN  =     -5194.39377723
  -Hartree energ DENC   =      -409.59470268
  -exchange      EXHF   =         0.00000000
  -V(xc)+E(xc)   XCENC  =      -403.30839916
  PAW double counting   =      4230.45410297    -3460.51340012
  entropy T*S    EENTRO =        -0.00054901
  eigenvalues    EBANDS =       810.59864631
  atomic energy  EATOM  =      4993.50080470
  Solvation  Ediel_sol  =         0.00000000
  ---------------------------------------------------
  free energy    TOTEN  =       815.69909541 eV

  energy without entropy =      815.69964442  energy(sigma->0) =      815.69936991


--------------------------------------------------------------------------------------------------------




--------------------------------------- Iteration      1(   2)  ---------------------------------------


     EDDAV:  cpu time     26.5263: real time     26.7203
       DOS:  cpu time      0.0017: real time      0.0017
    --------------------------------------------
      LOOP:  cpu time     26.5280: real time     26.7220

 eigenvalue-minimisations  :  8176
 total energy-change (2. order) :-0.9590956E+03  (-0.9229327E+03)
 number of electron     192.0000000 magnetization       1.0000000
 augmentation part      192.0000000 magnetization       1.0000000

 Free energy of the ion-electron system (eV)
  ---------------------------------------------------
  alpha Z        PSCENC =       248.95636964
  Ewald energy   TEWEN  =     -5194.39377723
  -Hartree energ DENC   =      -409.59470268
  -exchange      EXHF   =         0.00000000
  -V(xc)+E(xc)   XCENC  =      -403.30839916
  PAW double counting   =      4230.45410297    -3460.51340012
  entropy T*S    EENTRO =        -0.00042770
  eigenvalues    EBANDS =      -148.49706205
  atomic energy  EATOM  =      4993.50080470
  Solvation  Ediel_sol  =         0.00000000
  ---------------------------------------------------
  free energy    TOTEN  =      -143.39649164 eV

  energy without entropy =     -143.39606394  energy(sigma->0) =     -143.39627779


--------------------------------------------------------------------------------------------------------




--------------------------------------- Iteration      1(   3)  ---------------------------------------


     EDDAV:  cpu time     27.5766: real time     27.7798
       DOS:  cpu time      0.0017: real time      0.0017
    --------------------------------------------
      LOOP:  cpu time     27.5783: real time     27.7816

 eigenvalue-minimisations  :  8584
 total energy-change (2. order) :-0.8765472E+02  (-0.8568852E+02)
 number of electron     192.0000000 magnetization       1.0000000
 augmentation part      192.0000000 magnetization       1.0000000

 Free energy of the ion-electron system (eV)
  ---------------------------------------------------
  alpha Z        PSCENC =       248.95636964
  Ewald energy   TEWEN  =     -5194.39377723
  -Hartree energ DENC   =      -409.59470268
  -exchange      EXHF   =         0.00000000
  -V(xc)+E(xc)   XCENC  =      -403.30839916
  PAW double counting   =      4230.45410297    -3460.51340012
  entropy T*S    EENTRO =        -0.00093361
  eigenvalues    EBANDS =      -236.15127809
  atomic energy  EATOM  =      4993.50080470
  Solvation  Ediel_sol  =         0.00000000
  ---------------------------------------------------
  free energy    TOTEN  =      -231.05121359 eV

  energy without entropy =     -231.05027998  energy(sigma->0) =     -231.05074678


--------------------------------------------------------------------------------------------------------




--------------------------------------- Iteration      1(   4)  ---------------------------------------


     EDDAV:  cpu time     26.9276: real time     27.1686
       DOS:  cpu time      0.0017: real time      0.0017
    --------------------------------------------
      LOOP:  cpu time     26.9292: real time     27.1703

 eigenvalue-minimisations  :  8344
 total energy-change (2. order) :-0.2807747E+01  (-0.2777310E+01)
 number of electron     192.0000000 magnetization       1.0000000
 augmentation part      192.0000000 magnetization       1.0000000

 Free energy of the ion-electron system (eV)
  ---------------------------------------------------
  alpha Z        PSCENC =       248.95636964
  Ewald energy   TEWEN  =     -5194.39377723
  -Hartree energ DENC   =      -409.59470268
  -exchange      EXHF   =         0.00000000
  -V(xc)+E(xc)   XCENC  =      -403.30839916
  PAW double counting   =      4230.45410297    -3460.51340012
  entropy T*S    EENTRO =        -0.00037562
  eigenvalues    EBANDS =      -238.95958349
  atomic energy  EATOM  =      4993.50080470
  Solvation  Ediel_sol  =         0.00000000
  ---------------------------------------------------
  free energy    TOTEN  =      -233.85896100 eV

  energy without entropy =     -233.85858538  energy(sigma->0) =     -233.85877319


--------------------------------------------------------------------------------------------------------




--------------------------------------- Iteration      1(   5)  ---------------------------------------


     EDDAV:  cpu time     29.1007: real time     29.3558
       DOS:  cpu time      0.0017: real time      0.0017
    CHARGE:  cpu time      1.7883: real time      1.8009
    MIXING:  cpu time      0.0090: real time      0.0091
    --------------------------------------------
      LOOP:  cpu time     30.8997: real time     31.1675

 eigenvalue-minimisations  :  9160
 total energy-change (2. order) :-0.1021414E+00  (-0.1018496E+00)
 number of electron     191.9999999 magnetization       1.0000000
 augmentation part      -21.3655269 magnetization      -0.0707357

 Broyden mixing:
  rms(total) = 0.19579E+01    rms(broyden)= 0.19579E+01
  rms(prec ) = 0.20179E+01
  weight for this iteration     100.00

 Free energy of the ion-electron system (eV)
  ---------------------------------------------------
  alpha Z        PSCENC =       248.95636964
  Ewald energy   TEWEN  =     -5194.39377723
  -Hartree energ DENC   =      -409.59470268
  -exchange      EXHF   =         0.00000000
  -V(xc)+E(xc)   XCENC  =      -403.30839916
  PAW double counting   =      4230.45410297    -3460.51340012
  entropy T*S    EENTRO =        -0.00036597
  eigenvalues    EBANDS =      -239.06173453
  atomic energy  EATOM  =      4993.50080470
  Solvation  Ediel_sol  =         0.00000000
  ---------------------------------------------------
  free energy    TOTEN  =      -233.96110239 eV

  energy without entropy =     -233.96073642  energy(sigma->0) =     -233.96091940


--------------------------------------------------------------------------------------------------------




--------------------------------------- Iteration      1(   6)  ---------------------------------------


    POTLOK:  cpu time      0.2648: real time      0.2671
    SETDIJ:  cpu time      1.6565: real time      1.6650
     EDDAV:  cpu time     27.0930: real time     27.2949
       DOS:  cpu time      0.0018: real time      0.0020
    CHARGE:  cpu time      1.7878: real time      1.7984
    MIXING:  cpu time      0.0088: real time      0.0089
    --------------------------------------------
      LOOP:  cpu time     30.8127: real time     31.0363

 eigenvalue-minimisations  :  8384
 total energy-change (2. order) : 0.3521933E+01  (-0.5288902E+00)
 number of electron     191.9999999 magnetization       1.0000000
 augmentation part      -21.1848975 magnetization      -0.0748853

 Broyden mixing:
  rms(total) = 0.89778E+00    rms(broyden)= 0.89778E+00
  rms(prec ) = 0.92281E+00
  weight for this iteration     100.00

 eigenvalues of (default mixing * dielectric matrix)
  average eigenvalue GAMMA=   1.7560
  1.7560

 Free energy of the ion-electron system (eV)
  ---------------------------------------------------
  alpha Z        PSCENC =       248.95636964
  Ewald energy   TEWEN  =     -5194.39377723
  -Hartree energ DENC   =      -462.89684379
  -exchange      EXHF   =         0.00000000
  -V(xc)+E(xc)   XCENC  =      -395.28493235
  PAW double counting   =      8796.24556875    -8030.26345403
  entropy T*S    EENTRO =        -0.00074982
  eigenvalues    EBANDS =      -186.30215535
  atomic energy  EATOM  =      4993.50080470
  Solvation  Ediel_sol  =         0.00000000
  ---------------------------------------------------
  free energy    TOTEN  =      -230.43916949 eV

  energy without entropy =     -230.43841966  energy(sigma->0) =     -230.43879458


--------------------------------------------------------------------------------------------------------




--------------------------------------- Iteration      1(   7)  ---------------------------------------


    POTLOK:  cpu time      0.2649: real time      0.2669
    SETDIJ:  cpu time      1.6564: real time      1.6644
     EDDAV:  cpu time     27.4040: real time     27.6042
       DOS:  cpu time      0.0017: real time      0.0017
    CHARGE:  cpu time      1.7851: real time      1.7959
    MIXING:  cpu time      0.0087: real time      0.0088
    --------------------------------------------
      LOOP:  cpu time     31.1208: real time     31.3419

 eigenvalue-minimisations  :  8536
 total energy-change (2. order) : 0.1937260E+00  (-0.3779400E+00)
 number of electron     191.9999999 magnetization       1.0000000
 augmentation part      -21.0698472 magnetization      -0.0655096

 Broyden mixing:
  rms(total) = 0.26744E+00    rms(broyden)= 0.26744E+00
  rms(prec ) = 0.34321E+00
  weight for this iteration     100.00

 eigenvalues of (default mixing * dielectric matrix)
  average eigenvalue GAMMA=   1.2138
  1.8563  0.5713

 Free energy of the ion-electron system (eV)
  ---------------------------------------------------
  alpha Z        PSCENC =       248.95636964
  Ewald energy   TEWEN  =     -5194.39377723
  -Hartree energ DENC   =      -499.08798194
  -exchange      EXHF   =         0.00000000
  -V(xc)+E(xc)   XCENC  =      -389.01973296
  PAW double counting   =     14093.02792473   -13329.92384265
  entropy T*S    EENTRO =        -0.00092808
  eigenvalues    EBANDS =      -153.30427970
  atomic energy  EATOM  =      4993.50080470
  Solvation  Ediel_sol  =         0.00000000
  ---------------------------------------------------
  free energy    TOTEN  =      -230.24544350 eV

  energy without entropy =     -230.24451542  energy(sigma->0) =     -230.24497946


--------------------------------------------------------------------------------------------------------




--------------------------------------- Iteration      1(   8)  ---------------------------------------


    POTLOK:  cpu time      0.2622: real time      0.2656
    SETDIJ:  cpu time      1.6557: real time      1.6635
     EDDAV:  cpu time     27.8522: real time     28.0584
       DOS:  cpu time      0.0018: real time      0.0018
    CHARGE:  cpu time      1.7871: real time      1.7986
    MIXING:  cpu time      0.0089: real time      0.0090
    --------------------------------------------
      LOOP:  cpu time     31.5679: real time     31.7968

 eigenvalue-minimisations  :  8712
 total energy-change (2. order) : 0.7856649E-01  (-0.1192425E+00)
 number of electron     191.9999999 magnetization       1.0000000
 augmentation part      -21.0065821 magnetization      -0.0699518

 Broyden mixing:
  rms(total) = 0.93470E-01    rms(broyden)= 0.93470E-01
  rms(prec ) = 0.99277E-01
  weight for this iteration     100.00

 eigenvalues of (default mixing * dielectric matrix)
  average eigenvalue GAMMA=   1.2026
  1.9074  1.1568  0.5435

 Free energy of the ion-electron system (eV)
  ---------------------------------------------------
  alpha Z        PSCENC =       248.95636964
  Ewald energy   TEWEN  =     -5194.39377723
  -Hartree energ DENC   =      -501.63613857
  -exchange      EXHF   =         0.00000000
  -V(xc)+E(xc)   XCENC  =      -388.60440681
  PAW double counting   =     15016.50041622   -14253.60802238
  entropy T*S    EENTRO =        -0.00056910
  eigenvalues    EBANDS =      -150.88155347
  atomic energy  EATOM  =      4993.50080470
  Solvation  Ediel_sol  =         0.00000000
  ---------------------------------------------------
  free energy    TOTEN  =      -230.16687701 eV

  energy without entropy =     -230.16630791  energy(sigma->0) =     -230.16659246


--------------------------------------------------------------------------------------------------------




--------------------------------------- Iteration      1(   9)  ---------------------------------------


    POTLOK:  cpu time      0.2640: real time      0.2665
    SETDIJ:  cpu time      1.6591: real time      1.6673
     EDDAV:  cpu time     25.9784: real time     26.1736
       DOS:  cpu time      0.0018: real time      0.0018
    CHARGE:  cpu time      1.7852: real time      1.7967
    MIXING:  cpu time      0.0093: real time      0.0094
    --------------------------------------------
      LOOP:  cpu time     29.6978: real time     29.9153

 eigenvalue-minimisations  :  7960
 total energy-change (2. order) :-0.7655751E-02  (-0.2118179E-01)
 number of electron     191.9999999 magnetization       1.0000000
 augmentation part      -21.0259074 magnetization      -0.0709122

 Broyden mixing:
  rms(total) = 0.62622E-01    rms(broyden)= 0.62622E-01
  rms(prec ) = 0.63978E-01
  weight for this iteration     100.00

 eigenvalues of (default mixing * dielectric matrix)
  average eigenvalue GAMMA=   1.1771
  1.7252  1.7252  0.7790  0.4791

 Free energy of the ion-electron system (eV)
  ---------------------------------------------------
  alpha Z        PSCENC =       248.95636964
  Ewald energy   TEWEN  =     -5194.39377723
  -Hartree energ DENC   =      -499.03624145
  -exchange      EXHF   =         0.00000000
  -V(xc)+E(xc)   XCENC  =      -388.76204648
  PAW double counting   =     15362.99672358   -14600.03916110
  entropy T*S    EENTRO =        -0.00054702
  eigenvalues    EBANDS =      -153.39665740
  atomic energy  EATOM  =      4993.50080470
  Solvation  Ediel_sol  =         0.00000000
  ---------------------------------------------------
  free energy    TOTEN  =      -230.17453276 eV

  energy without entropy =     -230.17398574  energy(sigma->0) =     -230.17425925


--------------------------------------------------------------------------------------------------------




--------------------------------------- Iteration      1(  10)  ---------------------------------------


    POTLOK:  cpu time      0.2625: real time      0.2660
    SETDIJ:  cpu time      1.6534: real time      1.6618
     EDDAV:  cpu time     27.3658: real time     27.5727
       DOS:  cpu time      0.0018: real time      0.0018
    CHARGE:  cpu time      1.7917: real time      1.8032
    MIXING:  cpu time      0.0095: real time      0.0096
    --------------------------------------------
      LOOP:  cpu time     31.0847: real time     31.3151

 eigenvalue-minimisations  :  8528
 total energy-change (2. order) :-0.2961264E-02  (-0.4911819E-02)
 number of electron     191.9999999 magnetization       1.0000000
 augmentation part      -21.0305658 magnetization      -0.0645568

 Broyden mixing:
  rms(total) = 0.33814E-01    rms(broyden)= 0.33814E-01
  rms(prec ) = 0.38363E-01
  weight for this iteration     100.00

 eigenvalues of (default mixing * dielectric matrix)
  average eigenvalue GAMMA=   1.0968
  1.7560  1.7560  0.9863  0.4929  0.4929

 Free energy of the ion-electron system (eV)
  ---------------------------------------------------
  alpha Z        PSCENC =       248.95636964
  Ewald energy   TEWEN  =     -5194.39377723
  -Hartree energ DENC   =      -497.14023828
  -exchange      EXHF   =         0.00000000
  -V(xc)+E(xc)   XCENC  =      -388.95064303
  PAW double counting   =     15443.21873290   -14680.17783692
  entropy T*S    EENTRO =        -0.00063807
  eigenvalues    EBANDS =      -155.19026773
  atomic energy  EATOM  =      4993.50080470
  Solvation  Ediel_sol  =         0.00000000
  ---------------------------------------------------
  free energy    TOTEN  =      -230.17749402 eV

  energy without entropy =     -230.17685595  energy(sigma->0) =     -230.17717499


--------------------------------------------------------------------------------------------------------




--------------------------------------- Iteration      1(  11)  ---------------------------------------


    POTLOK:  cpu time      0.2620: real time      0.2656
    SETDIJ:  cpu time      1.6594: real time      1.6676
     EDDAV:  cpu time     27.3335: real time     27.5545
       DOS:  cpu time      0.0018: real time      0.0018
    CHARGE:  cpu time      1.7914: real time      1.8019
    MIXING:  cpu time      0.0102: real time      0.0103
    --------------------------------------------
      LOOP:  cpu time     31.0582: real time     31.3017

 eigenvalue-minimisations  :  8504
 total energy-change (2. order) : 0.1459457E-03  (-0.1224121E-02)
 number of electron     191.9999999 magnetization       1.0000000
 augmentation part      -21.0251178 magnetization      -0.0672689

 Broyden mixing:
  rms(total) = 0.21758E-01    rms(broyden)= 0.21758E-01
  rms(prec ) = 0.22207E-01
  weight for this iteration     100.00

 eigenvalues of (default mixing * dielectric matrix)
  average eigenvalue GAMMA=   1.0567
  1.6119  1.6119  1.4417  0.6978  0.4884  0.4884

 Free energy of the ion-electron system (eV)
  ---------------------------------------------------
  alpha Z        PSCENC =       248.95636964
  Ewald energy   TEWEN  =     -5194.39377723
  -Hartree energ DENC   =      -496.99343724
  -exchange      EXHF   =         0.00000000
  -V(xc)+E(xc)   XCENC  =      -388.97882422
  PAW double counting   =     15420.26481933   -14657.21073198
  entropy T*S    EENTRO =        -0.00054709
  eigenvalues    EBANDS =      -155.32202398
  atomic energy  EATOM  =      4993.50080470
  Solvation  Ediel_sol  =         0.00000000
  ---------------------------------------------------
  free energy    TOTEN  =      -230.17734808 eV

  energy without entropy =     -230.17680099  energy(sigma->0) =     -230.17707453


--------------------------------------------------------------------------------------------------------




--------------------------------------- Iteration      1(  12)  ---------------------------------------


    POTLOK:  cpu time      0.2643: real time      0.2664
    SETDIJ:  cpu time      1.6589: real time      1.6671
     EDDAV:  cpu time     28.3631: real time     28.5788
       DOS:  cpu time      0.0017: real time      0.0017
    CHARGE:  cpu time      1.7875: real time      1.7990
    MIXING:  cpu time      0.0103: real time      0.0103
    --------------------------------------------
      LOOP:  cpu time     32.0858: real time     32.3233

 eigenvalue-minimisations  :  8928
 total energy-change (2. order) :-0.2778375E-03  (-0.1746901E-03)
 number of electron     191.9999999 magnetization       1.0000000
 augmentation part      -21.0257440 magnetization      -0.0670744

 Broyden mixing:
  rms(total) = 0.12177E-01    rms(broyden)= 0.12177E-01
  rms(prec ) = 0.12451E-01
  weight for this iteration     100.00

 eigenvalues of (default mixing * dielectric matrix)
  average eigenvalue GAMMA=   1.1034
  1.7405  1.7405  1.6203  0.8486  0.7310  0.5819  0.4612

 Free energy of the ion-electron system (eV)
  ---------------------------------------------------
  alpha Z        PSCENC =       248.95636964
  Ewald energy   TEWEN  =     -5194.39377723
  -Hartree energ DENC   =      -497.13466442
  -exchange      EXHF   =         0.00000000
  -V(xc)+E(xc)   XCENC  =      -388.96239159
  PAW double counting   =     15393.32043443   -14630.27188043
  entropy T*S    EENTRO =        -0.00049155
  eigenvalues    EBANDS =      -155.19202947
  atomic energy  EATOM  =      4993.50080470
  Solvation  Ediel_sol  =         0.00000000
  ---------------------------------------------------
  free energy    TOTEN  =      -230.17762592 eV

  energy without entropy =     -230.17713437  energy(sigma->0) =     -230.17738014


--------------------------------------------------------------------------------------------------------




--------------------------------------- Iteration      1(  13)  ---------------------------------------


    POTLOK:  cpu time      0.2629: real time      0.2657
    SETDIJ:  cpu time      1.6568: real time      1.6651
     EDDAV:  cpu time     26.6018: real time     26.8009
       DOS:  cpu time      0.0018: real time      0.0018
    CHARGE:  cpu time      1.7853: real time      1.7966
    MIXING:  cpu time      0.0104: real time      0.0104
    --------------------------------------------
      LOOP:  cpu time     30.3189: real time     30.5406

 eigenvalue-minimisations  :  8232
 total energy-change (2. order) :-0.2658853E-04  (-0.1219169E-03)
 number of electron     191.9999999 magnetization       1.0000000
 augmentation part      -21.0276205 magnetization      -0.0666559

 Broyden mixing:
  rms(total) = 0.60795E-02    rms(broyden)= 0.60795E-02
  rms(prec ) = 0.61381E-02
  weight for this iteration     100.00

 eigenvalues of (default mixing * dielectric matrix)
  average eigenvalue GAMMA=   1.1150
  1.9603  1.9603  1.7327  0.9928  0.6377  0.6136  0.5601  0.4626

 Free energy of the ion-electron system (eV)
  ---------------------------------------------------
  alpha Z        PSCENC =       248.95636964
  Ewald energy   TEWEN  =     -5194.39377723
  -Hartree energ DENC   =      -497.14640734
  -exchange      EXHF   =         0.00000000
  -V(xc)+E(xc)   XCENC  =      -388.95231253
  PAW double counting   =     15372.78819693   -14609.74161269
  entropy T*S    EENTRO =        -0.00050786
  eigenvalues    EBANDS =      -155.18840612
  atomic energy  EATOM  =      4993.50080470
  Solvation  Ediel_sol  =         0.00000000
  ---------------------------------------------------
  free energy    TOTEN  =      -230.17765250 eV

  energy without entropy =     -230.17714465  energy(sigma->0) =     -230.17739858


--------------------------------------------------------------------------------------------------------




--------------------------------------- Iteration      1(  14)  ---------------------------------------


    POTLOK:  cpu time      0.2619: real time      0.2650
    SETDIJ:  cpu time      1.6578: real time      1.6661
     EDDAV:  cpu time     25.7803: real time     25.9725
       DOS:  cpu time      0.0017: real time      0.0017
    CHARGE:  cpu time      1.7853: real time      1.7966
    MIXING:  cpu time      0.0116: real time      0.0117
    --------------------------------------------
      LOOP:  cpu time     29.4985: real time     29.7136

 eigenvalue-minimisations  :  7912
 total energy-change (2. order) :-0.1153176E-03  (-0.3444970E-04)
 number of electron     191.9999999 magnetization       1.0000000
 augmentation part      -21.0273058 magnetization      -0.0671579

 Broyden mixing:
  rms(total) = 0.25478E-02    rms(broyden)= 0.25478E-02
  rms(prec ) = 0.26438E-02
  weight for this iteration     100.00

 eigenvalues of (default mixing * dielectric matrix)
  average eigenvalue GAMMA=   1.0625
  1.9969  1.8083  1.8083  1.0136  0.7098  0.7098  0.5320  0.5320  0.4522

 Free energy of the ion-electron system (eV)
  ---------------------------------------------------
  alpha Z        PSCENC =       248.95636964
  Ewald energy   TEWEN  =     -5194.39377723
  -Hartree energ DENC   =      -497.16153135
  -exchange      EXHF   =         0.00000000
  -V(xc)+E(xc)   XCENC  =      -388.94722401
  PAW double counting   =     15382.26924664   -14619.22453961
  entropy T*S    EENTRO =        -0.00053025
  eigenvalues    EBANDS =      -155.17658636
  atomic energy  EATOM  =      4993.50080470
  Solvation  Ediel_sol  =         0.00000000
  ---------------------------------------------------
  free energy    TOTEN  =      -230.17776782 eV

  energy without entropy =     -230.17723758  energy(sigma->0) =     -230.17750270


--------------------------------------------------------------------------------------------------------




--------------------------------------- Iteration      1(  15)  ---------------------------------------


    POTLOK:  cpu time      0.2630: real time      0.2663
    SETDIJ:  cpu time      1.6574: real time      1.6656
     EDDAV:  cpu time     26.2451: real time     26.4380
       DOS:  cpu time      0.0018: real time      0.0018
    CHARGE:  cpu time      1.7842: real time      1.7958
    MIXING:  cpu time      0.0111: real time      0.0112
    --------------------------------------------
      LOOP:  cpu time     29.9626: real time     30.1787

 eigenvalue-minimisations  :  8104
 total energy-change (2. order) :-0.4104428E-05  (-0.2936726E-05)
 number of electron     191.9999999 magnetization       1.0000000
 augmentation part      -21.0271881 magnetization      -0.0670904

 Broyden mixing:
  rms(total) = 0.11520E-02    rms(broyden)= 0.11520E-02
  rms(prec ) = 0.11719E-02
  weight for this iteration     100.00

 eigenvalues of (default mixing * dielectric matrix)
  average eigenvalue GAMMA=   1.0401
  2.0593  1.7621  1.7621  1.0988  0.8202  0.8202  0.5763  0.5763  0.4471  0.4783

 Free energy of the ion-electron system (eV)
  ---------------------------------------------------
  alpha Z        PSCENC =       248.95636964
  Ewald energy   TEWEN  =     -5194.39377723
  -Hartree energ DENC   =      -497.18288026
  -exchange      EXHF   =         0.00000000
  -V(xc)+E(xc)   XCENC  =      -388.94463236
  PAW double counting   =     15388.34158511   -14625.29803871
  entropy T*S    EENTRO =        -0.00052110
  eigenvalues    EBANDS =      -155.15668171
  atomic energy  EATOM  =      4993.50080470
  Solvation  Ediel_sol  =         0.00000000
  ---------------------------------------------------
  free energy    TOTEN  =      -230.17777193 eV

  energy without entropy =     -230.17725083  energy(sigma->0) =     -230.17751138


--------------------------------------------------------------------------------------------------------




--------------------------------------- Iteration      1(  16)  ---------------------------------------


    POTLOK:  cpu time      0.2628: real time      0.2653
    SETDIJ:  cpu time      1.6500: real time      1.6581
     EDDAV:  cpu time     26.7136: real time     26.9131
       DOS:  cpu time      0.0017: real time      0.0017
    CHARGE:  cpu time      1.7834: real time      1.7946
    MIXING:  cpu time      0.0118: real time      0.0119
    --------------------------------------------
      LOOP:  cpu time     30.4233: real time     30.6448

 eigenvalue-minimisations  :  8288
 total energy-change (2. order) :-0.1423517E-05  (-0.9886798E-06)
 number of electron     191.9999999 magnetization       1.0000000
 augmentation part      -21.0271265 magnetization      -0.0670748

 Broyden mixing:
  rms(total) = 0.75892E-03    rms(broyden)= 0.75889E-03
  rms(prec ) = 0.76871E-03
  weight for this iteration     100.00

 eigenvalues of (default mixing * dielectric matrix)
  average eigenvalue GAMMA=   1.0488
  2.1085  1.7866  1.7866  1.1720  1.1720  0.7548  0.7548  0.5439  0.5439  0.4506
  0.4634

 Free energy of the ion-electron system (eV)
  ---------------------------------------------------
  alpha Z        PSCENC =       248.95636964
  Ewald energy   TEWEN  =     -5194.39377723
  -Hartree energ DENC   =      -497.19671782
  -exchange      EXHF   =         0.00000000
  -V(xc)+E(xc)   XCENC  =      -388.94370924
  PAW double counting   =     15389.72568607   -14626.68248177
  entropy T*S    EENTRO =        -0.00051463
  eigenvalues    EBANDS =      -155.14343307
  atomic energy  EATOM  =      4993.50080470
  Solvation  Ediel_sol  =         0.00000000
  ---------------------------------------------------
  free energy    TOTEN  =      -230.17777335 eV

  energy without entropy =     -230.17725872  energy(sigma->0) =     -230.17751604


--------------------------------------------------------------------------------------------------------




--------------------------------------- Iteration      1(  17)  ---------------------------------------


    POTLOK:  cpu time      0.2619: real time      0.2647
    SETDIJ:  cpu time      1.6517: real time      1.6602
     EDDAV:  cpu time     26.5955: real time     26.8001
       DOS:  cpu time      0.0017: real time      0.0017
    CHARGE:  cpu time      1.7827: real time      1.7949
    MIXING:  cpu time      0.0129: real time      0.0129
    --------------------------------------------
      LOOP:  cpu time     30.3064: real time     30.5346

 eigenvalue-minimisations  :  8232
 total energy-change (2. order) :-0.2737961E-06  (-0.1956732E-06)
 number of electron     191.9999999 magnetization       1.0000000
 augmentation part      -21.0270409 magnetization      -0.0670816

 Broyden mixing:
  rms(total) = 0.52603E-03    rms(broyden)= 0.52599E-03
  rms(prec ) = 0.53399E-03
  weight for this iteration     100.00

 eigenvalues of (default mixing * dielectric matrix)
  average eigenvalue GAMMA=   1.0485
  2.2016  1.8106  1.8106  1.5824  1.0942  0.7437  0.7437  0.5832  0.5832  0.4939
  0.4939  0.4409

 Free energy of the ion-electron system (eV)
  ---------------------------------------------------
  alpha Z        PSCENC =       248.95636964
  Ewald energy   TEWEN  =     -5194.39377723
  -Hartree energ DENC   =      -497.20822036
  -exchange      EXHF   =         0.00000000
  -V(xc)+E(xc)   XCENC  =      -388.94344861
  PAW double counting   =     15390.23522143   -14627.19197292
  entropy T*S    EENTRO =        -0.00051366
  eigenvalues    EBANDS =      -155.13223662
  atomic energy  EATOM  =      4993.50080470
  Solvation  Ediel_sol  =         0.00000000
  ---------------------------------------------------
  free energy    TOTEN  =      -230.17777362 eV

  energy without entropy =     -230.17725997  energy(sigma->0) =     -230.17751680


--------------------------------------------------------------------------------------------------------




--------------------------------------- Iteration      1(  18)  ---------------------------------------


    POTLOK:  cpu time      0.2628: real time      0.2662
    SETDIJ:  cpu time      1.6516: real time      1.6600
     EDDAV:  cpu time     25.8477: real time     26.0487
       DOS:  cpu time      0.0017: real time      0.0017
    CHARGE:  cpu time      1.7914: real time      1.8028
    MIXING:  cpu time      0.0128: real time      0.0128
    --------------------------------------------
      LOOP:  cpu time     29.5680: real time     29.7923

 eigenvalue-minimisations  :  7920
 total energy-change (2. order) :-0.2441984E-06  (-0.5915376E-07)
 number of electron     191.9999999 magnetization       1.0000000
 augmentation part      -21.0270184 magnetization      -0.0670769

 Broyden mixing:
  rms(total) = 0.39027E-03    rms(broyden)= 0.39022E-03
  rms(prec ) = 0.39351E-03
  weight for this iteration     100.00

 eigenvalues of (default mixing * dielectric matrix)
  average eigenvalue GAMMA=   1.0590
  2.3037  1.7833  1.7833  1.8207  1.0169  1.0169  0.7445  0.7445  0.5807  0.5807
  0.4937  0.4581  0.4397

 Free energy of the ion-electron system (eV)
  ---------------------------------------------------
  alpha Z        PSCENC =       248.95636964
  Ewald energy   TEWEN  =     -5194.39377723
  -Hartree energ DENC   =      -497.20849279
  -exchange      EXHF   =         0.00000000
  -V(xc)+E(xc)   XCENC  =      -388.94377559
  PAW double counting   =     15390.38571017   -14627.34221168
  entropy T*S    EENTRO =        -0.00051565
  eigenvalues    EBANDS =      -155.13188543
  atomic energy  EATOM  =      4993.50080470
  Solvation  Ediel_sol  =         0.00000000
  ---------------------------------------------------
  free energy    TOTEN  =      -230.17777387 eV

  energy without entropy =     -230.17725822  energy(sigma->0) =     -230.17751604


--------------------------------------------------------------------------------------------------------




--------------------------------------- Iteration      1(  19)  ---------------------------------------


    POTLOK:  cpu time      0.2634: real time      0.2659
    SETDIJ:  cpu time      1.6506: real time      1.6588
     EDDAV:  cpu time     20.1296: real time     20.2868
       DOS:  cpu time      0.0018: real time      0.0018
    --------------------------------------------
      LOOP:  cpu time     22.0454: real time     22.2132

 eigenvalue-minimisations  :  5616
 total energy-change (2. order) :-0.4715457E-07  (-0.2755925E-07)
 number of electron     191.9999999 magnetization       1.0000000
 augmentation part      -21.0270184 magnetization      -0.0670769

 Free energy of the ion-electron system (eV)
  ---------------------------------------------------
  alpha Z        PSCENC =       248.95636964
  Ewald energy   TEWEN  =     -5194.39377723
  -Hartree energ DENC   =      -497.20582920
  -exchange      EXHF   =         0.00000000
  -V(xc)+E(xc)   XCENC  =      -388.94412718
  PAW double counting   =     15390.29790424   -14627.25416836
  entropy T*S    EENTRO =        -0.00051667
  eigenvalues    EBANDS =      -155.13443385
  atomic energy  EATOM  =      4993.50080470
  Solvation  Ediel_sol  =         0.00000000
[...]
     61       1.5807      1.00000
     62       1.7099      1.00000
     63       1.9195      1.00000
     64       1.9642      1.00000
     65       2.0028      1.00000
     66       2.0532      1.00000
     67       2.1618      1.00000
     68       2.2027      1.00000
     69       2.3364      1.00000
     70       2.3507      1.00000
     71       2.3977      1.00000
     72       2.4232      1.00000
     73       2.4491      1.00000
     74       2.4723      1.00000
     75       2.6307      1.00000
     76       2.6654      1.00000
     77       2.7258      1.00000
     78       2.7822      1.00000
     79       2.8336      1.00000
     80       2.8591      1.00000
     81       2.9088      1.00000
     82       2.9397      1.00000
     83       2.9762      1.00000
     84       2.9782      1.00000
     85       3.0838      1.00000
     86       3.1637      1.00000
     87       3.2213      1.00000
     88       3.3023      1.00000
     89       3.3959      1.00000
     90       3.4185      1.00000
     91       3.5492      1.00000
     92       3.7095      1.00000
     93       3.7256      1.00000
     94       3.8573      1.00000
     95       3.9448      1.00000
     96       3.9474      1.00000
     97       5.0812      0.00000
     98       5.0852      0.00000
     99       5.1413      0.00000
    100       5.3174      0.00000
    101       5.3644      0.00000
    102       5.5669      0.00000
    103       5.9186      0.00000
    104       6.0487      0.00000
    105       6.1997      0.00000
    106       6.2620      0.00000
    107       6.2812      0.00000
    108       6.2979      0.00000
    109       6.4882      0.00000
    110       6.5789      0.00000
    111       6.6330      0.00000
    112       6.6414      0.00000
    113       6.8092      0.00000
    114       6.8856      0.00000
    115       6.9398      0.00000
    116       7.2519      0.00000


--------------------------------------------------------------------------------------------------------


 soft charge-density along one line, spin component           1
         0         1         2         3         4         5         6         7         8         9
 total charge-density along one line
 
 soft charge-density along one line, spin component           2
         0         1         2         3         4         5         6         7         8         9
 total charge-density along one line
 
 pseudopotential strength for first ion, spin component:           1
 18.603  25.956   0.000   0.004   0.001   0.001   0.007   0.003
 25.956  36.219   0.001   0.005   0.002   0.001   0.009   0.004
  0.000   0.001   4.204   0.000  -0.000   7.834   0.000  -0.000
  0.004   0.005   0.000   4.204  -0.001   0.000   7.836  -0.001
  0.001   0.002  -0.000  -0.001   4.204  -0.000  -0.001   7.835
  0.001   0.001   7.834   0.000  -0.000  14.612   0.000  -0.000
  0.007   0.009   0.000   7.836  -0.001   0.000  14.615  -0.002
  0.003   0.004  -0.000  -0.001   7.835  -0.000  -0.002  14.613
 pseudopotential strength for first ion, spin component:           2
 18.599  25.951   0.000   0.003   0.002   0.000   0.005   0.004
 25.951  36.212   0.000   0.004   0.003   0.000   0.007   0.006
  0.000   0.000   4.202   0.000   0.000   7.832   0.000   0.000
  0.003   0.004   0.000   4.202  -0.000   0.000   7.833  -0.001
  0.002   0.003   0.000  -0.000   4.202   0.000  -0.001   7.832
  0.000   0.000   7.832   0.000   0.000  14.608   0.000   0.000
  0.005   0.007   0.000   7.833  -0.001   0.000  14.609  -0.001
  0.004   0.006   0.000  -0.001   7.832   0.000  -0.001  14.607
 total augmentation occupancy for first ion, spin component:           1
  5.083  -1.875  -0.012  -0.009  -0.348   0.003  -0.014   0.131
 -1.875   0.891   0.007   0.000   0.185  -0.001   0.018  -0.067
 -0.012   0.007   2.739  -0.019   0.000  -0.595   0.005   0.002
 -0.009   0.000  -0.019   2.614  -0.191   0.005  -0.592   0.058
 -0.348   0.185   0.000  -0.191   2.427   0.002   0.058  -0.509
  0.003  -0.001  -0.595   0.005   0.002   0.142  -0.001  -0.001
 -0.014   0.018   0.005  -0.592   0.058  -0.001   0.146  -0.018
  0.131  -0.067   0.002   0.058  -0.509  -0.001  -0.018   0.116
 total augmentation occupancy for first ion, spin component:           2
  0.048  -0.031  -0.000  -0.001  -0.004  -0.000  -0.001   0.002
 -0.031   0.025   0.002   0.006  -0.003   0.000  -0.000  -0.001
 -0.000   0.002   0.029   0.003  -0.002  -0.005  -0.000   0.000
 -0.001   0.006   0.003   0.019  -0.007  -0.000  -0.004   0.001
 -0.004  -0.003  -0.002  -0.007   0.026   0.000   0.001  -0.004
 -0.000   0.000  -0.005  -0.000   0.000   0.001   0.000  -0.000
 -0.001  -0.000  -0.000  -0.004   0.001   0.000   0.001  -0.000
  0.002  -0.001   0.000   0.001  -0.004  -0.000  -0.000   0.001


------------------------ aborting loop because EDIFF is reached ----------------------------------------


    CHARGE:  cpu time      1.7926: real time      1.8038
    FORLOC:  cpu time      0.0355: real time      0.0356
    FORNL :  cpu time      7.9543: real time      8.0138
    STRESS:  cpu time     24.1946: real time     24.3744
    FORCOR:  cpu time      0.2896: real time      0.2916
    FORHAR:  cpu time      0.0571: real time      0.0574
    MIXING:  cpu time      0.0137: real time      0.0138
    OFIELD:  cpu time      0.0001: real time      0.0001

  FORCE on cell =-STRESS in cart. coord.  units (eV):
  Direction    XX          YY          ZZ          XY          YZ          ZX
  --------------------------------------------------------------------------------------
  Alpha Z   248.95637   248.95637   248.95637
  Ewald   -1979.60176 -1520.00135 -1694.81886    -2.95227    -0.00000    -0.00000
  Hartree    73.62980   279.40183   144.17216    -0.68137     0.00000     0.00000
  E(xc)    -638.72027  -639.56581  -637.51571    -0.00117     0.00000     0.00000
  Local    -401.95579 -1066.96996  -745.32589     3.50759     0.00000     0.00000
  n-local  1413.15534  1433.73557  1419.74137     0.02683    -0.08503     0.03386
  augment  -112.16061  -113.18260  -111.63404    -0.01355    -0.00000    -0.00000
  Kinetic  1433.92431  1419.69246  1389.46410    -0.03515     0.00019    -0.00002
  Fock        0.00000     0.00000     0.00000     0.00000     0.00000     0.00000
  -------------------------------------------------------------------------------------
  Total      37.22738    42.06650    13.03949    -0.14909     0.00000     0.00000
  in kB      57.33982    64.79332    20.08420    -0.22964     0.00000     0.00000
  external pressure =       47.41 kB  Pullay stress =        0.00 kB


 VOLUME and BASIS-vectors are now :
 -----------------------------------------------------------------------------
  energy-cutoff  :      700.00
  volume of cell :     1040.20
      direct lattice vectors                 reciprocal lattice vectors
     5.480000000  0.000000000  0.000000000     0.182481752  0.129034084  0.000000000
    -5.480000000  7.749890322  0.000000000     0.000000000  0.129034084  0.000000000
     0.000000000  0.000000000 24.492923856     0.000000000  0.000000000  0.040828119

  length of vectors
     5.480000000  9.491638426 24.492923856     0.223493590  0.129034084  0.040828119


 FORCES acting on ions
    electron-ion (+dipol)            ewald-force                    non-local-force                 convergence-correction
 -----------------------------------------------------------------------------------------------
   -.192E+02 -.222E+00 0.708E+01   0.175E+02 0.145E+00 -.769E+01   0.259E+01 0.548E-01 -.621E-01   -.494E-04 0.620E-05 0.656E-03
   0.285E+01 0.437E-01 0.218E+02   -.257E+01 -.759E-02 -.225E+02   -.393E+00 -.655E-02 0.532E+00   0.422E-04 0.179E-05 0.183E-03
   -.333E+00 0.244E-01 0.672E+01   0.256E+00 -.167E-03 -.672E+01   -.522E-01 -.725E-02 -.101E+00   0.286E-04 -.275E-06 0.120E-04
   -.333E+00 0.244E-01 -.672E+01   0.256E+00 -.167E-03 0.672E+01   -.522E-01 -.725E-02 0.101E+00   0.286E-04 -.275E-06 -.120E-04
   0.285E+01 0.437E-01 -.218E+02   -.257E+01 -.759E-02 0.225E+02   -.393E+00 -.655E-02 -.532E+00   0.422E-04 0.179E-05 -.183E-03
   -.192E+02 -.222E+00 -.708E+01   0.175E+02 0.145E+00 0.769E+01   0.259E+01 0.548E-01 0.621E-01   -.494E-04 0.620E-05 -.656E-03
   -.192E+02 -.222E+00 0.708E+01   0.175E+02 0.145E+00 -.769E+01   0.259E+01 0.548E-01 -.621E-01   -.494E-04 0.620E-05 0.656E-03
   0.285E+01 0.437E-01 0.218E+02   -.257E+01 -.759E-02 -.225E+02   -.393E+00 -.655E-02 0.532E+00   0.422E-04 0.179E-05 0.183E-03
   -.333E+00 0.244E-01 0.672E+01   0.256E+00 -.167E-03 -.672E+01   -.522E-01 -.725E-02 -.101E+00   0.286E-04 -.275E-06 0.120E-04
   -.333E+00 0.244E-01 -.672E+01   0.256E+00 -.167E-03 0.672E+01   -.522E-01 -.725E-02 0.101E+00   0.286E-04 -.275E-06 -.120E-04
   0.285E+01 0.437E-01 -.218E+02   -.257E+01 -.759E-02 0.225E+02   -.393E+00 -.655E-02 -.532E+00   0.422E-04 0.179E-05 -.183E-03
   -.192E+02 -.222E+00 -.708E+01   0.175E+02 0.145E+00 0.769E+01   0.259E+01 0.548E-01 0.621E-01   -.494E-04 0.620E-05 -.656E-03
   0.174E+02 0.231E+00 0.143E+02   -.163E+02 -.145E+00 -.130E+02   -.217E+01 -.740E-01 -.454E+00   0.761E-04 -.589E-05 0.487E-03
   -.469E+00 -.298E-01 0.248E+02   0.164E+01 -.145E-02 -.235E+02   -.616E+00 0.418E-01 -.941E+00   -.839E-04 -.138E-05 0.176E-03
   0.345E+00 -.365E-01 0.660E+01   -.163E+00 -.336E-04 -.661E+01   -.136E+00 0.227E-01 0.643E-02   -.201E-04 0.400E-06 0.271E-04
   0.345E+00 -.365E-01 -.660E+01   -.163E+00 -.336E-04 0.661E+01   -.136E+00 0.227E-01 -.643E-02   -.201E-04 0.400E-06 -.271E-04
   -.469E+00 -.298E-01 -.248E+02   0.164E+01 -.145E-02 0.235E+02   -.616E+00 0.418E-01 0.941E+00   -.839E-04 -.138E-05 -.176E-03
   0.174E+02 0.231E+00 -.143E+02   -.163E+02 -.145E+00 0.130E+02   -.217E+01 -.740E-01 0.454E+00   0.761E-04 -.589E-05 -.487E-03
   0.174E+02 0.231E+00 0.143E+02   -.163E+02 -.145E+00 -.130E+02   -.217E+01 -.740E-01 -.454E+00   0.761E-04 -.589E-05 0.487E-03
   -.469E+00 -.298E-01 0.248E+02   0.164E+01 -.145E-02 -.235E+02   -.616E+00 0.418E-01 -.941E+00   -.839E-04 -.138E-05 0.176E-03
   0.345E+00 -.365E-01 0.660E+01   -.163E+00 -.336E-04 -.661E+01   -.136E+00 0.227E-01 0.643E-02   -.201E-04 0.400E-06 0.271E-04
   0.345E+00 -.365E-01 -.660E+01   -.163E+00 -.336E-04 0.661E+01   -.136E+00 0.227E-01 -.643E-02   -.201E-04 0.400E-06 -.271E-04
   -.469E+00 -.298E-01 -.248E+02   0.164E+01 -.145E-02 0.235E+02   -.616E+00 0.418E-01 0.941E+00   -.839E-04 -.138E-05 -.176E-03
   0.174E+02 0.231E+00 -.143E+02   -.163E+02 -.145E+00 0.130E+02   -.217E+01 -.740E-01 0.454E+00   0.761E-04 -.589E-05 -.487E-03
   0.305E+02 -.375E+00 -.192E+01   -.289E+02 0.411E+00 0.151E+01   -.156E+01 -.125E-01 -.603E-01   -.367E-04 -.818E-05 -.667E-03
   -.303E+00 -.262E-01 0.867E+01   -.133E+00 0.670E-02 -.953E+01   -.251E+00 -.144E-02 0.331E+00   0.578E-04 -.246E-05 -.433E-03
   0.273E+01 -.210E-01 0.248E+01   -.265E+01 0.129E-03 -.251E+01   -.417E+00 0.113E-01 -.569E-01   0.260E-04 -.115E-05 -.171E-03
   0.273E+01 -.210E-01 -.248E+01   -.265E+01 0.129E-03 0.251E+01   -.417E+00 0.113E-01 0.569E-01   0.260E-04 -.115E-05 0.171E-03
   -.303E+00 -.262E-01 -.867E+01   -.133E+00 0.670E-02 0.953E+01   -.251E+00 -.144E-02 -.331E+00   0.578E-04 -.246E-05 0.433E-03
   0.305E+02 -.375E+00 0.192E+01   -.289E+02 0.411E+00 -.151E+01   -.156E+01 -.125E-01 0.603E-01   -.367E-04 -.818E-05 0.666E-03
   0.305E+02 -.375E+00 -.192E+01   -.289E+02 0.411E+00 0.151E+01   -.156E+01 -.125E-01 -.603E-01   -.367E-04 -.818E-05 -.667E-03
   -.303E+00 -.262E-01 0.867E+01   -.133E+00 0.670E-02 -.953E+01   -.251E+00 -.144E-02 0.331E+00   0.578E-04 -.246E-05 -.433E-03
   0.273E+01 -.210E-01 0.248E+01   -.265E+01 0.129E-03 -.251E+01   -.417E+00 0.113E-01 -.569E-01   0.260E-04 -.115E-05 -.171E-03
   0.273E+01 -.210E-01 -.248E+01   -.265E+01 0.129E-03 0.251E+01   -.417E+00 0.113E-01 0.569E-01   0.260E-04 -.115E-05 0.171E-03
   -.303E+00 -.262E-01 -.867E+01   -.133E+00 0.670E-02 0.953E+01   -.251E+00 -.144E-02 -.331E+00   0.578E-04 -.246E-05 0.433E-03
   0.305E+02 -.375E+00 0.192E+01   -.289E+02 0.411E+00 -.151E+01   -.156E+01 -.125E-01 0.603E-01   -.367E-04 -.818E-05 0.666E-03
   -.291E+02 0.397E+00 -.192E+02   0.277E+02 -.410E+00 0.193E+02   0.136E+01 0.808E-02 0.363E+00   -.790E-04 0.687E-05 -.554E-03
   -.160E+01 0.138E-01 0.109E+02   0.989E+00 0.128E-02 -.105E+02   0.814E+00 -.320E-01 -.473E+00   -.154E-04 0.961E-06 -.456E-03
   -.271E+01 0.301E-01 0.237E+01   0.257E+01 0.260E-04 -.241E+01   0.568E+00 -.139E-01 0.398E-01   -.341E-04 0.122E-05 -.160E-03
   -.271E+01 0.301E-01 -.237E+01   0.257E+01 0.260E-04 0.241E+01   0.568E+00 -.139E-01 -.398E-01   -.341E-04 0.122E-05 0.160E-03
   -.160E+01 0.138E-01 -.109E+02   0.989E+00 0.128E-02 0.105E+02   0.814E+00 -.320E-01 0.473E+00   -.154E-04 0.961E-06 0.456E-03
   -.291E+02 0.397E+00 0.192E+02   0.277E+02 -.410E+00 -.193E+02   0.136E+01 0.808E-02 -.363E+00   -.790E-04 0.687E-05 0.554E-03
   -.291E+02 0.397E+00 -.192E+02   0.277E+02 -.410E+00 0.193E+02   0.136E+01 0.808E-02 0.363E+00   -.790E-04 0.687E-05 -.554E-03
   -.160E+01 0.138E-01 0.109E+02   0.989E+00 0.128E-02 -.105E+02   0.814E+00 -.320E-01 -.473E+00   -.154E-04 0.961E-06 -.456E-03
   -.271E+01 0.301E-01 0.237E+01   0.257E+01 0.260E-04 -.241E+01   0.568E+00 -.139E-01 0.398E-01   -.341E-04 0.122E-05 -.160E-03
   -.271E+01 0.301E-01 -.237E+01   0.257E+01 0.260E-04 0.241E+01   0.568E+00 -.139E-01 -.398E-01   -.341E-04 0.122E-05 0.160E-03
   -.160E+01 0.138E-01 -.109E+02   0.989E+00 0.128E-02 0.105E+02   0.814E+00 -.320E-01 0.473E+00   -.154E-04 0.961E-06 0.456E-03
   -.291E+02 0.397E+00 0.192E+02   0.277E+02 -.410E+00 -.193E+02   0.136E+01 0.808E-02 -.363E+00   -.790E-04 0.687E-05 0.554E-03
 -----------------------------------------------------------------------------------------------
   0.871E+00 0.116E+00 -.190E-04   0.568E-13 -.461E-14 -.249E-12   -.102E+01 -.360E-01 -.111E-15   -.352E-03 -.756E-05 0.148E-06
 
 
 POSITION                                       TOTAL-FORCE (eV/Angst)
 -----------------------------------------------------------------------------------
      4.96504      0.08245     22.09292         0.912736     -0.024022     -0.675560
     -2.74000      5.81242      1.93747        -0.107187      0.027852     -0.137600
      0.00000      3.87495      3.87495        -0.125907      0.015332     -0.097938
      2.74000      1.93747      5.81242        -0.125907      0.015332      0.097938
      0.00000      0.00000      7.74989        -0.107187      0.027852      0.137600
     -3.25496      5.89486     12.08736         0.912736     -0.024022      0.675560
     -0.51496      3.95739     22.09292         0.912736     -0.024022     -0.675560
      2.74000      1.93747      1.93747        -0.107187      0.027852     -0.137600
      0.00000      0.00000      3.87495        -0.125907      0.015332     -0.097938
     -2.74000      5.81242      5.81242        -0.125907      0.015332      0.097938
      0.00000      3.87495      7.74989        -0.107187      0.027852      0.137600
      2.22504      2.01992     12.08736         0.912736     -0.024022      0.675560
     -1.37000      1.93747      0.00000        -1.069790      0.010712      0.806789
      1.37000      0.00000      1.93747         0.562119      0.008850      0.326038
     -1.37000      5.81242      3.87495         0.048717     -0.015537      0.002747
      1.37000      3.87495      5.81242         0.048717     -0.015537     -0.002747
     -1.37000      1.93747      7.74989         0.562119      0.008850     -0.326038
      1.37000      0.00000      9.68736        -1.069790      0.010712     -0.806789
     -1.37000      5.81242      0.00000        -1.069790      0.010712      0.806789
      1.37000      3.87495      1.93747         0.562119      0.008850      0.326038
     -1.37000      1.93747      3.87495         0.048717     -0.015537      0.002747
      1.37000      0.00000      5.81242         0.048717     -0.015537     -0.002747
     -1.37000      5.81242      7.74989         0.562119      0.008850     -0.326038
      1.37000      3.87495      9.68736        -1.069790      0.010712     -0.806789
      0.85504      0.08245     12.08736         0.123634      0.021956     -0.466159
      3.59504      2.01992     14.08848        -0.683787     -0.022583     -0.532689
      0.85504      3.95739     16.08959        -0.333844     -0.011182     -0.081216
     -1.88496      5.89486     18.09070        -0.333844     -0.011182      0.081216
      0.85504      0.08245     20.09181        -0.683787     -0.022583      0.532689
      3.59504      2.01992     22.09292         0.123634      0.021956      0.466159
      0.85504      3.95739     12.08736         0.123634      0.021956     -0.466159
     -1.88496      5.89486     14.08848        -0.683787     -0.022583     -0.532689
      0.85504      0.08245     16.08959        -0.333844     -0.011182     -0.081216
      3.59504      2.01992     18.09070        -0.333844     -0.011182      0.081216
      0.85504      3.95739     20.09181        -0.683787     -0.022583      0.532689
     -1.88496      5.89486     22.09292         0.123634      0.021956      0.466159
     -2.74000      5.81242      9.68736         0.031562     -0.007346      0.379150
      4.96504      0.08245     14.08848         0.202952     -0.018601     -0.069161
      2.22504      2.01992     16.08959         0.438794      0.014569      0.000362
     -0.51496      3.95739     18.09070         0.438794      0.014569     -0.000362
     -3.25496      5.89486     20.09181         0.202952     -0.018601      0.069161
      0.00000      0.00000      0.00000         0.031562     -0.007346     -0.379150
      2.74000      1.93747      9.68736         0.031562     -0.007346      0.379150
     -0.51496      3.95739     14.08848         0.202952     -0.018601     -0.069161
     -3.25496      5.89486     16.08959         0.438794      0.014569      0.000362
      4.96504      0.08245     18.09070         0.438794      0.014569     -0.000362
      2.22504      2.01992     20.09181         0.202952     -0.018601      0.069161
      0.00000      3.87495      0.00000         0.031562     -0.007346     -0.379150
 -----------------------------------------------------------------------------------
    total drift:                               -0.150651      0.080173     -0.000019


--------------------------------------------------------------------------------------------------------



  FREE ENERGIE OF THE ION-ELECTRON SYSTEM (eV)
  ---------------------------------------------------
  free  energy   TOTEN  =      -230.17777392 eV

  energy  without entropy=     -230.17725724  energy(sigma->0) =     -230.17751558
 


--------------------------------------------------------------------------------------------------------


    POTLOK:  cpu time      1.8952: real time      1.9054


--------------------------------------------------------------------------------------------------------


     LOOP+:  cpu time    600.5752: real time    605.5872
    4ORBIT:  cpu time      0.0000: real time      0.0000

 total amount of memory used by VASP MPI-rank0   235261. kBytes
=======================================================================

   base      :      30000. kBytes
   nonlr-proj:       3291. kBytes
   fftplans  :      28147. kBytes
   grid      :      18929. kBytes
   one-center:         48. kBytes
   wavefun   :     154846. kBytes
 
  
  
 General timing and accounting informations for this job:
 ========================================================
  
                  Total CPU time used (sec):      627.341
                            User time (sec):      594.669
                          System time (sec):       32.673
                         Elapsed time (sec):      634.251
  
                   Maximum memory used (kb):      472084.
                   Average memory used (kb):          N/A
  
                          Minor page faults:       152280
                          Major page faults:           49
                 Voluntary context switches:         1325
