       N       E                     dE             d eps       ncg     rms          rms(c)
DAV:   1     0.456160247624E+04    0.45616E+04   -0.44312E+05 20352   0.167E+03
DAV:   2    -0.661493193228E+03   -0.52231E+04   -0.50441E+04 23912   0.202E+02
DAV:   3    -0.118333420567E+04   -0.52184E+03   -0.50471E+03 25904   0.577E+01
DAV:   4    -0.120520408879E+04   -0.21870E+02   -0.21403E+02 25304   0.126E+01
DAV:   5    -0.120617905085E+04   -0.97496E+00   -0.96551E+00 27424   0.256E+00    0.468E+01
DAV:   6    -0.117633264412E+04    0.29846E+02   -0.11362E+02 31448   0.137E+01    0.218E+01
DAV:   7    -0.117423264344E+04    0.21000E+01   -0.71361E+01 27184   0.104E+01    0.147E+01
DAV:   8    -0.117255987287E+04    0.16728E+01   -0.13678E+01 23400   0.446E+00    0.269E+00
DAV:   9    -0.117248124581E+04    0.78627E-01   -0.31518E+00 25560   0.169E+00    0.145E+00
DAV:  10    -0.117248245843E+04   -0.12126E-02   -0.56293E-01 23248   0.757E-01    0.941E-01
DAV:  11    -0.117248235044E+04    0.10799E-03   -0.76652E-02 22984   0.272E-01    0.495E-01
DAV:  12    -0.117248224380E+04    0.10663E-03   -0.13346E-02 23632   0.125E-01    0.273E-01
DAV:  13    -0.117248279269E+04   -0.54889E-03   -0.40380E-03 23064   0.689E-02    0.174E-01
DAV:  14    -0.117248311806E+04   -0.32537E-03   -0.11496E-03 22864   0.411E-02    0.670E-02
DAV:  15    -0.117248312947E+04   -0.11405E-04   -0.33449E-04 24480   0.193E-02    0.436E-02
DAV:  16    -0.117248313987E+04   -0.10402E-04   -0.93822E-05 22952   0.121E-02    0.230E-02
DAV:  17    -0.117248314638E+04   -0.65079E-05   -0.20165E-05 23632   0.531E-03    0.926E-03
DAV:  18    -0.117248314550E+04    0.88034E-06   -0.24636E-06 23256   0.233E-03    0.567E-03
DAV:  19    -0.117248314522E+04    0.28021E-06   -0.10609E-06 23816   0.111E-03    0.359E-03
DAV:  20    -0.117248314554E+04   -0.31797E-06   -0.24002E-07 14024   0.771E-04    0.163E-03
DAV:  21    -0.117248314600E+04   -0.46189E-06   -0.18913E-07 13896   0.488E-04    0.962E-04
DAV:  22    -0.117248314610E+04   -0.10518E-06   -0.74536E-08 12096   0.337E-04    0.765E-04
DAV:  23    -0.117248314608E+04    0.25277E-07   -0.23721E-08 11912   0.212E-04
   1 F= -.11724831E+04 E0= -.11724793E+04  d E =-.777345E-02  mag=     1.0000
