 120 120   0   0
  0.2190039E+02  0.7680595E-09  0.1629300E-08  0.2100086E-08  0.5000000E-15
  1.000000000000000E-004
  CAR 
 Si and Ge interface calculation         
      7.80657347     -8.58724114  301      4.74427965      1.00000000
     -8.587  0.0000E+00  0.0000E+00  0.0000E+00  0.0000E+00
     -8.533  0.0000E+00  0.0000E+00  0.0000E+00  0.0000E+00
     -8.478  0.0000E+00  0.0000E+00  0.0000E+00  0.0000E+00
     -8.423  0.0000E+00  0.0000E+00  0.0000E+00  0.0000E+00
     -8.369  0.0000E+00  0.0000E+00  0.0000E+00  0.0000E+00
     -8.314  0.0000E+00  0.0000E+00  0.0000E+00  0.0000E+00
     -8.259  0.0000E+00  0.0000E+00  0.0000E+00  0.0000E+00
     -8.205  0.0000E+00  0.0000E+00  0.0000E+00  0.0000E+00
     -8.150  0.0000E+00  0.0000E+00  0.0000E+00  0.0000E+00
     -8.095  0.0000E+00  0.0000E+00  0.0000E+00  0.0000E+00
     -8.041  0.0000E+00  0.0000E+00  0.0000E+00  0.0000E+00
     -7.986  0.0000E+00  0.0000E+00  0.0000E+00  0.0000E+00
     -7.931  0.0000E+00  0.0000E+00  0.0000E+00  0.0000E+00
     -7.877  0.2001E-05  0.1615E-07  0.1094E-06  0.8828E-09
     -7.822  0.4564E+01  0.4455E+01  0.2494E+00  0.2434E+00
     -7.768  0.1144E-01  0.1202E+00  0.2500E+00  0.2500E+00
     -7.713  0.1019E+02  0.9290E+01  0.8069E+00  0.7577E+00
     -7.658  0.8109E+01  0.9009E+01  0.1250E+01  0.1250E+01
     -7.604  0.5561E+01  0.1559E+01  0.1554E+01  0.1335E+01
     -7.549  0.1705E+02  0.2074E+02  0.2486E+01  0.2468E+01
     -7.494  0.4837E+01  0.5148E+01  0.2750E+01  0.2750E+01
     -7.440  0.8208E+01  0.7016E+01  0.3199E+01  0.3133E+01
     -7.385  0.1400E+02  0.1278E+02  0.3963E+01  0.3831E+01
     -7.330  0.1081E+02  0.1237E+02  0.4554E+01  0.4507E+01
     -7.276  0.2503E+02  0.2443E+02  0.5922E+01  0.5842E+01
     -7.221  0.2201E+02  0.1900E+02  0.7125E+01  0.6880E+01
     -7.166  0.1603E+02  0.2047E+02  0.8001E+01  0.7999E+01
     -7.112  0.1584E+02  0.1244E+02  0.8866E+01  0.8679E+01
     -7.057  0.2988E+02  0.3327E+02  0.1050E+02  0.1050E+02
     -7.003  0.1767E+02  0.1674E+02  0.1146E+02  0.1141E+02
     -6.948  0.2341E+02  0.2279E+02  0.1274E+02  0.1266E+02
     -6.893  0.2259E+02  0.2264E+02  0.1398E+02  0.1389E+02
     -6.839  0.1868E+02  0.2004E+02  0.1500E+02  0.1499E+02
     -6.784  0.1789E+02  0.1490E+02  0.1598E+02  0.1580E+02
     -6.729  0.2296E+02  0.2337E+02  0.1723E+02  0.1708E+02
     -6.675  0.2429E+02  0.2346E+02  0.1856E+02  0.1836E+02
     -6.620  0.2114E+02  0.2387E+02  0.1971E+02  0.1967E+02
     -6.565  0.1897E+02  0.1692E+02  0.2075E+02  0.2059E+02
     -6.511  0.4935E+02  0.4467E+02  0.2345E+02  0.2303E+02
     -6.456  0.1503E+02  0.2228E+02  0.2427E+02  0.2425E+02
     -6.401  0.3576E+02  0.2699E+02  0.2622E+02  0.2573E+02
     -6.347  0.3701E+02  0.4223E+02  0.2824E+02  0.2803E+02
     -6.292  0.5176E+02  0.5134E+02  0.3107E+02  0.3084E+02
     -6.237  0.2849E+02  0.2753E+02  0.3263E+02  0.3234E+02
     -6.183  0.3154E+02  0.3191E+02  0.3435E+02  0.3409E+02
     -6.128  0.4883E+02  0.4910E+02  0.3702E+02  0.3677E+02
     -6.074  0.1774E+02  0.1698E+02  0.3799E+02  0.3770E+02
     -6.019  0.2732E+02  0.2596E+02  0.3948E+02  0.3912E+02
     -5.964  0.3076E+02  0.3486E+02  0.4117E+02  0.4102E+02
     -5.910  0.3570E+02  0.3533E+02  0.4312E+02  0.4295E+02
     -5.855  0.4682E+02  0.4818E+02  0.4568E+02  0.4558E+02
     -5.800  0.1746E+02  0.1649E+02  0.4663E+02  0.4649E+02
     -5.746  0.4355E+02  0.4298E+02  0.4901E+02  0.4883E+02
     -5.691  0.4434E+02  0.4347E+02  0.5143E+02  0.5121E+02
     -5.636  0.4937E+02  0.4871E+02  0.5413E+02  0.5387E+02
     -5.582  0.3534E+02  0.3421E+02  0.5606E+02  0.5574E+02
     -5.527  0.4020E+02  0.4257E+02  0.5826E+02  0.5807E+02
     -5.472  0.3914E+02  0.3387E+02  0.6040E+02  0.5992E+02
     -5.418  0.3015E+02  0.3851E+02  0.6204E+02  0.6202E+02
     -5.363  0.3170E+02  0.3008E+02  0.6378E+02  0.6367E+02
     -5.308  0.5162E+02  0.4835E+02  0.6660E+02  0.6631E+02
     -5.254  0.1973E+02  0.2293E+02  0.6768E+02  0.6756E+02
     -5.199  0.5355E+02  0.5203E+02  0.7060E+02  0.7040E+02
     -5.145  0.6633E+02  0.5929E+02  0.7423E+02  0.7364E+02
     -5.090  0.4967E+02  0.5735E+02  0.7694E+02  0.7678E+02
     -5.035  0.4128E+02  0.4014E+02  0.7920E+02  0.7897E+02
     -4.981  0.2867E+02  0.2966E+02  0.8076E+02  0.8059E+02
     -4.926  0.5225E+02  0.4696E+02  0.8362E+02  0.8316E+02
     -4.871  0.3210E+02  0.3874E+02  0.8537E+02  0.8528E+02
     -4.817  0.3666E+02  0.3202E+02  0.8738E+02  0.8703E+02
     -4.762  0.5330E+02  0.5577E+02  0.9029E+02  0.9007E+02
     -4.707  0.1769E+02  0.1699E+02  0.9126E+02  0.9100E+02
     -4.653  0.3981E+02  0.3952E+02  0.9343E+02  0.9316E+02
     -4.598  0.4243E+02  0.4727E+02  0.9575E+02  0.9574E+02
     -4.543  0.2406E+02  0.1734E+02  0.9706E+02  0.9669E+02
     -4.489  0.4548E+02  0.4960E+02  0.9955E+02  0.9940E+02
     -4.434  0.2800E+02  0.2591E+02  0.1011E+03  0.1008E+03
     -4.379  0.4554E+02  0.4248E+02  0.1036E+03  0.1031E+03
     -4.325  0.2191E+02  0.2961E+02  0.1048E+03  0.1048E+03
     -4.270  0.3387E+02  0.3152E+02  0.1066E+03  0.1065E+03
     -4.216  0.2531E+02  0.2533E+02  0.1080E+03  0.1079E+03
     -4.161  0.1801E+02  0.1778E+02  0.1090E+03  0.1088E+03
     -4.106  0.2150E+02  0.1970E+02  0.1102E+03  0.1099E+03
     -4.052  0.1163E+02  0.1545E+02  0.1108E+03  0.1108E+03
     -3.997  0.9939E+01  0.5627E+01  0.1113E+03  0.1111E+03
     -3.942  0.3465E+02  0.3809E+02  0.1132E+03  0.1131E+03
     -3.888  0.1779E+02  0.1585E+02  0.1142E+03  0.1140E+03
     -3.833  0.5424E+01  0.8179E+01  0.1145E+03  0.1145E+03
     -3.778  0.1785E+02  0.1762E+02  0.1155E+03  0.1154E+03
     -3.724  0.2935E+02  0.2520E+02  0.1171E+03  0.1168E+03
     -3.669  0.1463E+02  0.1311E+02  0.1179E+03  0.1175E+03
     -3.614  0.3393E+02  0.3745E+02  0.1197E+03  0.1196E+03
     -3.560  0.4894E+01  0.8035E+01  0.1200E+03  0.1200E+03
     -3.505  0.1624E+02  0.1437E+02  0.1209E+03  0.1208E+03
     -3.451  0.2042E+02  0.2222E+02  0.1220E+03  0.1220E+03
     -3.396  0.1862E+02  0.1830E+02  0.1230E+03  0.1230E+03
     -3.341  0.2094E+02  0.1793E+02  0.1242E+03  0.1240E+03
     -3.287  0.1724E+02  0.1894E+02  0.1251E+03  0.1250E+03
     -3.232  0.1724E+02  0.1220E+02  0.1261E+03  0.1257E+03
     -3.177  0.3482E+02  0.3959E+02  0.1280E+03  0.1278E+03
     -3.123  0.1232E+02  0.1215E+02  0.1286E+03  0.1285E+03
     -3.068  0.2451E+02  0.2473E+02  0.1300E+03  0.1299E+03
     -3.013  0.5658E+01  0.7161E+01  0.1303E+03  0.1303E+03
     -2.959  0.2344E+02  0.2017E+02  0.1316E+03  0.1314E+03
     -2.904  0.2779E+02  0.2779E+02  0.1331E+03  0.1329E+03
     -2.849  0.3372E+02  0.3137E+02  0.1349E+03  0.1346E+03
     -2.795  0.3365E+02  0.3602E+02  0.1368E+03  0.1366E+03
     -2.740  0.3901E+02  0.3423E+02  0.1389E+03  0.1384E+03
     -2.685  0.5175E+02  0.5407E+02  0.1417E+03  0.1414E+03
     -2.631  0.5403E+02  0.4893E+02  0.1447E+03  0.1441E+03
     -2.576  0.4917E+02  0.5484E+02  0.1474E+03  0.1471E+03
     -2.522  0.6161E+02  0.6075E+02  0.1507E+03  0.1504E+03
     -2.467  0.5676E+02  0.5140E+02  0.1538E+03  0.1532E+03
     -2.412  0.6536E+02  0.7325E+02  0.1574E+03  0.1572E+03
     -2.358  0.5783E+02  0.5779E+02  0.1606E+03  0.1603E+03
     -2.303  0.4313E+02  0.4169E+02  0.1629E+03  0.1626E+03
     -2.248  0.4627E+02  0.4548E+02  0.1654E+03  0.1651E+03
     -2.194  0.4217E+02  0.3925E+02  0.1677E+03  0.1672E+03
     -2.139  0.4905E+02  0.5230E+02  0.1704E+03  0.1701E+03
     -2.084  0.6402E+02  0.5993E+02  0.1739E+03  0.1734E+03
     -2.030  0.3055E+02  0.3744E+02  0.1756E+03  0.1754E+03
     -1.975  0.6782E+02  0.6228E+02  0.1793E+03  0.1788E+03
     -1.920  0.1308E+02  0.2141E+02  0.1800E+03  0.1800E+03
     -1.866  0.1228E+02  0.1099E+02  0.1807E+03  0.1806E+03
     -1.811  0.2441E+02  0.2112E+02  0.1820E+03  0.1818E+03
     -1.756  0.3229E+02  0.3247E+02  0.1838E+03  0.1835E+03
     -1.702  0.3868E+02  0.3478E+02  0.1859E+03  0.1854E+03
     -1.647  0.4959E+02  0.4694E+02  0.1886E+03  0.1880E+03
     -1.593  0.5481E+02  0.5948E+02  0.1916E+03  0.1912E+03
     -1.538  0.1930E+02  0.2152E+02  0.1927E+03  0.1924E+03
     -1.483  0.2359E+02  0.2340E+02  0.1939E+03  0.1937E+03
     -1.429  0.2503E+02  0.2532E+02  0.1953E+03  0.1951E+03
     -1.374  0.3263E+02  0.3317E+02  0.1971E+03  0.1969E+03
     -1.319  0.1313E+02  0.1584E+02  0.1978E+03  0.1978E+03
     -1.265  0.3074E+02  0.3132E+02  0.1995E+03  0.1995E+03
     -1.210  0.4686E+01  0.4850E+01  0.1997E+03  0.1997E+03
     -1.155  0.8476E+01  0.6881E+01  0.2002E+03  0.2001E+03
     -1.101  0.2090E+02  0.1634E+02  0.2014E+03  0.2010E+03
     -1.046  0.2206E+02  0.2171E+02  0.2026E+03  0.2022E+03
     -0.991  0.3766E+02  0.4292E+02  0.2046E+03  0.2045E+03
     -0.937  0.1687E+02  0.1630E+02  0.2055E+03  0.2054E+03
     -0.882  0.1305E+02  0.1502E+02  0.2063E+03  0.2063E+03
     -0.828  0.9001E+01  0.8550E+01  0.2067E+03  0.2067E+03
     -0.773  0.1822E+02  0.1114E+02  0.2077E+03  0.2073E+03
     -0.718  0.1072E+02  0.1707E+02  0.2083E+03  0.2083E+03
     -0.664  0.3171E+02  0.3137E+02  0.2101E+03  0.2100E+03
     -0.609  0.3444E+02  0.2538E+02  0.2119E+03  0.2114E+03
     -0.554  0.4436E+02  0.4785E+02  0.2144E+03  0.2140E+03
     -0.500  0.4376E+02  0.4257E+02  0.2168E+03  0.2163E+03
     -0.445  0.1076E+02  0.1647E+02  0.2173E+03  0.2172E+03
     -0.390  0.2910E+02  0.2364E+02  0.2189E+03  0.2185E+03
     -0.336  0.1951E+02  0.2756E+02  0.2200E+03  0.2200E+03
     -0.281  0.7459E+01  0.3613E+01  0.2204E+03  0.2202E+03
     -0.226  0.1680E+02  0.1592E+02  0.2213E+03  0.2211E+03
     -0.172  0.3054E+02  0.3425E+02  0.2230E+03  0.2229E+03
     -0.117  0.2572E+01  0.2380E+01  0.2231E+03  0.2231E+03
     -0.062  0.8583E+01  0.8230E+01  0.2236E+03  0.2235E+03
     -0.008  0.2484E+02  0.2244E+02  0.2250E+03  0.2247E+03
      0.047  0.9855E+01  0.1384E+02  0.2255E+03  0.2255E+03
      0.101  0.4574E+01  0.4495E+01  0.2257E+03  0.2257E+03
      0.156  0.2620E+02  0.2066E+02  0.2272E+03  0.2269E+03
      0.211  0.5047E+02  0.5012E+02  0.2299E+03  0.2296E+03
      0.265  0.8224E+02  0.7635E+02  0.2344E+03  0.2338E+03
      0.320  0.2991E+02  0.4014E+02  0.2361E+03  0.2360E+03
      0.375  0.4393E+02  0.4384E+02  0.2385E+03  0.2384E+03
      0.429  0.4440E+02  0.3988E+02  0.2409E+03  0.2406E+03
      0.484  0.3872E+02  0.4203E+02  0.2430E+03  0.2429E+03
      0.539  0.5090E+02  0.4921E+02  0.2458E+03  0.2455E+03
      0.593  0.3832E+02  0.3451E+02  0.2479E+03  0.2474E+03
      0.648  0.7201E+02  0.7433E+02  0.2518E+03  0.2515E+03
      0.703  0.3187E+02  0.3053E+02  0.2536E+03  0.2532E+03
      0.757  0.1171E+03  0.1133E+03  0.2600E+03  0.2593E+03
      0.812  0.8040E+02  0.8589E+02  0.2644E+03  0.2640E+03
      0.867  0.5703E+02  0.5718E+02  0.2675E+03  0.2672E+03
      0.921  0.5960E+02  0.5389E+02  0.2707E+03  0.2701E+03
      0.976  0.4920E+02  0.5434E+02  0.2734E+03  0.2731E+03
      1.030  0.4374E+02  0.4477E+02  0.2758E+03  0.2755E+03
      1.085  0.9955E+02  0.9924E+02  0.2812E+03  0.2810E+03
      1.140  0.5523E+02  0.5109E+02  0.2843E+03  0.2837E+03
      1.194  0.7960E+02  0.7374E+02  0.2886E+03  0.2878E+03
      1.249  0.6619E+02  0.7457E+02  0.2922E+03  0.2918E+03
      1.304  0.7456E+02  0.7049E+02  0.2963E+03  0.2957E+03
      1.358  0.9000E+02  0.9338E+02  0.3012E+03  0.3008E+03
      1.413  0.6464E+02  0.6454E+02  0.3048E+03  0.3043E+03
      1.468  0.8962E+02  0.8555E+02  0.3097E+03  0.3090E+03
      1.522  0.4200E+02  0.4867E+02  0.3120E+03  0.3117E+03
      1.577  0.5905E+02  0.5686E+02  0.3152E+03  0.3148E+03
      1.632  0.8577E+02  0.8146E+02  0.3199E+03  0.3192E+03
      1.686  0.7643E+02  0.8099E+02  0.3240E+03  0.3236E+03
      1.741  0.7574E+02  0.7486E+02  0.3282E+03  0.3277E+03
      1.796  0.1028E+03  0.9901E+02  0.3338E+03  0.3331E+03
      1.850  0.9735E+02  0.9006E+02  0.3391E+03  0.3381E+03
      1.905  0.7818E+02  0.8894E+02  0.3434E+03  0.3429E+03
      1.959  0.7921E+02  0.7980E+02  0.3477E+03  0.3473E+03
      2.014  0.4555E+02  0.4642E+02  0.3502E+03  0.3498E+03
      2.069  0.5900E+02  0.6341E+02  0.3534E+03  0.3533E+03
      2.123  0.7790E+02  0.7243E+02  0.3577E+03  0.3573E+03
      2.178  0.5465E+02  0.5002E+02  0.3607E+03  0.3600E+03
      2.233  0.7958E+02  0.8174E+02  0.3650E+03  0.3645E+03
      2.287  0.6512E+02  0.6394E+02  0.3686E+03  0.3679E+03
      2.342  0.9136E+02  0.9661E+02  0.3736E+03  0.3732E+03
      2.397  0.5668E+02  0.5591E+02  0.3767E+03  0.3763E+03
      2.451  0.7714E+02  0.7038E+02  0.3809E+03  0.3801E+03
      2.506  0.7416E+02  0.7605E+02  0.3849E+03  0.3843E+03
      2.561  0.5923E+02  0.6738E+02  0.3882E+03  0.3880E+03
      2.615  0.7394E+02  0.7290E+02  0.3922E+03  0.3919E+03
      2.670  0.5603E+02  0.5311E+02  0.3953E+03  0.3949E+03
      2.724  0.7398E+02  0.7882E+02  0.3993E+03  0.3992E+03
      2.779  0.6395E+02  0.6141E+02  0.4028E+03  0.4025E+03
      2.834  0.3849E+02  0.3975E+02  0.4049E+03  0.4047E+03
      2.888  0.6692E+02  0.5583E+02  0.4086E+03  0.4077E+03
      2.943  0.8072E+02  0.8473E+02  0.4130E+03  0.4124E+03
      2.998  0.4511E+02  0.4936E+02  0.4155E+03  0.4151E+03
      3.052  0.6198E+02  0.5089E+02  0.4188E+03  0.4178E+03
      3.107  0.8202E+02  0.9383E+02  0.4233E+03  0.4230E+03
      3.162  0.5604E+02  0.4671E+02  0.4264E+03  0.4255E+03
      3.216  0.7650E+02  0.7603E+02  0.4306E+03  0.4297E+03
      3.271  0.7209E+02  0.8362E+02  0.4345E+03  0.4342E+03
      3.326  0.6931E+02  0.6183E+02  0.4383E+03  0.4376E+03
      3.380  0.6661E+02  0.6667E+02  0.4419E+03  0.4413E+03
      3.435  0.4679E+02  0.4971E+02  0.4445E+03  0.4440E+03
      3.490  0.6591E+02  0.6616E+02  0.4481E+03  0.4476E+03
      3.544  0.2174E+02  0.2130E+02  0.4493E+03  0.4488E+03
      3.599  0.6142E+02  0.6266E+02  0.4526E+03  0.4522E+03
      3.653  0.2161E+02  0.2758E+02  0.4538E+03  0.4537E+03
      3.708  0.3961E+02  0.3313E+02  0.4560E+03  0.4555E+03
      3.763  0.2905E+02  0.3580E+02  0.4576E+03  0.4575E+03
      3.817  0.3382E+02  0.2987E+02  0.4594E+03  0.4591E+03
      3.872  0.1634E+02  0.2126E+02  0.4603E+03  0.4603E+03
      3.927  0.3921E+02  0.3476E+02  0.4625E+03  0.4622E+03
      3.981  0.4164E+02  0.3452E+02  0.4647E+03  0.4640E+03
      4.036  0.1908E+02  0.2840E+02  0.4658E+03  0.4656E+03
      4.091  0.2778E+02  0.2641E+02  0.4673E+03  0.4670E+03
      4.145  0.2207E+02  0.1755E+02  0.4685E+03  0.4680E+03
      4.200  0.2087E+02  0.2384E+02  0.4696E+03  0.4693E+03
      4.255  0.2595E+02  0.1962E+02  0.4711E+03  0.4704E+03
      4.309  0.1621E+02  0.2339E+02  0.4719E+03  0.4717E+03
      4.364  0.1018E+02  0.1552E+02  0.4725E+03  0.4725E+03
      4.419  0.1971E+02  0.7816E+01  0.4736E+03  0.4729E+03
      4.473  0.2489E+02  0.1762E+02  0.4749E+03  0.4739E+03
      4.528  0.2470E+02  0.2947E+02  0.4763E+03  0.4755E+03
      4.582  0.8454E+01  0.1396E+02  0.4767E+03  0.4763E+03
      4.637  0.6229E+01  0.8911E+01  0.4771E+03  0.4767E+03
      4.692  0.1839E+02  0.1015E+02  0.4781E+03  0.4773E+03
      4.746  0.5559E+02  0.3386E+02  0.4811E+03  0.4792E+03
      4.801  0.2718E+02  0.4339E+02  0.4826E+03  0.4815E+03
      4.856  0.3380E+02  0.2791E+02  0.4845E+03  0.4831E+03
      4.910  0.1450E+02  0.3074E+02  0.4853E+03  0.4847E+03
      4.965  0.2330E+02  0.2684E+02  0.4865E+03  0.4862E+03
      5.020  0.4729E+02  0.1943E+02  0.4891E+03  0.4873E+03
      5.074  0.3254E+02  0.5419E+02  0.4909E+03  0.4902E+03
      5.129  0.2547E+02  0.2056E+02  0.4923E+03  0.4913E+03
      5.184  0.2712E+02  0.2744E+02  0.4938E+03  0.4928E+03
      5.238  0.2836E+02  0.2715E+02  0.4953E+03  0.4943E+03
      5.293  0.4941E+02  0.5743E+02  0.4980E+03  0.4975E+03
      5.348  0.2910E+02  0.2627E+02  0.4996E+03  0.4989E+03
      5.402  0.4615E+02  0.4756E+02  0.5021E+03  0.5015E+03
      5.457  0.3406E+02  0.3905E+02  0.5040E+03  0.5036E+03
      5.511  0.3382E+02  0.3138E+02  0.5058E+03  0.5053E+03
      5.566  0.4594E+02  0.4857E+02  0.5083E+03  0.5080E+03
      5.621  0.3763E+02  0.3419E+02  0.5104E+03  0.5099E+03
      5.675  0.7005E+02  0.6451E+02  0.5142E+03  0.5134E+03
      5.730  0.5701E+02  0.5303E+02  0.5173E+03  0.5163E+03
      5.785  0.3633E+02  0.4663E+02  0.5193E+03  0.5188E+03
      5.839  0.4061E+02  0.4394E+02  0.5216E+03  0.5212E+03
      5.894  0.6705E+02  0.6251E+02  0.5252E+03  0.5247E+03
      5.949  0.5698E+02  0.4748E+02  0.5283E+03  0.5273E+03
      6.003  0.3507E+02  0.5071E+02  0.5302E+03  0.5300E+03
      6.058  0.4389E+02  0.4211E+02  0.5326E+03  0.5323E+03
      6.113  0.6025E+02  0.5604E+02  0.5359E+03  0.5354E+03
      6.167  0.5780E+02  0.5224E+02  0.5391E+03  0.5382E+03
      6.222  0.6358E+02  0.7322E+02  0.5426E+03  0.5422E+03
      6.276  0.3193E+02  0.3306E+02  0.5443E+03  0.5441E+03
      6.331  0.2632E+02  0.2366E+02  0.5458E+03  0.5453E+03
      6.386  0.6193E+02  0.6073E+02  0.5491E+03  0.5487E+03
      6.440  0.5850E+02  0.5963E+02  0.5523E+03  0.5519E+03
      6.495  0.6508E+02  0.6495E+02  0.5559E+03  0.5555E+03
      6.550  0.7214E+02  0.6713E+02  0.5598E+03  0.5591E+03
      6.604  0.2337E+02  0.3128E+02  0.5611E+03  0.5609E+03
      6.659  0.3803E+02  0.3473E+02  0.5632E+03  0.5627E+03
      6.714  0.4658E+02  0.4936E+02  0.5657E+03  0.5654E+03
      6.768  0.4853E+02  0.5162E+02  0.5684E+03  0.5683E+03
      6.823  0.4698E+02  0.3559E+02  0.5710E+03  0.5702E+03
      6.878  0.4504E+02  0.5607E+02  0.5734E+03  0.5733E+03
      6.932  0.1986E+02  0.2236E+02  0.5745E+03  0.5745E+03
      6.987  0.6271E+01  0.3723E+01  0.5748E+03  0.5747E+03
      7.042  0.1179E+02  0.1055E+02  0.5755E+03  0.5753E+03
      7.096  0.9387E+01  0.1322E+02  0.5760E+03  0.5760E+03
      7.151  0.0000E+00  0.0000E+00  0.5760E+03  0.5760E+03
      7.205  0.0000E+00  0.0000E+00  0.5760E+03  0.5760E+03
      7.260  0.0000E+00  0.0000E+00  0.5760E+03  0.5760E+03
      7.315  0.0000E+00  0.0000E+00  0.5760E+03  0.5760E+03
      7.369  0.0000E+00  0.0000E+00  0.5760E+03  0.5760E+03
      7.424  0.0000E+00  0.0000E+00  0.5760E+03  0.5760E+03
      7.479  0.0000E+00  0.0000E+00  0.5760E+03  0.5760E+03
      7.533  0.0000E+00  0.0000E+00  0.5760E+03  0.5760E+03
      7.588  0.0000E+00  0.0000E+00  0.5760E+03  0.5760E+03
      7.643  0.0000E+00  0.0000E+00  0.5760E+03  0.5760E+03
      7.697  0.0000E+00  0.0000E+00  0.5760E+03  0.5760E+03
      7.752  0.0000E+00  0.0000E+00  0.5760E+03  0.5760E+03
      7.807  0.0000E+00  0.0000E+00  0.5760E+03  0.5760E+03
