Si and Ge interface calculation         
           1
    10.862000    0.000000    0.000000
     0.000000   16.293001    0.000000
     0.000000    0.000000   18.260147
   Si   Sn
    72    72
Direct configuration=     1
   0.00000000  0.99406773  0.00000000
   0.00000000  0.82740104  0.14871185
   0.00000000  0.66073430  0.29742369
   0.50000000  0.99406773  0.00000000
   0.50000000  0.82740104  0.14871185
   0.50000000  0.66073430  0.29742369
   0.00000000  0.32740107  0.00000000
   0.00000000  0.16073438  0.14871185
   0.00000000  0.99406767  0.29742369
   0.50000000  0.32740107  0.00000000
   0.50000000  0.16073438  0.14871185
   0.50000000  0.99406767  0.29742369
   0.00000000  0.66073447  0.00000000
   0.00000000  0.49406773  0.14871185
   0.00000000  0.32740104  0.29742369
   0.50000000  0.66073447  0.00000000
   0.50000000  0.49406773  0.14871185
   0.50000000  0.32740104  0.29742369
   0.12500000  0.07740106  0.07435592
   0.12500000  0.91073436  0.22306777
   0.12500000  0.74406767  0.37177962
   0.62500000  0.07740106  0.07435592
   0.62500000  0.91073436  0.22306777
   0.62500000  0.74406767  0.37177962
   0.12500000  0.41073438  0.07435592
   0.12500000  0.24406767  0.22306777
   0.12500000  0.07740095  0.37177962
   0.62500000  0.41073438  0.07435592
   0.62500000  0.24406767  0.22306777
   0.62500000  0.07740095  0.37177962
   0.12500000  0.74406779  0.07435592
   0.12500000  0.57740104  0.22306777
   0.12500000  0.41073433  0.37177962
   0.62500000  0.74406779  0.07435592
   0.62500000  0.57740104  0.22306777
   0.62500000  0.41073433  0.37177962
   0.25000000  0.16073438  0.00000000
   0.25000000  0.99406767  0.14871185
   0.25000000  0.82740098  0.29742369
   0.75000006  0.16073438  0.00000000
   0.75000006  0.99406767  0.14871185
   0.75000006  0.82740098  0.29742369
   0.25000000  0.49406773  0.00000000
   0.25000000  0.32740104  0.14871185
   0.25000000  0.16073433  0.29742369
   0.75000006  0.49406773  0.00000000
   0.75000006  0.32740104  0.14871185
   0.75000006  0.16073433  0.29742369
   0.25000000  0.82740110  0.00000000
   0.25000000  0.66073442  0.14871185
   0.25000000  0.49406773  0.29742369
   0.75000006  0.82740110  0.00000000
   0.75000006  0.66073442  0.14871185
   0.75000006  0.49406773  0.29742369
   0.37500003  0.24406773  0.07435592
   0.37500003  0.07740102  0.22306777
   0.37500003  0.91073430  0.37177962
   0.87500006  0.24406773  0.07435592
   0.87500006  0.07740102  0.22306777
   0.87500006  0.91073430  0.37177962
   0.37500003  0.57740116  0.07435592
   0.37500003  0.41073447  0.22306777
   0.37500003  0.24406771  0.37177962
   0.87500006  0.57740116  0.07435592
   0.87500006  0.41073447  0.22306777
   0.87500006  0.24406771  0.37177962
   0.37500003  0.91073436  0.07435592
   0.37500003  0.74406767  0.22306777
   0.37500003  0.57740092  0.37177962
   0.87500006  0.91073436  0.07435592
   0.87500006  0.74406767  0.22306777
   0.87500006  0.57740092  0.37177962
   0.00000000  0.98202050  0.37177962
   0.99999994  0.73202038  0.49742371
   0.99999988  0.48202026  0.62306780
   0.99999982  0.23202008  0.74871182
   0.99999982  0.98202002  0.87435585
   0.99999976  0.73201990  0.00000000
   0.33333340  0.64868718  0.37177962
   0.33333337  0.39868715  0.49742371
   0.33333328  0.14868700  0.62306774
   0.33333322  0.89868689  0.74871177
   0.33333316  0.64868683  0.87435585
   0.33333322  0.39868671  0.99999994
   0.66666675  0.31535384  0.37177962
   0.66666669  0.06535379  0.49742371
   0.66666663  0.81535363  0.62306774
   0.66666663  0.56535351  0.74871177
   0.66666657  0.31535345  0.87435585
   0.66666663  0.06535333  0.99999994
   0.00000000  0.48202050  0.37177962
   0.99999994  0.23202044  0.49742371
   0.99999988  0.98202032  0.62306780
   0.99999982  0.73202014  0.74871182
   0.99999976  0.48202014  0.87435585
   0.99999976  0.23201996  0.99999994
   0.33333337  0.14868717  0.37177962
   0.33333331  0.89868712  0.49742371
   0.33333325  0.64868700  0.62306780
   0.33333325  0.39868677  0.74871177
   0.33333322  0.14868671  0.87435585
   0.33333316  0.89868665  0.99999994
   0.66666681  0.81535393  0.37177962
   0.66666675  0.56535381  0.49742371
   0.66666669  0.31535369  0.62306780
   0.66666663  0.06535357  0.74871182
   0.66666651  0.81535351  0.87435585
   0.66666651  0.56535339  0.99999994
   0.08333328  0.64868724  0.37177968
   0.08333325  0.39868724  0.49742371
   0.08333319  0.14868708  0.62306780
   0.08333316  0.89868695  0.74871177
   0.08333307  0.64868689  0.87435585
   0.08333308  0.39868677  0.99999994
   0.41666666  0.31535384  0.37177968
   0.41666663  0.06535377  0.49742371
   0.41666657  0.81535363  0.62306780
   0.41666651  0.56535351  0.74871177
   0.41666645  0.31535345  0.87435585
   0.41666648  0.06535333  0.99999994
   0.75000000  0.98202044  0.37177968
   0.75000000  0.73202038  0.49742371
   0.74999994  0.48202026  0.62306780
   0.74999982  0.23202014  0.74871177
   0.74999982  0.98202002  0.87435585
   0.74999982  0.73201990  0.99999994
   0.08333333  0.14868715  0.37177962
   0.08333329  0.89868706  0.49742371
   0.08333327  0.64868695  0.62306780
   0.08333319  0.39868683  0.74871182
   0.08333313  0.14868677  0.87435585
   0.08333309  0.89868665  0.99999994
   0.41666672  0.81535381  0.37177962
   0.41666666  0.56535369  0.49742371
   0.41666663  0.31535360  0.62306780
   0.41666660  0.06535343  0.74871182
   0.41666651  0.81535339  0.87435585
   0.41666654  0.56535327  0.99999994
   0.75000000  0.48202050  0.37177962
   0.74999994  0.23202042  0.49742371
   0.74999994  0.98202032  0.62306780
   0.74999982  0.73202014  0.74871182
   0.74999976  0.48202008  0.87435585
   0.74999976  0.23201996  0.99999994
