Si and Ge interface calculation         
           1
    16.973400    0.000000    0.000000
     0.000000   16.973400    0.000000
     0.000000    0.000000   17.861000
   Ge   Si
   108   120
Direct configuration=     1
   0.99430549  0.66666657  0.00000000
   0.82763886  0.66666657  0.15838417
   0.66097212  0.66666657  0.31676838
   0.99430549  0.33333328  0.00000000
   0.82763886  0.33333328  0.15838417
   0.66097212  0.33333328  0.31676838
   0.99430549  0.00000000  0.00000000
   0.82763886  0.00000000  0.15838417
   0.66097212  0.00000000  0.31676838
   0.32763880  0.66666657  0.00000000
   0.16097215  0.66666657  0.15838417
   0.99430543  0.66666657  0.31676838
   0.32763880  0.33333328  0.00000000
   0.16097215  0.33333328  0.15838417
   0.99430543  0.33333328  0.31676838
   0.32763880  0.00000000  0.00000000
   0.16097215  0.00000000  0.15838417
   0.99430543  0.00000000  0.31676838
   0.66097212  0.66666657  0.00000000
   0.49430543  0.66666657  0.15838417
   0.32763875  0.66666657  0.31676838
   0.66097212  0.33333328  0.00000000
   0.49430543  0.33333328  0.15838417
   0.32763875  0.33333328  0.31676838
   0.66097212  0.00000000  0.00000000
   0.49430543  0.00000000  0.15838417
   0.32763875  0.00000000  0.31676838
   0.07763884  0.91666657  0.07919210
   0.91097212  0.91666657  0.23757629
   0.74430549  0.91666657  0.39596048
   0.07763884  0.58333331  0.07919210
   0.91097212  0.58333331  0.23757629
   0.74430549  0.58333331  0.39596048
   0.07763884  0.24999995  0.07919210
   0.91097212  0.24999995  0.23757629
   0.74430549  0.24999995  0.39596048
   0.41097209  0.91666657  0.07919210
   0.24430542  0.91666657  0.23757629
   0.07763872  0.91666657  0.39596048
   0.41097209  0.58333331  0.07919210
   0.24430542  0.58333331  0.23757629
   0.07763872  0.58333331  0.39596048
   0.41097209  0.24999995  0.07919210
   0.24430542  0.24999995  0.23757629
   0.07763872  0.24999995  0.39596048
   0.74430549  0.91666657  0.07919210
   0.57763875  0.91666657  0.23757629
   0.41097206  0.91666657  0.39596048
   0.74430549  0.58333331  0.07919210
   0.57763875  0.58333331  0.23757629
   0.41097206  0.58333331  0.39596048
   0.74430549  0.24999995  0.07919210
   0.57763875  0.24999995  0.23757629
   0.41097206  0.24999995  0.39596048
   0.16097216  0.83333319  0.00000000
   0.99430549  0.83333319  0.15838417
   0.82763880  0.83333319  0.31676838
   0.16097216  0.49999991  0.00000000
   0.99430549  0.49999991  0.15838417
   0.82763880  0.49999991  0.31676838
   0.16097216  0.16666664  0.00000000
   0.99430549  0.16666664  0.15838417
   0.82763880  0.16666664  0.31676838
   0.49430543  0.83333319  0.00000000
   0.32763875  0.83333319  0.15838417
   0.16097207  0.83333319  0.31676838
   0.49430543  0.49999991  0.00000000
   0.32763875  0.49999991  0.15838417
   0.16097207  0.49999991  0.31676838
   0.49430543  0.16666664  0.00000000
   0.32763875  0.16666664  0.15838417
   0.16097207  0.16666664  0.31676838
   0.82763880  0.83333319  0.00000000
   0.66097212  0.83333319  0.15838417
   0.49430543  0.83333319  0.31676838
   0.82763880  0.49999991  0.00000000
   0.66097212  0.49999991  0.15838417
   0.49430543  0.49999991  0.31676838
   0.82763880  0.16666664  0.00000000
   0.66097212  0.16666664  0.15838417
   0.49430543  0.16666664  0.31676838
   0.24430546  0.74999988  0.07919210
   0.07763878  0.74999988  0.23757629
   0.91097212  0.74999988  0.39596048
   0.24430546  0.41666663  0.07919210
   0.07763878  0.41666663  0.23757629
   0.91097212  0.41666663  0.39596048
   0.24430546  0.08333333  0.07919210
   0.07763878  0.08333333  0.23757629
   0.91097212  0.08333333  0.39596048
   0.57763886  0.74999988  0.07919210
   0.41097215  0.74999988  0.23757629
   0.24430545  0.74999988  0.39596048
   0.57763886  0.41666663  0.07919210
   0.41097215  0.41666663  0.23757629
   0.24430545  0.41666663  0.39596048
   0.57763886  0.08333333  0.07919210
   0.41097215  0.08333333  0.23757629
   0.24430545  0.08333333  0.39596048
   0.91097218  0.74999988  0.07919210
   0.74430549  0.74999988  0.23757629
   0.57763875  0.74999988  0.39596048
   0.91097218  0.41666663  0.07919210
   0.74430549  0.41666663  0.23757629
   0.57763875  0.41666663  0.39596048
   0.91097218  0.08333333  0.07919210
   0.74430549  0.08333333  0.23757629
   0.57763875  0.08333333  0.39596048
   0.10294509  0.18461996  0.50793630
   0.95294499  0.23462002  0.65997148
   0.80294490  0.28462005  0.81200665
   0.20294499  0.48462000  0.50793630
   0.05294490  0.53462011  0.65997148
   0.90294486  0.58462012  0.81200665
   0.30294502  0.78461993  0.50793630
   0.15294492  0.83462000  0.65997148
   0.00294495  0.88462007  0.81200665
   0.80294502  0.28461999  0.50793630
   0.65294492  0.33462003  0.65997148
   0.50294483  0.38462007  0.81200665
   0.90294498  0.58462000  0.50793630
   0.75294495  0.63462007  0.65997148
   0.60294485  0.68462014  0.81200665
   0.00294495  0.88461995  0.50793630
   0.85294485  0.93462002  0.65997148
   0.70294488  0.98462009  0.81200665
   0.40294492  0.08461992  0.50793630
   0.25294495  0.13462000  0.65997148
   0.10294485  0.18462005  0.81200665
   0.50294495  0.38461995  0.50793630
   0.35294497  0.43462002  0.65997148
   0.20294488  0.48462006  0.81200665
   0.60294497  0.68462002  0.50793630
   0.45294491  0.73462009  0.65997148
   0.30294490  0.78462017  0.81200665
   0.70294499  0.98461998  0.50793630
   0.55294490  0.03461993  0.65997148
   0.40294480  0.08462015  0.81200665
   0.35294497  0.18461993  0.58395392
   0.20294488  0.23462000  0.73598909
   0.05294478  0.28462011  0.88802421
   0.05294502  0.28461999  0.58395392
   0.90294504  0.33462003  0.73598909
   0.75294489  0.38462010  0.88802421
   0.15294504  0.58462000  0.58395392
   0.00294495  0.63462007  0.73598909
   0.85294485  0.68462014  0.88802421
   0.25294495  0.88461995  0.58395392
   0.10294497  0.93462014  0.73598909
   0.95294488  0.98462009  0.88802421
   0.65294498  0.08461991  0.58395392
   0.50294495  0.13462010  0.73598909
   0.35294485  0.18462017  0.88802421
   0.75294495  0.38461995  0.58395392
   0.60294491  0.43462005  0.73598909
   0.45294478  0.48462006  0.88802421
   0.85294497  0.68461990  0.58395392
   0.70294488  0.73461998  0.73598909
   0.55294484  0.78462017  0.88802421
   0.95294499  0.98461998  0.58395392
   0.80294490  0.03462005  0.73598909
   0.65294480  0.08462015  0.88802421
   0.45294496  0.48461994  0.58395392
   0.30294490  0.53462005  0.73598909
   0.15294480  0.58462012  0.88802421
   0.55294496  0.78462005  0.58395392
   0.40294492  0.83462012  0.73598909
   0.25294483  0.88462007  0.88802421
   0.30294502  0.28461993  0.50793630
   0.15294492  0.33462003  0.65997148
   0.00294483  0.38462013  0.81200665
   0.90294498  0.08461993  0.50793630
   0.75294495  0.13462000  0.65997148
   0.60294485  0.18462008  0.81200665
   0.00294495  0.38461995  0.50793630
   0.85294497  0.43462002  0.65997148
   0.70294488  0.48462012  0.81200665
   0.10294497  0.68462002  0.50793630
   0.95294499  0.73462009  0.65997148
   0.80294484  0.78462017  0.81200665
   0.20294499  0.98462009  0.50793630
   0.05294490  0.03462017  0.65997148
   0.90294486  0.08462015  0.81200665
   0.60294497  0.18461995  0.50793630
   0.45294491  0.23462002  0.65997148
   0.30294478  0.28462011  0.81200665
   0.70294499  0.48462000  0.50793630
   0.55294490  0.53462005  0.65997148
   0.40294480  0.58462012  0.81200665
   0.80294496  0.78461993  0.50793630
   0.65294486  0.83462000  0.65997148
   0.50294483  0.88462007  0.81200665
   0.40294492  0.58461988  0.50793630
   0.25294495  0.63462007  0.65997148
   0.10294485  0.68462014  0.81200665
   0.50294495  0.88461995  0.50793630
   0.35294497  0.93462002  0.65997148
   0.20294488  0.98462009  0.81200665
   0.15294492  0.08461991  0.58395392
   0.00294495  0.13462010  0.73598909
   0.85294485  0.18462005  0.88802421
   0.25294506  0.38461995  0.58395392
   0.10294497  0.43462005  0.73598909
   0.95294488  0.48462006  0.88802421
   0.35294497  0.68461990  0.58395392
   0.20294499  0.73461998  0.73598909
   0.05294490  0.78462005  0.88802421
   0.85294497  0.18461993  0.58395392
   0.70294493  0.23462002  0.73598909
   0.55294484  0.28462005  0.88802421
   0.95294511  0.48462000  0.58395392
   0.80294502  0.53462005  0.73598909
   0.65294492  0.58462012  0.88802421
   0.05294502  0.78461993  0.58395392
   0.90294492  0.83462000  0.73598909
   0.75294483  0.88462019  0.88802421
   0.55294502  0.28461996  0.58395392
   0.40294492  0.33462003  0.73598909
   0.25294483  0.38462010  0.88802421
   0.65294498  0.58462000  0.58395392
   0.50294489  0.63462007  0.73598909
   0.35294485  0.68462002  0.88802421
   0.75294495  0.88461995  0.58395392
   0.60294485  0.93462002  0.73598909
   0.45294476  0.98462009  0.88802421
   0.45294496  0.98461998  0.58395392
   0.30294490  0.03462005  0.73598909
   0.15294480  0.08462015  0.88802421
