  48  48   0   0
  0.1886564E+02  0.5657800E-09  0.1265123E-08  0.1414450E-08  0.5000000E-15
  1.000000000000000E-004
  CAR 
 Si and Ge interface calculation         
      8.98042312    -13.02286295  301      5.42952163      1.00000000
    -13.023  0.0000E+00  0.0000E+00  0.0000E+00  0.0000E+00
    -12.950  0.0000E+00  0.0000E+00  0.0000E+00  0.0000E+00
    -12.876  0.0000E+00  0.0000E+00  0.0000E+00  0.0000E+00
    -12.803  0.0000E+00  0.0000E+00  0.0000E+00  0.0000E+00
    -12.729  0.0000E+00  0.0000E+00  0.0000E+00  0.0000E+00
    -12.656  0.0000E+00  0.0000E+00  0.0000E+00  0.0000E+00
    -12.583  0.0000E+00  0.0000E+00  0.0000E+00  0.0000E+00
    -12.509  0.0000E+00  0.0000E+00  0.0000E+00  0.0000E+00
    -12.436  0.0000E+00  0.0000E+00  0.0000E+00  0.0000E+00
    -12.363  0.0000E+00  0.0000E+00  0.0000E+00  0.0000E+00
    -12.289  0.0000E+00  0.0000E+00  0.0000E+00  0.0000E+00
    -12.216  0.0000E+00  0.0000E+00  0.0000E+00  0.0000E+00
    -12.143  0.0000E+00  0.0000E+00  0.0000E+00  0.0000E+00
    -12.069  0.1550E-10  0.0000E+00  0.1137E-11  0.0000E+00
    -11.996  0.2828E+01  0.6704E+00  0.2074E+00  0.4917E-01
    -11.923  0.1151E+02  0.7966E+01  0.1053E+01  0.6334E+00
    -11.849  0.1275E+02  0.1551E+02  0.1998E+01  0.1795E+01
    -11.776  0.1172E+02  0.7835E+01  0.2860E+01  0.2388E+01
    -11.703  0.1029E+02  0.6546E+01  0.3643E+01  0.2903E+01
    -11.629  0.2649E+02  0.3089E+02  0.5595E+01  0.5168E+01
    -11.556  0.5407E+01  0.1128E+02  0.6000E+01  0.6000E+01
    -11.483  0.9349E+00  0.5245E-04  0.6069E+01  0.6000E+01
    -11.409  0.1727E+02  0.1818E+02  0.7335E+01  0.7333E+01
    -11.336  0.1014E+02  0.6130E+01  0.8079E+01  0.7783E+01
    -11.263  0.3487E+01  0.5992E+01  0.8341E+01  0.8222E+01
    -11.189  0.1360E+02  0.6640E+01  0.9338E+01  0.8709E+01
    -11.116  0.2580E+01  0.1154E+02  0.9556E+01  0.9556E+01
    -11.043  0.6059E+01  0.5693E+01  0.1000E+02  0.9973E+01
    -10.969  0.6059E+01  0.4679E+01  0.1044E+02  0.1032E+02
    -10.896  0.9524E-06  0.1484E+01  0.1044E+02  0.1044E+02
    -10.823  0.1213E+02  0.1087E+02  0.1133E+02  0.1124E+02
    -10.749  0.6122E+01  0.6757E+01  0.1178E+02  0.1178E+02
    -10.676  0.5987E+01  0.6059E+01  0.1222E+02  0.1222E+02
    -10.603  0.2823E-09  0.0000E+00  0.1222E+02  0.1222E+02
    -10.529  0.1037E+02  0.2413E+01  0.1298E+02  0.1240E+02
    -10.456  0.1442E+01  0.9707E+01  0.1311E+02  0.1311E+02
    -10.382  0.6060E+01  0.5761E+01  0.1356E+02  0.1353E+02
    -10.309  0.8188E-04  0.7167E-12  0.1356E+02  0.1356E+02
    -10.236  0.1212E+02  0.1145E+02  0.1444E+02  0.1440E+02
    -10.162  0.0000E+00  0.4766E+00  0.1444E+02  0.1444E+02
    -10.089  0.9797E+00  0.2603E-03  0.1452E+02  0.1444E+02
    -10.016  0.5801E+01  0.6060E+01  0.1494E+02  0.1489E+02
     -9.942  0.5339E+01  0.6060E+01  0.1533E+02  0.1533E+02
     -9.869  0.1158E+02  0.1686E+01  0.1618E+02  0.1546E+02
     -9.796  0.0000E+00  0.1043E+02  0.1622E+02  0.1622E+02
     -9.722  0.0000E+00  0.0000E+00  0.1622E+02  0.1622E+02
     -9.649  0.9177E-01  0.5294E-06  0.1623E+02  0.1622E+02
     -9.576  0.1203E+02  0.1210E+02  0.1711E+02  0.1711E+02
     -9.502  0.0000E+00  0.0000E+00  0.1711E+02  0.1711E+02
     -9.429  0.6246E+00  0.5721E-04  0.1716E+02  0.1711E+02
     -9.356  0.5574E+01  0.6060E+01  0.1757E+02  0.1756E+02
     -9.282  0.5921E+01  0.6060E+01  0.1800E+02  0.1800E+02
     -9.209  0.6060E+01  0.6054E+01  0.1844E+02  0.1844E+02
     -9.136  0.2153E-03  0.8429E-11  0.1844E+02  0.1844E+02
     -9.062  0.6059E+01  0.6057E+01  0.1889E+02  0.1889E+02
     -8.989  0.6644E-07  0.0000E+00  0.1889E+02  0.1889E+02
     -8.916  0.6060E+01  0.5824E+01  0.1933E+02  0.1932E+02
     -8.842  0.6048E+01  0.4286E+01  0.1978E+02  0.1965E+02
     -8.769  0.6003E+01  0.4581E+01  0.2022E+02  0.1999E+02
     -8.696  0.0000E+00  0.3224E+01  0.2022E+02  0.2022E+02
     -8.622  0.4259E-04  0.6439E-11  0.2022E+02  0.2022E+02
     -8.549  0.8811E+01  0.2948E+01  0.2087E+02  0.2044E+02
     -8.476  0.3299E+01  0.9171E+01  0.2111E+02  0.2111E+02
     -8.402  0.0000E+00  0.0000E+00  0.2111E+02  0.2111E+02
     -8.329  0.3431E-11  0.0000E+00  0.2111E+02  0.2111E+02
     -8.255  0.1131E+02  0.3467E+01  0.2194E+02  0.2137E+02
     -8.182  0.3244E+01  0.1017E+02  0.2219E+02  0.2211E+02
     -8.109  0.4887E+01  0.4337E+01  0.2255E+02  0.2243E+02
     -8.035  0.4398E+01  0.4862E+01  0.2288E+02  0.2279E+02
     -7.962  0.1515E+01  0.2917E+01  0.2300E+02  0.2300E+02
     -7.889  0.3030E+01  0.3017E+01  0.2322E+02  0.2322E+02
     -7.815  0.3025E+01  0.2358E+01  0.2344E+02  0.2340E+02
     -7.742  0.7754E+01  0.7630E+01  0.2401E+02  0.2395E+02
     -7.669  0.8532E+01  0.8903E+01  0.2464E+02  0.2461E+02
     -7.595  0.5483E+01  0.3163E+01  0.2504E+02  0.2484E+02
     -7.522  0.3336E+01  0.5923E+01  0.2529E+02  0.2528E+02
     -7.449  0.8409E+01  0.4838E+01  0.2590E+02  0.2563E+02
     -7.375  0.1440E+02  0.1770E+02  0.2696E+02  0.2693E+02
     -7.302  0.5851E+01  0.6059E+01  0.2739E+02  0.2739E+02
     -7.229  0.6506E+01  0.3373E+01  0.2787E+02  0.2764E+02
     -7.155  0.1011E+02  0.1300E+02  0.2862E+02  0.2859E+02
     -7.082  0.4227E+01  0.2020E+01  0.2893E+02  0.2876E+02
     -7.009  0.5198E+01  0.7141E+01  0.2933E+02  0.2928E+02
     -6.935  0.2881E+01  0.2510E+01  0.2954E+02  0.2947E+02
     -6.862  0.1515E+01  0.2589E+01  0.2967E+02  0.2966E+02
     -6.789  0.9583E+01  0.4927E+01  0.3037E+02  0.3003E+02
     -6.715  0.6906E+01  0.1171E+02  0.3089E+02  0.3089E+02
     -6.642  0.3015E+01  0.2046E+01  0.3111E+02  0.3104E+02
     -6.569  0.1579E+01  0.1039E+01  0.3123E+02  0.3112E+02
     -6.495  0.2982E+01  0.4356E+01  0.3145E+02  0.3143E+02
     -6.422  0.3156E+01  0.3027E+01  0.3168E+02  0.3167E+02
     -6.349  0.2897E+01  0.3030E+01  0.3189E+02  0.3189E+02
     -6.275  0.1505E+01  0.1515E+01  0.3200E+02  0.3200E+02
     -6.202  0.0000E+00  0.0000E+00  0.3200E+02  0.3200E+02
     -6.128  0.2215E-05  0.8116E-11  0.3200E+02  0.3200E+02
     -6.055  0.7575E+00  0.7574E+00  0.3206E+02  0.3206E+02
     -5.982  0.3048E+01  0.2991E+01  0.3228E+02  0.3227E+02
     -5.908  0.2596E+01  0.1603E+01  0.3247E+02  0.3240E+02
     -5.835  0.4156E+00  0.1427E+01  0.3250E+02  0.3250E+02
     -5.762  0.3664E+01  0.1607E+01  0.3277E+02  0.3262E+02
     -5.688  0.4165E+01  0.5969E+01  0.3307E+02  0.3306E+02
     -5.615  0.1301E+02  0.7866E+01  0.3403E+02  0.3363E+02
     -5.542  0.7175E+01  0.1024E+02  0.3456E+02  0.3440E+02
     -5.468  0.1225E+02  0.1204E+02  0.3546E+02  0.3528E+02
     -5.395  0.2362E+02  0.2338E+02  0.3719E+02  0.3699E+02
     -5.322  0.2300E+02  0.1902E+02  0.3889E+02  0.3844E+02
     -5.248  0.2826E+02  0.2824E+02  0.4099E+02  0.4055E+02
     -5.175  0.3036E+01  0.7885E+01  0.4125E+02  0.4117E+02
     -5.102  0.1250E+02  0.1205E+02  0.4216E+02  0.4205E+02
     -5.028  0.6045E+01  0.6786E+01  0.4261E+02  0.4258E+02
     -4.955  0.1317E+02  0.1049E+02  0.4358E+02  0.4335E+02
     -4.882  0.1060E+02  0.1065E+02  0.4437E+02  0.4413E+02
     -4.808  0.7471E+01  0.8829E+01  0.4494E+02  0.4478E+02
     -4.735  0.6179E-03  0.2234E+01  0.4494E+02  0.4494E+02
     -4.662  0.6059E+01  0.6046E+01  0.4539E+02  0.4539E+02
     -4.588  0.8935E+01  0.3577E+01  0.4604E+02  0.4565E+02
     -4.515  0.1233E+02  0.1600E+02  0.4696E+02  0.4683E+02
     -4.442  0.1519E+02  0.1322E+02  0.4808E+02  0.4780E+02
     -4.368  0.9728E+01  0.1223E+02  0.4880E+02  0.4870E+02
     -4.295  0.1455E+02  0.9411E+01  0.4987E+02  0.4942E+02
     -4.222  0.7553E+01  0.1036E+02  0.5043E+02  0.5018E+02
     -4.148  0.1977E+02  0.1126E+02  0.5188E+02  0.5101E+02
     -4.075  0.2186E+02  0.2759E+02  0.5355E+02  0.5307E+02
     -4.002  0.3448E+02  0.3452E+02  0.5609E+02  0.5563E+02
     -3.928  0.1922E+02  0.2044E+02  0.5750E+02  0.5714E+02
     -3.855  0.1857E+02  0.2353E+02  0.5889E+02  0.5888E+02
     -3.781  0.3326E+02  0.2144E+02  0.6133E+02  0.6046E+02
     -3.708  0.5873E+01  0.1691E+02  0.6178E+02  0.6174E+02
     -3.635  0.1664E+01  0.1976E+01  0.6190E+02  0.6189E+02
     -3.561  0.7502E+01  0.3875E+01  0.6245E+02  0.6217E+02
     -3.488  0.8961E+01  0.1180E+02  0.6312E+02  0.6304E+02
     -3.415  0.6090E+01  0.5820E+01  0.6356E+02  0.6347E+02
     -3.341  0.5252E+01  0.5551E+01  0.6395E+02  0.6388E+02
     -3.268  0.8102E+01  0.6291E+01  0.6454E+02  0.6435E+02
     -3.195  0.1007E+02  0.1168E+02  0.6529E+02  0.6521E+02
     -3.121  0.6545E+01  0.5046E+01  0.6577E+02  0.6559E+02
     -3.048  0.1209E+02  0.1267E+02  0.6666E+02  0.6653E+02
     -2.975  0.1387E+02  0.9331E+01  0.6768E+02  0.6724E+02
     -2.901  0.8026E+01  0.1067E+02  0.6827E+02  0.6806E+02
     -2.828  0.2666E+01  0.4325E+01  0.6847E+02  0.6837E+02
     -2.755  0.8093E+01  0.9070E+01  0.6907E+02  0.6905E+02
     -2.681  0.9086E+01  0.8706E+01  0.6973E+02  0.6969E+02
     -2.608  0.1348E+02  0.1300E+02  0.7072E+02  0.7068E+02
     -2.535  0.1191E+01  0.7035E+00  0.7081E+02  0.7073E+02
     -2.461  0.3362E+00  0.1450E+01  0.7083E+02  0.7083E+02
     -2.388  0.8275E+01  0.6103E+01  0.7144E+02  0.7128E+02
     -2.315  0.9454E+01  0.1033E+02  0.7213E+02  0.7204E+02
     -2.241  0.2034E+02  0.1592E+02  0.7363E+02  0.7322E+02
     -2.168  0.1115E+02  0.1545E+02  0.7448E+02  0.7438E+02
     -2.095  0.1827E+02  0.1382E+02  0.7581E+02  0.7540E+02
     -2.021  0.1704E+02  0.1457E+02  0.7707E+02  0.7648E+02
     -1.948  0.1312E+02  0.2008E+02  0.7806E+02  0.7797E+02
     -1.875  0.1278E+02  0.1026E+02  0.7899E+02  0.7877E+02
     -1.801  0.1248E+02  0.8962E+01  0.7991E+02  0.7945E+02
     -1.728  0.1013E+02  0.1425E+02  0.8065E+02  0.8050E+02
     -1.654  0.1582E+02  0.1640E+02  0.8181E+02  0.8170E+02
     -1.581  0.9381E+01  0.1005E+02  0.8250E+02  0.8246E+02
     -1.508  0.9099E+01  0.8120E+01  0.8317E+02  0.8307E+02
     -1.434  0.2697E+02  0.1728E+02  0.8515E+02  0.8433E+02
     -1.361  0.1426E+02  0.2290E+02  0.8630E+02  0.8602E+02
     -1.288  0.1811E+02  0.1267E+02  0.8765E+02  0.8695E+02
     -1.214  0.5962E+01  0.1190E+02  0.8813E+02  0.8783E+02
     -1.141  0.1054E+02  0.1222E+02  0.8890E+02  0.8873E+02
     -1.068  0.1268E+02  0.1417E+02  0.8983E+02  0.8977E+02
     -0.994  0.1381E+02  0.4394E+01  0.9085E+02  0.9009E+02
     -0.921  0.1594E+02  0.1994E+02  0.9203E+02  0.9155E+02
     -0.848  0.9330E+01  0.1421E+02  0.9272E+02  0.9265E+02
     -0.774  0.7197E+01  0.5706E+01  0.9325E+02  0.9308E+02
     -0.701  0.5671E+01  0.7592E+01  0.9367E+02  0.9363E+02
     -0.628  0.1628E+02  0.9769E+01  0.9487E+02  0.9435E+02
     -0.554  0.1516E+02  0.1869E+02  0.9600E+02  0.9573E+02
     -0.481  0.4538E+01  0.7280E+01  0.9633E+02  0.9629E+02
     -0.408  0.1434E+02  0.4808E+01  0.9738E+02  0.9665E+02
     -0.334  0.1628E+02  0.2270E+02  0.9861E+02  0.9833E+02
     -0.261  0.1457E+02  0.1195E+02  0.9968E+02  0.9922E+02
     -0.188  0.8640E+01  0.1261E+02  0.1004E+03  0.1002E+03
     -0.114  0.8580E+01  0.5852E+01  0.1010E+03  0.1006E+03
     -0.041  0.1559E+02  0.1811E+02  0.1022E+03  0.1019E+03
      0.032  0.6802E+01  0.9885E+01  0.1027E+03  0.1027E+03
      0.106  0.4301E+01  0.1782E+01  0.1030E+03  0.1028E+03
      0.179  0.4439E+01  0.5695E+01  0.1033E+03  0.1032E+03
      0.252  0.1531E+02  0.1280E+02  0.1045E+03  0.1042E+03
      0.326  0.1518E+02  0.1279E+02  0.1056E+03  0.1051E+03
      0.399  0.1193E+02  0.1391E+02  0.1065E+03  0.1062E+03
      0.472  0.9556E+01  0.6731E+01  0.1072E+03  0.1067E+03
      0.546  0.1159E+02  0.1697E+02  0.1080E+03  0.1080E+03
      0.619  0.1833E+02  0.1261E+02  0.1094E+03  0.1089E+03
      0.693  0.1086E+02  0.1289E+02  0.1102E+03  0.1098E+03
      0.766  0.1295E+02  0.1744E+02  0.1111E+03  0.1111E+03
      0.839  0.9426E+01  0.7501E+01  0.1118E+03  0.1117E+03
      0.913  0.1713E+02  0.1456E+02  0.1131E+03  0.1127E+03
      0.986  0.6633E+01  0.8145E+01  0.1136E+03  0.1133E+03
      1.059  0.1423E+02  0.1685E+02  0.1147E+03  0.1146E+03
      1.133  0.2117E+02  0.1776E+02  0.1162E+03  0.1159E+03
      1.206  0.1128E+02  0.1379E+02  0.1171E+03  0.1169E+03
      1.279  0.2193E+02  0.1475E+02  0.1187E+03  0.1180E+03
      1.353  0.1933E+02  0.2483E+02  0.1201E+03  0.1198E+03
      1.426  0.3492E+02  0.3454E+02  0.1227E+03  0.1224E+03
      1.499  0.2154E+02  0.1730E+02  0.1243E+03  0.1237E+03
      1.573  0.1332E+02  0.1948E+02  0.1253E+03  0.1252E+03
      1.646  0.1290E+02  0.1095E+02  0.1262E+03  0.1260E+03
      1.719  0.1476E+02  0.1290E+02  0.1273E+03  0.1269E+03
      1.793  0.3607E+02  0.3361E+02  0.1300E+03  0.1294E+03
      1.866  0.1631E+02  0.2321E+02  0.1312E+03  0.1311E+03
      1.939  0.2608E+02  0.1920E+02  0.1331E+03  0.1325E+03
      2.013  0.1883E+02  0.2653E+02  0.1345E+03  0.1345E+03
      2.086  0.3028E+02  0.2480E+02  0.1368E+03  0.1363E+03
      2.159  0.1541E+02  0.1429E+02  0.1379E+03  0.1374E+03
      2.233  0.2897E+02  0.2625E+02  0.1400E+03  0.1393E+03
      2.306  0.2110E+02  0.2410E+02  0.1416E+03  0.1412E+03
      2.379  0.2270E+02  0.2015E+02  0.1433E+03  0.1427E+03
      2.453  0.1119E+02  0.1714E+02  0.1441E+03  0.1439E+03
      2.526  0.9616E+01  0.1040E+02  0.1448E+03  0.1447E+03
      2.599  0.1474E+02  0.1401E+02  0.1459E+03  0.1457E+03
      2.673  0.1971E+02  0.1648E+02  0.1474E+03  0.1469E+03
      2.746  0.1729E+02  0.2150E+02  0.1486E+03  0.1485E+03
      2.820  0.2178E+02  0.1775E+02  0.1502E+03  0.1498E+03
      2.893  0.3129E+02  0.3251E+02  0.1525E+03  0.1522E+03
      2.966  0.1510E+02  0.1699E+02  0.1536E+03  0.1535E+03
      3.040  0.1875E+02  0.1451E+02  0.1550E+03  0.1546E+03
      3.113  0.1497E+02  0.1590E+02  0.1562E+03  0.1557E+03
      3.186  0.1072E+02  0.1163E+02  0.1569E+03  0.1566E+03
      3.260  0.2604E+02  0.1849E+02  0.1589E+03  0.1580E+03
      3.333  0.1209E+02  0.2266E+02  0.1598E+03  0.1597E+03
      3.406  0.1914E+02  0.1535E+02  0.1612E+03  0.1608E+03
      3.480  0.1885E+02  0.2186E+02  0.1626E+03  0.1624E+03
      3.553  0.2448E+02  0.1807E+02  0.1644E+03  0.1637E+03
      3.626  0.1594E+01  0.1057E+02  0.1645E+03  0.1645E+03
      3.700  0.3385E+02  0.2242E+02  0.1670E+03  0.1661E+03
      3.773  0.7301E+01  0.1673E+02  0.1676E+03  0.1674E+03
      3.846  0.2359E+02  0.1778E+02  0.1693E+03  0.1687E+03
      3.920  0.1056E+02  0.1305E+02  0.1701E+03  0.1697E+03
      3.993  0.1362E+02  0.1795E+02  0.1711E+03  0.1710E+03
      4.066  0.1605E+02  0.1263E+02  0.1723E+03  0.1719E+03
      4.140  0.9913E+01  0.1307E+02  0.1731E+03  0.1729E+03
      4.213  0.1643E+02  0.1522E+02  0.1743E+03  0.1740E+03
      4.286  0.9693E+01  0.9189E+01  0.1750E+03  0.1747E+03
      4.360  0.2240E+02  0.2150E+02  0.1766E+03  0.1763E+03
      4.433  0.1700E+02  0.1487E+02  0.1779E+03  0.1774E+03
      4.506  0.1177E+02  0.1361E+02  0.1788E+03  0.1784E+03
      4.580  0.1584E+02  0.1575E+02  0.1799E+03  0.1796E+03
      4.653  0.1300E+02  0.1626E+02  0.1809E+03  0.1808E+03
      4.726  0.2429E+02  0.1593E+02  0.1827E+03  0.1819E+03
      4.800  0.1845E+02  0.2037E+02  0.1840E+03  0.1835E+03
      4.873  0.1129E+02  0.1113E+02  0.1849E+03  0.1843E+03
      4.946  0.1143E+02  0.1474E+02  0.1857E+03  0.1854E+03
      5.020  0.1484E+02  0.1057E+02  0.1868E+03  0.1862E+03
      5.093  0.1362E+02  0.1679E+02  0.1878E+03  0.1874E+03
      5.167  0.4659E+01  0.8276E+01  0.1882E+03  0.1880E+03
      5.240  0.1346E+02  0.1173E+02  0.1892E+03  0.1889E+03
      5.313  0.9049E+01  0.1006E+02  0.1898E+03  0.1896E+03
      5.387  0.1404E+02  0.1098E+02  0.1909E+03  0.1904E+03
      5.460  0.3664E+01  0.8775E+01  0.1912E+03  0.1911E+03
      5.533  0.1194E+02  0.7719E+01  0.1920E+03  0.1916E+03
      5.607  0.1321E+02  0.1291E+02  0.1930E+03  0.1926E+03
      5.680  0.1158E+02  0.1239E+02  0.1939E+03  0.1935E+03
      5.753  0.7852E+01  0.9874E+01  0.1944E+03  0.1942E+03
      5.827  0.1410E+02  0.1093E+02  0.1955E+03  0.1950E+03
      5.900  0.3187E+01  0.9393E+01  0.1957E+03  0.1957E+03
      5.973  0.1240E+02  0.6908E+01  0.1967E+03  0.1962E+03
      6.047  0.1252E+02  0.1290E+02  0.1976E+03  0.1972E+03
      6.120  0.1657E+02  0.1809E+02  0.1988E+03  0.1985E+03
      6.193  0.1625E+02  0.1521E+02  0.2000E+03  0.1997E+03
      6.267  0.1323E+02  0.1364E+02  0.2010E+03  0.2007E+03
      6.340  0.9025E+01  0.1186E+02  0.2017E+03  0.2015E+03
      6.413  0.1098E+02  0.8144E+01  0.2025E+03  0.2021E+03
      6.487  0.1126E+02  0.1292E+02  0.2033E+03  0.2031E+03
      6.560  0.2113E+02  0.1635E+02  0.2049E+03  0.2043E+03
      6.633  0.1208E+02  0.1154E+02  0.2058E+03  0.2051E+03
      6.707  0.1883E+02  0.2268E+02  0.2072E+03  0.2068E+03
      6.780  0.2049E+02  0.2266E+02  0.2087E+03  0.2085E+03
      6.853  0.2367E+02  0.2099E+02  0.2104E+03  0.2100E+03
      6.927  0.1996E+02  0.1897E+02  0.2119E+03  0.2115E+03
      7.000  0.2406E+02  0.2072E+02  0.2137E+03  0.2131E+03
      7.073  0.3748E+02  0.3034E+02  0.2164E+03  0.2153E+03
      7.147  0.2056E+02  0.3129E+02  0.2180E+03  0.2176E+03
      7.220  0.2874E+02  0.2528E+02  0.2201E+03  0.2194E+03
      7.294  0.2751E+02  0.2714E+02  0.2221E+03  0.2214E+03
      7.367  0.2186E+02  0.2621E+02  0.2238E+03  0.2234E+03
      7.440  0.1798E+02  0.1841E+02  0.2251E+03  0.2247E+03
      7.514  0.2082E+02  0.2087E+02  0.2266E+03  0.2263E+03
      7.587  0.2247E+02  0.2385E+02  0.2283E+03  0.2281E+03
      7.660  0.2025E+02  0.1840E+02  0.2298E+03  0.2294E+03
      7.734  0.1541E+02  0.1332E+02  0.2309E+03  0.2305E+03
      7.807  0.8173E+01  0.1062E+02  0.2315E+03  0.2313E+03
      7.880  0.2975E+01  0.5068E+01  0.2318E+03  0.2316E+03
      7.954  0.8570E+00  0.2083E+01  0.2318E+03  0.2318E+03
      8.027  0.2173E+01  0.3029E+01  0.2320E+03  0.2320E+03
      8.100  0.0000E+00  0.0000E+00  0.2320E+03  0.2320E+03
      8.174  0.0000E+00  0.0000E+00  0.2320E+03  0.2320E+03
      8.247  0.0000E+00  0.0000E+00  0.2320E+03  0.2320E+03
      8.320  0.0000E+00  0.0000E+00  0.2320E+03  0.2320E+03
      8.394  0.0000E+00  0.0000E+00  0.2320E+03  0.2320E+03
      8.467  0.0000E+00  0.0000E+00  0.2320E+03  0.2320E+03
      8.540  0.0000E+00  0.0000E+00  0.2320E+03  0.2320E+03
      8.614  0.0000E+00  0.0000E+00  0.2320E+03  0.2320E+03
      8.687  0.0000E+00  0.0000E+00  0.2320E+03  0.2320E+03
      8.760  0.0000E+00  0.0000E+00  0.2320E+03  0.2320E+03
      8.834  0.0000E+00  0.0000E+00  0.2320E+03  0.2320E+03
      8.907  0.0000E+00  0.0000E+00  0.2320E+03  0.2320E+03
      8.980  0.0000E+00  0.0000E+00  0.2320E+03  0.2320E+03
