Si and Ge interface calculation         
           1
     5.657800    0.000000    0.000000
    -5.657800   11.315600    0.000000
     0.000000    0.000000   14.144501
   Ge
    48
Direct configuration=     1
   0.01708345  0.00000000  0.00000000
   0.51708341  0.00000000  0.19999997
   0.01708341  0.00000000  0.40000001
   0.76708341  0.75000000  0.19999997
   0.01708341  0.49999997  0.19999997
   0.64208341  0.37500000  0.50000006
   0.89208341  0.12499999  0.09999999
   0.39208341  0.12499999  0.29999998
   0.89208341  0.12499999  0.50000006
   0.26708347  0.75000000  0.00000000
   0.89208335  0.62499994  0.29999998
   0.64208329  0.87499994  0.29999998
   0.14208341  0.87499994  0.09999999
   0.26708341  0.24999999  0.19999997
   0.14208341  0.87499994  0.50000006
   0.39208341  0.62499994  0.09999999
   0.51708341  0.49999997  0.00000000
   0.26708341  0.75000000  0.40000001
   0.64208347  0.37500000  0.09999999
   0.14208341  0.37500000  0.29999998
   0.51708329  0.49999997  0.40000001
   0.76708341  0.24999999  0.00000000
   0.39208341  0.62499994  0.50000006
   0.76708341  0.24999999  0.40000001
   0.51708341  0.49999997  0.50000006
   0.01708341  0.49999997  0.69999999
   0.51708329  0.49999997  0.89999998
   0.01708345  0.00000000  0.50000006
   0.51708341  0.00000000  0.69999999
   0.01708341  0.00000000  0.89999998
   0.14208341  0.87499994  0.60000002
   0.64208329  0.87499994  0.80000001
   0.14208341  0.87499994  0.00000000
   0.64208347  0.37500000  0.60000002
   0.14208341  0.37500000  0.80000001
   0.64208341  0.37500000  0.00000000
   0.26708347  0.75000000  0.50000006
   0.76708341  0.75000000  0.69999999
   0.26708341  0.75000000  0.89999998
   0.76708341  0.24999999  0.50000006
   0.26708341  0.24999999  0.69999999
   0.76708341  0.24999999  0.89999998
   0.39208341  0.62499994  0.60000002
   0.89208335  0.62499994  0.80000001
   0.39208341  0.62499994  0.00000000
   0.89208341  0.12499999  0.60000002
   0.39208341  0.12499999  0.80000001
   0.89208341  0.12499999  0.00000000
