 144 144   0   0
  0.2265481E+02  0.1123962E-08  0.1589523E-08  0.1826015E-08  0.5000000E-15
  1.000000000000000E-004
  CAR 
 Si and Ge interface calculation         
      8.92627037     -9.98658469  301      6.29160078      1.00000000
     -9.987  0.0000E+00  0.0000E+00  0.0000E+00  0.0000E+00
     -9.924  0.0000E+00  0.0000E+00  0.0000E+00  0.0000E+00
     -9.860  0.0000E+00  0.0000E+00  0.0000E+00  0.0000E+00
     -9.797  0.0000E+00  0.0000E+00  0.0000E+00  0.0000E+00
     -9.734  0.0000E+00  0.0000E+00  0.0000E+00  0.0000E+00
     -9.671  0.0000E+00  0.0000E+00  0.0000E+00  0.0000E+00
     -9.608  0.0000E+00  0.0000E+00  0.0000E+00  0.0000E+00
     -9.545  0.0000E+00  0.0000E+00  0.0000E+00  0.0000E+00
     -9.482  0.0000E+00  0.0000E+00  0.0000E+00  0.0000E+00
     -9.419  0.0000E+00  0.0000E+00  0.0000E+00  0.0000E+00
     -9.356  0.0000E+00  0.0000E+00  0.0000E+00  0.0000E+00
     -9.293  0.0000E+00  0.0000E+00  0.0000E+00  0.0000E+00
     -9.230  0.0000E+00  0.0000E+00  0.0000E+00  0.0000E+00
     -9.167  0.3706E-07  0.4138E-09  0.2336E-08  0.2608E-10
     -9.104  0.3043E+02  0.2729E+02  0.1918E+01  0.1721E+01
     -9.041  0.1291E+01  0.4400E+01  0.2000E+01  0.2000E+01
     -8.978  0.1133E+02  0.8742E+01  0.2714E+01  0.2551E+01
     -8.915  0.5211E+02  0.5467E+02  0.6000E+01  0.5998E+01
     -8.852  0.2305E+02  0.1403E+02  0.7453E+01  0.6884E+01
     -8.789  0.8669E+01  0.1770E+02  0.8000E+01  0.8000E+01
     -8.726  0.1957E+02  0.1549E+02  0.9234E+01  0.8977E+01
     -8.663  0.1215E+02  0.1623E+02  0.1000E+02  0.1000E+02
     -8.600  0.0000E+00  0.0000E+00  0.1000E+02  0.1000E+02
     -8.537  0.5931E+01  0.1423E+01  0.1037E+02  0.1009E+02
     -8.474  0.5587E+02  0.5814E+02  0.1390E+02  0.1376E+02
     -8.411  0.1640E+01  0.3885E+01  0.1400E+02  0.1400E+02
     -8.347  0.0000E+00  0.0000E+00  0.1400E+02  0.1400E+02
     -8.284  0.4740E+00  0.2118E-01  0.1403E+02  0.1400E+02
     -8.221  0.3125E+02  0.3167E+02  0.1600E+02  0.1600E+02
     -8.158  0.0000E+00  0.0000E+00  0.1600E+02  0.1600E+02
     -8.095  0.1283E+01  0.1258E+00  0.1608E+02  0.1601E+02
     -8.032  0.3044E+02  0.3159E+02  0.1800E+02  0.1800E+02
     -7.969  0.0000E+00  0.0000E+00  0.1800E+02  0.1800E+02
     -7.906  0.2056E-03  0.3260E-05  0.1800E+02  0.1800E+02
     -7.843  0.3172E+02  0.3169E+02  0.2000E+02  0.2000E+02
     -7.780  0.1479E+02  0.1139E+02  0.2093E+02  0.2072E+02
     -7.717  0.1692E+02  0.2033E+02  0.2200E+02  0.2200E+02
     -7.654  0.0000E+00  0.0000E+00  0.2200E+02  0.2200E+02
     -7.591  0.0000E+00  0.0000E+00  0.2200E+02  0.2200E+02
     -7.528  0.0000E+00  0.0000E+00  0.2200E+02  0.2200E+02
     -7.465  0.7886E-07  0.2224E-09  0.2200E+02  0.2200E+02
     -7.402  0.2632E+02  0.2254E+02  0.2366E+02  0.2342E+02
     -7.339  0.5374E+01  0.9185E+01  0.2400E+02  0.2400E+02
     -7.276  0.0000E+00  0.0000E+00  0.2400E+02  0.2400E+02
     -7.213  0.0000E+00  0.0000E+00  0.2400E+02  0.2400E+02
     -7.150  0.0000E+00  0.0000E+00  0.2400E+02  0.2400E+02
     -7.087  0.0000E+00  0.0000E+00  0.2400E+02  0.2400E+02
     -7.024  0.0000E+00  0.0000E+00  0.2400E+02  0.2400E+02
     -6.961  0.0000E+00  0.0000E+00  0.2400E+02  0.2400E+02
     -6.897  0.2220E-07  0.6388E-10  0.2400E+02  0.2400E+02
     -6.834  0.1056E+02  0.1035E+02  0.2467E+02  0.2465E+02
     -6.771  0.2038E+02  0.1745E+02  0.2595E+02  0.2575E+02
     -6.708  0.7739E+00  0.3924E+01  0.2600E+02  0.2600E+02
     -6.645  0.0000E+00  0.0000E+00  0.2600E+02  0.2600E+02
     -6.582  0.7076E+00  0.2701E-01  0.2604E+02  0.2600E+02
     -6.519  0.1000E+02  0.1055E+02  0.2668E+02  0.2667E+02
     -6.456  0.2101E+02  0.2115E+02  0.2800E+02  0.2800E+02
     -6.393  0.0000E+00  0.0000E+00  0.2800E+02  0.2800E+02
     -6.330  0.0000E+00  0.0000E+00  0.2800E+02  0.2800E+02
     -6.267  0.0000E+00  0.0000E+00  0.2800E+02  0.2800E+02
     -6.204  0.2552E+01  0.5245E+00  0.2816E+02  0.2803E+02
     -6.141  0.1860E+02  0.2061E+02  0.2933E+02  0.2933E+02
     -6.078  0.2333E+02  0.1893E+02  0.3080E+02  0.3053E+02
     -6.015  0.1907E+02  0.2113E+02  0.3201E+02  0.3186E+02
     -5.952  0.1322E+02  0.1389E+02  0.3284E+02  0.3273E+02
     -5.889  0.1346E+02  0.1386E+02  0.3369E+02  0.3361E+02
     -5.826  0.2080E+02  0.2206E+02  0.3500E+02  0.3500E+02
     -5.763  0.1548E+02  0.1367E+02  0.3598E+02  0.3586E+02
     -5.700  0.3845E+00  0.2167E+01  0.3600E+02  0.3600E+02
     -5.637  0.5253E+01  0.4945E+01  0.3633E+02  0.3631E+02
     -5.574  0.1034E+02  0.8928E+01  0.3699E+02  0.3687E+02
     -5.511  0.1211E+02  0.1280E+02  0.3775E+02  0.3768E+02
     -5.447  0.2214E+02  0.2028E+02  0.3915E+02  0.3896E+02
     -5.384  0.2022E+02  0.1855E+02  0.4042E+02  0.4013E+02
     -5.321  0.1344E+02  0.1632E+02  0.4127E+02  0.4116E+02
     -5.258  0.3208E+02  0.3074E+02  0.4329E+02  0.4310E+02
     -5.195  0.1629E+02  0.1803E+02  0.4432E+02  0.4423E+02
     -5.132  0.2928E+02  0.2664E+02  0.4616E+02  0.4591E+02
     -5.069  0.1850E+02  0.2220E+02  0.4733E+02  0.4731E+02
     -5.006  0.1582E+02  0.1575E+02  0.4833E+02  0.4831E+02
     -4.943  0.3180E+02  0.3187E+02  0.5034E+02  0.5032E+02
     -4.880  0.3034E+02  0.2457E+02  0.5225E+02  0.5187E+02
     -4.817  0.1673E+02  0.2076E+02  0.5330E+02  0.5317E+02
     -4.754  0.6013E+01  0.7389E+01  0.5368E+02  0.5364E+02
     -4.691  0.3044E+02  0.2980E+02  0.5560E+02  0.5552E+02
     -4.628  0.2546E+02  0.2579E+02  0.5721E+02  0.5714E+02
     -4.565  0.4031E+02  0.3741E+02  0.5975E+02  0.5950E+02
     -4.502  0.2795E+02  0.2816E+02  0.6151E+02  0.6128E+02
     -4.439  0.3043E+02  0.3158E+02  0.6343E+02  0.6327E+02
     -4.376  0.2782E+02  0.2497E+02  0.6518E+02  0.6485E+02
     -4.313  0.3797E+02  0.3867E+02  0.6758E+02  0.6728E+02
     -4.250  0.2719E+02  0.3007E+02  0.6929E+02  0.6918E+02
     -4.187  0.2911E+02  0.2593E+02  0.7113E+02  0.7081E+02
     -4.124  0.3017E+02  0.3341E+02  0.7303E+02  0.7292E+02
     -4.061  0.2765E+02  0.2671E+02  0.7477E+02  0.7461E+02
     -3.998  0.3892E+02  0.3796E+02  0.7723E+02  0.7700E+02
     -3.934  0.3338E+02  0.3144E+02  0.7933E+02  0.7898E+02
     -3.871  0.2578E+02  0.2968E+02  0.8096E+02  0.8085E+02
     -3.808  0.4559E+02  0.4447E+02  0.8383E+02  0.8366E+02
     -3.745  0.4351E+02  0.4044E+02  0.8658E+02  0.8621E+02
     -3.682  0.2434E+02  0.2712E+02  0.8811E+02  0.8792E+02
     -3.619  0.4151E+02  0.3875E+02  0.9073E+02  0.9036E+02
     -3.556  0.4037E+02  0.4164E+02  0.9327E+02  0.9299E+02
     -3.493  0.2937E+02  0.3249E+02  0.9513E+02  0.9504E+02
     -3.430  0.3792E+02  0.3510E+02  0.9752E+02  0.9725E+02
     -3.367  0.2423E+02  0.2357E+02  0.9905E+02  0.9874E+02
     -3.304  0.4493E+02  0.4652E+02  0.1019E+03  0.1017E+03
     -3.241  0.3262E+02  0.3346E+02  0.1039E+03  0.1038E+03
     -3.178  0.6609E+02  0.6380E+02  0.1081E+03  0.1078E+03
     -3.115  0.3697E+02  0.4071E+02  0.1104E+03  0.1104E+03
     -3.052  0.3977E+02  0.3361E+02  0.1129E+03  0.1125E+03
     -2.989  0.4519E+02  0.4886E+02  0.1158E+03  0.1156E+03
     -2.926  0.4389E+02  0.4388E+02  0.1186E+03  0.1183E+03
     -2.863  0.4189E+02  0.4076E+02  0.1212E+03  0.1209E+03
     -2.800  0.4844E+02  0.5049E+02  0.1243E+03  0.1241E+03
     -2.737  0.5611E+02  0.5623E+02  0.1278E+03  0.1276E+03
     -2.674  0.4027E+02  0.3962E+02  0.1303E+03  0.1301E+03
     -2.611  0.2613E+02  0.2515E+02  0.1320E+03  0.1317E+03
     -2.548  0.4079E+02  0.4223E+02  0.1346E+03  0.1344E+03
     -2.484  0.5626E+02  0.5537E+02  0.1381E+03  0.1379E+03
     -2.421  0.5168E+02  0.5214E+02  0.1414E+03  0.1412E+03
     -2.358  0.4168E+02  0.4220E+02  0.1440E+03  0.1438E+03
     -2.295  0.3922E+02  0.3683E+02  0.1465E+03  0.1461E+03
     -2.232  0.3019E+02  0.3380E+02  0.1484E+03  0.1483E+03
     -2.169  0.3853E+02  0.3694E+02  0.1508E+03  0.1506E+03
     -2.106  0.3102E+02  0.3188E+02  0.1528E+03  0.1526E+03
     -2.043  0.2362E+02  0.2073E+02  0.1542E+03  0.1539E+03
     -1.980  0.3595E+02  0.3499E+02  0.1565E+03  0.1561E+03
     -1.917  0.5462E+02  0.5366E+02  0.1600E+03  0.1595E+03
     -1.854  0.4508E+02  0.4814E+02  0.1628E+03  0.1626E+03
     -1.791  0.4185E+02  0.4182E+02  0.1654E+03  0.1652E+03
     -1.728  0.4087E+02  0.4163E+02  0.1680E+03  0.1678E+03
     -1.665  0.4204E+02  0.4225E+02  0.1707E+03  0.1705E+03
     -1.602  0.3463E+02  0.3407E+02  0.1729E+03  0.1726E+03
     -1.539  0.4516E+02  0.4238E+02  0.1757E+03  0.1753E+03
     -1.476  0.3783E+02  0.4143E+02  0.1781E+03  0.1779E+03
     -1.413  0.3600E+02  0.3215E+02  0.1804E+03  0.1799E+03
     -1.350  0.4909E+02  0.5205E+02  0.1835E+03  0.1832E+03
     -1.287  0.3759E+02  0.3675E+02  0.1858E+03  0.1855E+03
     -1.224  0.4057E+02  0.4173E+02  0.1884E+03  0.1882E+03
     -1.161  0.3635E+02  0.3566E+02  0.1907E+03  0.1904E+03
     -1.098  0.4396E+02  0.4300E+02  0.1934E+03  0.1931E+03
     -1.034  0.3623E+02  0.3603E+02  0.1957E+03  0.1954E+03
     -0.971  0.4396E+02  0.4542E+02  0.1985E+03  0.1983E+03
     -0.908  0.3307E+02  0.3081E+02  0.2006E+03  0.2002E+03
     -0.845  0.2894E+02  0.2986E+02  0.2024E+03  0.2021E+03
     -0.782  0.3507E+02  0.3858E+02  0.2046E+03  0.2045E+03
     -0.719  0.3256E+02  0.3246E+02  0.2067E+03  0.2066E+03
     -0.656  0.3642E+02  0.3534E+02  0.2090E+03  0.2088E+03
     -0.593  0.4019E+02  0.4041E+02  0.2115E+03  0.2113E+03
     -0.530  0.3603E+02  0.3392E+02  0.2138E+03  0.2135E+03
     -0.467  0.5024E+02  0.5046E+02  0.2169E+03  0.2167E+03
     -0.404  0.5059E+02  0.5143E+02  0.2201E+03  0.2199E+03
     -0.341  0.4613E+02  0.4570E+02  0.2230E+03  0.2228E+03
     -0.278  0.4841E+02  0.4387E+02  0.2261E+03  0.2256E+03
     -0.215  0.3836E+02  0.4525E+02  0.2285E+03  0.2284E+03
     -0.152  0.4927E+02  0.4186E+02  0.2316E+03  0.2311E+03
     -0.089  0.4597E+02  0.4933E+02  0.2345E+03  0.2342E+03
     -0.026  0.5412E+02  0.5510E+02  0.2379E+03  0.2376E+03
      0.037  0.4178E+02  0.4157E+02  0.2406E+03  0.2403E+03
      0.100  0.4405E+02  0.4597E+02  0.2434E+03  0.2432E+03
      0.163  0.3813E+02  0.3743E+02  0.2458E+03  0.2455E+03
      0.226  0.4706E+02  0.4468E+02  0.2487E+03  0.2483E+03
      0.289  0.5275E+02  0.5406E+02  0.2521E+03  0.2517E+03
      0.352  0.5084E+02  0.5249E+02  0.2553E+03  0.2551E+03
      0.415  0.1907E+02  0.1822E+02  0.2565E+03  0.2562E+03
      0.479  0.4936E+02  0.4958E+02  0.2596E+03  0.2593E+03
      0.542  0.5084E+02  0.4645E+02  0.2628E+03  0.2623E+03
      0.605  0.4041E+02  0.4658E+02  0.2653E+03  0.2652E+03
      0.668  0.4598E+02  0.4521E+02  0.2682E+03  0.2681E+03
      0.731  0.4512E+02  0.4280E+02  0.2711E+03  0.2708E+03
      0.794  0.4177E+02  0.4332E+02  0.2737E+03  0.2735E+03
      0.857  0.4541E+02  0.4500E+02  0.2766E+03  0.2763E+03
      0.920  0.4679E+02  0.4685E+02  0.2795E+03  0.2793E+03
      0.983  0.4671E+02  0.4607E+02  0.2825E+03  0.2822E+03
      1.046  0.5043E+02  0.4938E+02  0.2857E+03  0.2853E+03
      1.109  0.4368E+02  0.4560E+02  0.2884E+03  0.2882E+03
      1.172  0.5235E+02  0.5133E+02  0.2917E+03  0.2914E+03
      1.235  0.4910E+02  0.4811E+02  0.2948E+03  0.2945E+03
      1.298  0.6005E+02  0.5992E+02  0.2986E+03  0.2982E+03
      1.361  0.5012E+02  0.4924E+02  0.3018E+03  0.3013E+03
      1.424  0.3967E+02  0.4017E+02  0.3043E+03  0.3039E+03
      1.487  0.5213E+02  0.5147E+02  0.3075E+03  0.3071E+03
      1.550  0.5117E+02  0.5310E+02  0.3108E+03  0.3105E+03
      1.613  0.4517E+02  0.4708E+02  0.3136E+03  0.3134E+03
      1.676  0.5068E+02  0.4735E+02  0.3168E+03  0.3164E+03
      1.739  0.5964E+02  0.5968E+02  0.3206E+03  0.3202E+03
      1.802  0.3895E+02  0.3992E+02  0.3230E+03  0.3227E+03
      1.865  0.5312E+02  0.5566E+02  0.3264E+03  0.3262E+03
      1.929  0.4697E+02  0.4235E+02  0.3293E+03  0.3289E+03
      1.992  0.5247E+02  0.5192E+02  0.3327E+03  0.3322E+03
      2.055  0.5362E+02  0.5776E+02  0.3360E+03  0.3358E+03
      2.118  0.4882E+02  0.4769E+02  0.3391E+03  0.3388E+03
      2.181  0.4952E+02  0.5087E+02  0.3422E+03  0.3420E+03
      2.244  0.4035E+02  0.3910E+02  0.3448E+03  0.3445E+03
      2.307  0.4481E+02  0.4431E+02  0.3476E+03  0.3473E+03
      2.370  0.4052E+02  0.4062E+02  0.3502E+03  0.3498E+03
      2.433  0.5104E+02  0.5280E+02  0.3534E+03  0.3532E+03
      2.496  0.4617E+02  0.4597E+02  0.3563E+03  0.3561E+03
      2.559  0.4266E+02  0.4506E+02  0.3590E+03  0.3589E+03
      2.622  0.6005E+02  0.5484E+02  0.3628E+03  0.3624E+03
      2.685  0.3928E+02  0.4306E+02  0.3652E+03  0.3651E+03
      2.748  0.5456E+02  0.4813E+02  0.3687E+03  0.3681E+03
      2.811  0.5761E+02  0.6163E+02  0.3723E+03  0.3720E+03
      2.874  0.6423E+02  0.6389E+02  0.3764E+03  0.3760E+03
      2.937  0.6136E+02  0.5756E+02  0.3802E+03  0.3796E+03
      3.000  0.6133E+02  0.6318E+02  0.3841E+03  0.3836E+03
      3.063  0.6848E+02  0.6799E+02  0.3884E+03  0.3879E+03
      3.126  0.7445E+02  0.7378E+02  0.3931E+03  0.3926E+03
      3.189  0.6973E+02  0.7219E+02  0.3975E+03  0.3971E+03
      3.252  0.6324E+02  0.6344E+02  0.4015E+03  0.4011E+03
      3.315  0.6981E+02  0.6782E+02  0.4059E+03  0.4054E+03
      3.378  0.7052E+02  0.6957E+02  0.4103E+03  0.4098E+03
      3.442  0.6941E+02  0.7238E+02  0.4147E+03  0.4144E+03
      3.505  0.6820E+02  0.6872E+02  0.4190E+03  0.4187E+03
      3.568  0.6364E+02  0.6546E+02  0.4230E+03  0.4228E+03
      3.631  0.6318E+02  0.5743E+02  0.4270E+03  0.4264E+03
      3.694  0.7692E+02  0.7824E+02  0.4319E+03  0.4314E+03
      3.757  0.8938E+02  0.8995E+02  0.4375E+03  0.4370E+03
      3.820  0.8209E+02  0.8327E+02  0.4427E+03  0.4423E+03
      3.883  0.7550E+02  0.7535E+02  0.4474E+03  0.4470E+03
      3.946  0.7006E+02  0.6980E+02  0.4519E+03  0.4514E+03
      4.009  0.7008E+02  0.7166E+02  0.4563E+03  0.4560E+03
      4.072  0.5778E+02  0.5569E+02  0.4599E+03  0.4595E+03
      4.135  0.6765E+02  0.6874E+02  0.4642E+03  0.4638E+03
      4.198  0.5948E+02  0.6066E+02  0.4679E+03  0.4676E+03
      4.261  0.5022E+02  0.4771E+02  0.4711E+03  0.4706E+03
      4.324  0.7461E+02  0.7342E+02  0.4758E+03  0.4753E+03
      4.387  0.6451E+02  0.6721E+02  0.4799E+03  0.4795E+03
      4.450  0.5008E+02  0.5066E+02  0.4830E+03  0.4827E+03
      4.513  0.6591E+02  0.6528E+02  0.4872E+03  0.4868E+03
      4.576  0.5707E+02  0.5868E+02  0.4908E+03  0.4905E+03
      4.639  0.6936E+02  0.6590E+02  0.4952E+03  0.4947E+03
      4.702  0.5538E+02  0.5780E+02  0.4987E+03  0.4983E+03
      4.765  0.5464E+02  0.5338E+02  0.5021E+03  0.5017E+03
      4.828  0.4863E+02  0.5232E+02  0.5052E+03  0.5050E+03
      4.892  0.4775E+02  0.4568E+02  0.5082E+03  0.5079E+03
      4.955  0.4110E+02  0.4068E+02  0.5108E+03  0.5104E+03
      5.018  0.3606E+02  0.3308E+02  0.5131E+03  0.5125E+03
      5.081  0.4594E+02  0.5125E+02  0.5160E+03  0.5158E+03
      5.144  0.5527E+02  0.5073E+02  0.5194E+03  0.5190E+03
      5.207  0.5926E+02  0.5980E+02  0.5232E+03  0.5227E+03
      5.270  0.4680E+02  0.4653E+02  0.5261E+03  0.5257E+03
      5.333  0.6012E+02  0.6087E+02  0.5299E+03  0.5295E+03
      5.396  0.3972E+02  0.4407E+02  0.5324E+03  0.5323E+03
      5.459  0.5335E+02  0.4704E+02  0.5358E+03  0.5352E+03
      5.522  0.4916E+02  0.5224E+02  0.5389E+03  0.5385E+03
      5.585  0.4292E+02  0.4156E+02  0.5416E+03  0.5412E+03
      5.648  0.3262E+02  0.3314E+02  0.5437E+03  0.5432E+03
      5.711  0.3400E+02  0.3493E+02  0.5458E+03  0.5455E+03
      5.774  0.5181E+02  0.5016E+02  0.5491E+03  0.5486E+03
      5.837  0.4844E+02  0.4750E+02  0.5521E+03  0.5516E+03
      5.900  0.4661E+02  0.4568E+02  0.5551E+03  0.5545E+03
      5.963  0.4879E+02  0.5091E+02  0.5581E+03  0.5577E+03
      6.026  0.5521E+02  0.5515E+02  0.5616E+03  0.5612E+03
      6.089  0.4312E+02  0.4291E+02  0.5643E+03  0.5639E+03
      6.152  0.4998E+02  0.4669E+02  0.5675E+03  0.5668E+03
      6.215  0.5283E+02  0.5447E+02  0.5708E+03  0.5703E+03
      6.278  0.6482E+02  0.5952E+02  0.5749E+03  0.5740E+03
      6.342  0.4844E+02  0.5577E+02  0.5780E+03  0.5775E+03
      6.405  0.4726E+02  0.4589E+02  0.5809E+03  0.5804E+03
      6.468  0.6379E+02  0.6205E+02  0.5850E+03  0.5843E+03
      6.531  0.5773E+02  0.5792E+02  0.5886E+03  0.5880E+03
      6.594  0.6500E+02  0.6749E+02  0.5927E+03  0.5923E+03
      6.657  0.6221E+02  0.6504E+02  0.5966E+03  0.5964E+03
      6.720  0.5686E+02  0.4783E+02  0.6002E+03  0.5994E+03
      6.783  0.5630E+02  0.6353E+02  0.6038E+03  0.6034E+03
      6.846  0.6382E+02  0.6479E+02  0.6078E+03  0.6075E+03
      6.909  0.6567E+02  0.6172E+02  0.6119E+03  0.6114E+03
      6.972  0.6151E+02  0.6038E+02  0.6158E+03  0.6152E+03
      7.035  0.7322E+02  0.7023E+02  0.6204E+03  0.6196E+03
      7.098  0.6660E+02  0.7523E+02  0.6246E+03  0.6243E+03
      7.161  0.6433E+02  0.6134E+02  0.6287E+03  0.6282E+03
      7.224  0.6348E+02  0.5870E+02  0.6327E+03  0.6319E+03
      7.287  0.7922E+02  0.8063E+02  0.6377E+03  0.6370E+03
      7.350  0.5807E+02  0.6032E+02  0.6413E+03  0.6408E+03
      7.413  0.7984E+02  0.7681E+02  0.6464E+03  0.6456E+03
      7.476  0.7178E+02  0.7580E+02  0.6509E+03  0.6504E+03
      7.539  0.7910E+02  0.7839E+02  0.6559E+03  0.6554E+03
      7.602  0.8678E+02  0.8283E+02  0.6614E+03  0.6606E+03
      7.665  0.7402E+02  0.7618E+02  0.6660E+03  0.6654E+03
      7.728  0.7593E+02  0.7501E+02  0.6708E+03  0.6701E+03
      7.791  0.7920E+02  0.8081E+02  0.6758E+03  0.6752E+03
      7.855  0.8700E+02  0.8740E+02  0.6813E+03  0.6807E+03
      7.918  0.7439E+02  0.7146E+02  0.6860E+03  0.6852E+03
      7.981  0.7942E+02  0.8108E+02  0.6910E+03  0.6903E+03
      8.044  0.6844E+02  0.7355E+02  0.6953E+03  0.6950E+03
      8.107  0.1093E+02  0.1616E+02  0.6960E+03  0.6960E+03
      8.170  0.0000E+00  0.0000E+00  0.6960E+03  0.6960E+03
      8.233  0.0000E+00  0.0000E+00  0.6960E+03  0.6960E+03
      8.296  0.0000E+00  0.0000E+00  0.6960E+03  0.6960E+03
      8.359  0.0000E+00  0.0000E+00  0.6960E+03  0.6960E+03
      8.422  0.0000E+00  0.0000E+00  0.6960E+03  0.6960E+03
      8.485  0.0000E+00  0.0000E+00  0.6960E+03  0.6960E+03
      8.548  0.0000E+00  0.0000E+00  0.6960E+03  0.6960E+03
      8.611  0.0000E+00  0.0000E+00  0.6960E+03  0.6960E+03
      8.674  0.0000E+00  0.0000E+00  0.6960E+03  0.6960E+03
      8.737  0.0000E+00  0.0000E+00  0.6960E+03  0.6960E+03
      8.800  0.0000E+00  0.0000E+00  0.6960E+03  0.6960E+03
      8.863  0.0000E+00  0.0000E+00  0.6960E+03  0.6960E+03
      8.926  0.0000E+00  0.0000E+00  0.6960E+03  0.6960E+03
