 vasp.6.4.3 19Mar24 (build Oct 22 2024 11:23:12) complex                        
  
 executed on             LinuxIFC date 2025.06.12  04:42:04
 running   64 mpi-ranks, on    4 nodes
 distrk:  each k-point on   64 cores,    1 groups
 distr:  one band on NCORE=  16 cores,    4 groups


--------------------------------------------------------------------------------------------------------


 INCAR:
   SYSTEM = Si and Ge interface calculation
   ISTART = 0
   ICHARG = 2
   LWAVE = .FALSE.
   LREAL = AUTO
   ENCUT = 700
   ENAUG = 900
   ADDGRID = .TRUE.
   LMAXMIX = 6
   LASPH = .TRUE.
   LMIXTAU = .TRUE.
   NCORE = 16
   NELM = 100
   NBANDS = 634
   EDIFF = 1d-7
   AMIX = 0.6
   ISMEAR = 0
   SIGMA = 0.01
   NELECT = 1056
   ISPIN = 2
   NUPDOWN = 1
   LVTOT = .FALSE.
   LVHAR = .TRUE.

 POTCAR:    PAW_PBE Sn 08Apr2002                  
 POTCAR:    PAW_PBE Si 05Jan2001                  
 -----------------------------------------------------------------------------
|                                                                             |
|           W    W    AA    RRRRR   N    N  II  N    N   GGGG   !!!           |
|           W    W   A  A   R    R  NN   N  II  NN   N  G    G  !!!           |
|           W    W  A    A  R    R  N N  N  II  N N  N  G       !!!           |
|           W WW W  AAAAAA  RRRRR   N  N N  II  N  N N  G  GGG   !            |
|           WW  WW  A    A  R   R   N   NN  II  N   NN  G    G                |
|           W    W  A    A  R    R  N    N  II  N    N   GGGG   !!!           |
|                                                                             |
|     You use a magnetic or noncollinear calculation, but did not specify     |
|     the initial magnetic moment with the MAGMOM tag. Note that a            |
|     default of 3.788e-3 will be used for all atoms. This ferromagnetic      |
|     setup may break the symmetry of the crystal, in particular it may       |
|     rule out finding an antiferromagnetic solution. Thence, we              |
|     recommend setting the initial magnetic moment manually or verifying     |
|     carefully that this magnetic setup is desired.                          |
|                                                                             |
 -----------------------------------------------------------------------------

 POTCAR:    PAW_PBE Sn 08Apr2002                  
   VRHFIN =Sn: s2p2                                                                                 
   LEXCH  = PE                                                                                      
   EATOM  =    94.0860 eV,    6.9151 Ry                                                             
                                                                                                    
   TITEL  = PAW_PBE Sn 08Apr2002                                                                    
   LULTRA =        F    use ultrasoft PP ?                                                          
   IUNSCR =        1    unscreen: 0-lin 1-nonlin 2-no                                               
   RPACOR =    2.000    partial core radius                                                         
   POMASS =  118.710; ZVAL   =    4.000    mass and valenz                                          
   RCORE  =    3.000    outmost cutoff radius                                                       
   RWIGS  =    2.960; RWIGS  =    1.566    wigner-seitz radius (au A)                               
   ENMAX  =  103.236; ENMIN  =   77.427 eV                                                          
   ICORE  =        3    local potential                                                             
   LCOR   =        T    correct aug charges                                                         
   LPAW   =        T    paw PP                                                                      
   EAUG   =  263.585                                                                                
   DEXC   =    0.000                                                                                
   RMAX   =    3.078    core radius for proj-oper                                                   
   RAUG   =    1.300    factor for augmentation sphere                                              
   RDEP   =    3.022    radius for radial grids                                                     
   RDEPT  =    2.655    core radius for aug-charge                                                  
                                                                                                    
   Atomic configuration                                                                             
   13 entries                                                                                       
     n  l   j            E        occ.                                                              
     1  0  0.50    -29007.2859   2.0000                                                             
     2  0  0.50     -4378.8056   2.0000                                                             
     2  1  1.50     -3930.4293   6.0000                                                             
     3  0  0.50      -845.0264   2.0000                                                             
     3  1  1.50      -698.5725   6.0000                                                             
     3  2  2.50      -473.2839  10.0000                                                             
     4  0  0.50      -133.9036   2.0000                                                             
     4  1  1.50       -89.6752   6.0000                                                             
     4  2  2.50       -25.8375  10.0000                                                             
     5  0  0.50       -10.5484   2.0000                                                             
     5  1  0.50        -3.6940   2.0000                                                             
     5  2  1.50        -1.3606   0.0000                                                             
     4  3  2.50        -4.0817   0.0000                                                             
   Description                                                                                      
     l       E           TYP  RCUT    TYP  RCUT                                                     
     0    -10.5483727     23  3.000                                                                 
     0     27.2116520     23  3.000                                                                 
     1     -3.6939829     23  3.000                                                                 
     1      1.9821976     23  3.000                                                                 
     2     -1.3605826     23  3.000                                                                 
     3     -2.7211652     23  3.000                                                                 
  local pseudopotential read in
  partial core-charges read in
  partial kinetic energy density read in
  atomic valenz-charges read in
  non local Contribution for L=           0  read in
    real space projection operators read in
  non local Contribution for L=           0  read in
    real space projection operators read in
  non local Contribution for L=           1  read in
    real space projection operators read in
  non local Contribution for L=           1  read in
    real space projection operators read in
  non local Contribution for L=           2  read in
    real space projection operators read in
    PAW grid and wavefunctions read in
 
   number of l-projection  operators is LMAX  =           5
   number of lm-projection operators is LMMAX =          13
 
 POTCAR:    PAW_PBE Si 05Jan2001                  
   VRHFIN =Si: s2p2                                                                                 
   LEXCH  = PE                                                                                      
   EATOM  =   103.0669 eV,    7.5752 Ry                                                             
                                                                                                    
   TITEL  = PAW_PBE Si 05Jan2001                                                                    
   LULTRA =        F    use ultrasoft PP ?                                                          
   IUNSCR =        1    unscreen: 0-lin 1-nonlin 2-no                                               
   RPACOR =    1.500    partial core radius                                                         
   POMASS =   28.085; ZVAL   =    4.000    mass and valenz                                          
   RCORE  =    1.900    outmost cutoff radius                                                       
   RWIGS  =    2.480; RWIGS  =    1.312    wigner-seitz radius (au A)                               
   ENMAX  =  245.345; ENMIN  =  184.009 eV                                                          
   ICORE  =        2    local potential                                                             
   LCOR   =        T    correct aug charges                                                         
   LPAW   =        T    paw PP                                                                      
   EAUG   =  322.069                                                                                
   DEXC   =    0.000                                                                                
   RMAX   =    1.950    core radius for proj-oper                                                   
   RAUG   =    1.300    factor for augmentation sphere                                              
   RDEP   =    1.993    radius for radial grids                                                     
   RDEPT  =    1.837    core radius for aug-charge                                                  
                                                                                                    
   Atomic configuration                                                                             
    6 entries                                                                                       
     n  l   j            E        occ.                                                              
     1  0  0.50     -1785.8828   2.0000                                                             
     2  0  0.50      -139.4969   2.0000                                                             
     2  1  1.50       -95.5546   6.0000                                                             
     3  0  0.50       -10.8127   2.0000                                                             
     3  1  0.50        -4.0811   2.0000                                                             
     3  2  1.50        -4.0817   0.0000                                                             
   Description                                                                                      
     l       E           TYP  RCUT    TYP  RCUT                                                     
     0    -10.8127223     23  1.900                                                                 
     0     -7.6451159     23  1.900                                                                 
     1     -4.0811372     23  1.900                                                                 
     1      2.4879257     23  1.900                                                                 
     2     -4.0817478      7  1.900                                                                 
  local pseudopotential read in
  partial core-charges read in
  partial kinetic energy density read in
  atomic valenz-charges read in
  non local Contribution for L=           0  read in
    real space projection operators read in
  non local Contribution for L=           0  read in
    real space projection operators read in
  non local Contribution for L=           1  read in
    real space projection operators read in
  non local Contribution for L=           1  read in
    real space projection operators read in
    PAW grid and wavefunctions read in
 
   number of l-projection  operators is LMAX  =           4
   number of lm-projection operators is LMMAX =           8
 
 Optimization of the real space projectors (new method)

 maximal supplied QI-value         = 12.47
 optimisation between [QCUT,QGAM] = [ 12.47, 27.06] = [ 43.56,205.12] Ry 
 Optimized for a Real-space Cutoff    1.58 Angstroem

   l    n(q)    QCUT    max X(q) W(low)/X(q) W(high)/X(q)  e(spline) 
   0     13    12.472    14.688    0.45E-04    0.45E-04    0.25E-05
   0     13    12.472     7.308    0.94E-04    0.11E-03    0.61E-05
   1     12    12.472    45.102    0.34E-03    0.14E-03    0.21E-05
   1     12    12.472    30.691    0.31E-03    0.13E-03    0.20E-05
   2     12    12.472     7.156    0.86E-04    0.11E-03    0.17E-05
 WARNING: PSMAXN for non-local potential too small
          PSMAXN should be >   13.5545592237991       NTYP=           1
 Optimization of the real space projectors (new method)

 maximal supplied QI-value         = 19.84
 optimisation between [QCUT,QGAM] = [ 13.49, 26.99] = [ 50.98,203.92] Ry 
 Optimized for a Real-space Cutoff    1.07 Angstroem

   l    n(q)    QCUT    max X(q) W(low)/X(q) W(high)/X(q)  e(spline) 
   0      9    13.493   159.560    0.22E-03    0.15E-03    0.72E-07
   0      9    13.493   115.863    0.21E-03    0.15E-03    0.71E-07
   1      8    13.493    88.339    0.15E-03    0.11E-03    0.13E-06
   1      8    13.493    48.592    0.15E-03    0.10E-03    0.13E-06
  PAW_PBE Sn 08Apr2002                  :
 energy of atom  1       EATOM=  -94.0860
 kinetic energy error for atom=    0.0000 (will be added to EATOM!!)
  PAW_PBE Si 05Jan2001                  :
 energy of atom  2       EATOM= -103.0669
 kinetic energy error for atom=    0.0003 (will be added to EATOM!!)
 
 
 POSCAR: Sn+Si
  positions in direct lattice
  No initial velocities read in


 exchange-correlation table for PE
   RHO(1)=    0.500       N(1)  =     2000
   RHO(2)=  100.500       N(2)  =     4000
 


--------------------------------------------------------------------------------------------------------


 ion  position               nearest neighbor table
   1  0.092  0.989  0.886- 147 2.34   2 2.34 180 2.91
   2  0.112  0.893  0.816- 182 2.34   1 2.34  58 2.34 257 2.34
   3  0.727  0.816  0.534- 166 2.34 250 2.34 109 2.97
   4  0.995  0.333  0.000-  65 2.37  34 2.81 174 2.81
   5  0.823  0.335  0.886- 189 2.34 129 2.34
   6  0.662  0.333  0.336-  53 2.81 187 2.81 104 2.81 105 2.81
   7  0.285  0.028  0.886- 222 2.34 138 2.34  16 2.42
   8  0.828  0.000  0.168- 183 2.81  29 2.81 107 2.81 106 2.81
   9  0.112  0.893  0.534- 220 2.34 262 2.34 181 2.34
  10  0.746  0.720  0.886-  76 2.34 114 2.34  19 2.94  73 3.50
  11  0.162  0.667  0.168-  41 2.81 153 2.81 217 2.81  82 2.81
  12  0.995  0.667  0.336- 112 2.81  32 2.81 217 2.81 211 2.81
  13  0.246  0.220  0.886- 117 2.34 222 2.34  61 2.94
  14  0.162  0.333  0.168-  86 2.81 136 2.81  34 2.81  85 2.81
  15  0.995  0.333  0.336-  45 2.81  35 2.81  86 2.81  87 2.81
  16  0.328  0.000  0.000-   7 2.42  37 2.81  88 2.81
  17  0.162  0.000  0.168-  38 2.81  28 2.81 121 2.81  88 2.81
  18  0.995  0.000  0.336- 220 2.81  29 2.81 121 2.81  90 2.81
  19  0.662  0.667  0.000-  49 2.81  91 2.81  10 2.94 237 3.05
  20  0.495  0.667  0.168-  92 2.81 252 2.81 205 2.81  91 2.81
  21  0.328  0.667  0.336-  51 2.81  41 2.81  93 2.81  92 2.81
  22  0.662  0.333  0.000- 228 2.39  94 2.81 264 2.81
  23  0.495  0.333  0.168-  95 2.81  43 2.81  53 2.81  94 2.81
  24  0.328  0.333  0.336-  54 2.81  96 2.81 136 2.81  95 2.81
  25  0.662  0.000  0.000- 183 2.81  97 2.81 240 2.93  59 3.00
  26  0.785  0.528  0.886- 114 2.34 189 2.34 198 2.42
  27  0.328  0.000  0.336-  48 2.81  38 2.81  99 2.81 196 2.81
  28  0.078  0.917  0.084-  17 2.81 180 2.81  55 2.81  56 2.81
  29  0.912  0.917  0.252-   8 2.81  18 2.81  56 2.81 214 2.81
  30  0.842  0.239  0.534-  47 2.34 154 2.34 187 2.91
  31  0.439  0.258  0.886- 192 2.34 141 2.34  70 3.04 261 3.40
  32  0.912  0.583  0.252- 219 2.81  12 2.81 171 2.81  60 2.81
  33  0.745  0.583  0.420-  89 2.37 208 2.81  60 2.81
  34  0.078  0.250  0.084-  14 2.81  61 2.81   4 2.81  62 2.81
  35  0.912  0.250  0.252-  62 2.81 150 2.81  15 2.81  63 2.81
  36  0.035  0.278  0.534- 229 2.34 148 2.34  45 2.42
  37  0.412  0.917  0.084-  16 2.81 231 2.81  64 2.81 243 2.81
  38  0.245  0.917  0.252-  17 2.81  27 2.81 243 2.81 130 2.81
  39  0.496  0.970  0.534- 102 2.34 178 2.34  48 2.94 108 3.50
  40  0.477  0.066  0.886- 210 2.34 141 2.34  70 2.97
  41  0.245  0.583  0.252-  11 2.81  21 2.81 156 2.81  69 2.81
  42  0.996  0.470  0.534- 229 2.34 157 2.34  87 2.94
  43  0.412  0.250  0.084- 261 2.81  70 2.81  71 2.81  23 2.81
  44  0.535  0.778  0.534- 247 2.34 178 2.34 259 2.42
  45  0.078  0.250  0.420-  36 2.42  15 2.81  72 2.81
  46  0.900  0.951  0.886- 225 2.34 144 2.34 180 3.03  73 3.46
  47  0.862  0.143  0.605- 128 2.34  84 2.34  30 2.34 212 2.34
  48  0.412  0.917  0.420-  27 2.81  75 2.81  39 2.94 145 3.05
  49  0.745  0.583  0.084- 219 2.81  19 2.81  77 2.81 198 2.81
  50  0.573  0.585  0.534- 247 2.34 163 2.34
  51  0.412  0.583  0.420- 133 2.39  21 2.81 118 2.81
  52  0.862  0.143  0.886-  79 2.34 129 2.34 225 2.34
  53  0.578  0.250  0.252-  80 2.81   6 2.81  23 2.81 190 2.81
  54  0.412  0.250  0.420-  24 2.81 190 2.81 115 2.93 101 3.00
  55  0.162  0.833  0.000-  58 2.39  82 2.81  28 2.81
  56  0.995  0.833  0.168- 165 2.81 217 2.81  29 2.81  28 2.81
  57  0.189  0.508  0.534- 253 2.34 172 2.34  96 3.04 112 3.40
  58  0.131  0.797  0.886-   2 2.34 135 2.34  55 2.39
  59  0.669  0.104  0.886- 126 2.34 213 2.34  25 3.00
  60  0.828  0.500  0.336-  87 2.81 104 2.81  33 2.81  32 2.81
  61  0.162  0.167  0.000-  88 2.81  34 2.81  13 2.94 186 3.05
  62  0.995  0.167  0.168-  35 2.81 106 2.81 121 2.81  34 2.81
  63  0.828  0.167  0.336-  90 2.81 187 2.81  35 2.81 107 2.81
  64  0.495  0.833  0.000- 168 2.37  91 2.81  37 2.81
  65  0.016  0.374  0.886- 201 2.34 132 2.34   4 2.37
  66  0.227  0.316  0.534- 172 2.34 241 2.34  96 2.97
  67  0.495  0.500  0.000-  94 2.81 252 2.81  68 2.91 234 3.03
  68  0.592  0.489  0.886- 111 2.34 195 2.34  67 2.91
  69  0.162  0.500  0.336-  86 2.81  96 2.81 112 2.81  41 2.81
  70  0.495  0.167  0.000-  43 2.81  97 2.81  40 2.97  31 3.04
  71  0.328  0.167  0.168- 136 2.81  88 2.81  43 2.81 196 2.81
  72  0.162  0.167  0.336- 121 2.81  45 2.81 136 2.81  99 2.81
  73  0.828  0.833  0.000- 165 2.81 183 2.81 255 3.40  46 3.46  10 3.50
  74  0.208  0.412  0.886- 204 2.34 117 2.34 177 2.93
  75  0.495  0.833  0.336- 259 2.81  92 2.81 226 2.81  48 2.81
  76  0.727  0.816  0.816- 240 2.34 167 2.34  10 2.34 239 2.34
  77  0.662  0.500  0.168- 104 2.81  94 2.81 205 2.81  49 2.81
  78  0.612  0.393  0.534- 105 2.34 232 2.34 163 2.34
  79  0.828  0.167  0.000-  52 2.34 106 2.81 264 2.81
  80  0.662  0.167  0.168- 107 2.81  53 2.81 264 2.81  97 2.81
  81  0.650  0.201  0.534- 232 2.34 151 2.34 187 3.03 108 3.46
  82  0.245  0.750  0.084-  55 2.81 243 2.81  11 2.81 159 2.81
  83  0.342  0.739  0.534- 256 2.34 175 2.34  93 2.91
  84  0.881  0.047  0.534-  47 2.34 169 2.34  90 2.39
  85  0.245  0.417  0.084- 156 2.81 177 2.81  14 2.81 261 2.81
  86  0.078  0.417  0.252- 171 2.81  14 2.81  69 2.81  15 2.81
  87  0.912  0.417  0.420-  60 2.81  15 2.81  42 2.94 193 3.05
  88  0.245  0.083  0.084-  61 2.81  71 2.81  17 2.81  16 2.81
  89  0.766  0.624  0.534- 166 2.34 235 2.34  33 2.37
  90  0.912  0.083  0.420-  84 2.39  63 2.81  18 2.81
  91  0.578  0.750  0.084-  64 2.81 162 2.81  19 2.81  20 2.81
  92  0.412  0.750  0.252-  20 2.81 243 2.81  75 2.81  21 2.81
  93  0.245  0.750  0.420- 130 2.81  21 2.81  83 2.91 142 3.03
  94  0.578  0.417  0.084-  67 2.81  77 2.81  22 2.81  23 2.81
  95  0.412  0.417  0.252-  23 2.81 156 2.81 118 2.81  24 2.81
  96  0.245  0.417  0.420-  69 2.81  24 2.81  66 2.97  57 3.04
  97  0.578  0.083  0.084-  25 2.81  70 2.81  80 2.81 231 2.81
  98  0.958  0.662  0.534- 238 2.34 157 2.34 211 2.93
  99  0.245  0.083  0.420- 199 2.37  27 2.81  72 2.81
 100  0.362  0.643  0.886- 159 2.34 207 2.34 120 2.34
 101  0.419  0.354  0.534- 244 2.34 160 2.34  54 3.00
 102  0.477  0.066  0.605- 140 2.34  39 2.34 115 2.34 221 2.34
 103  0.977  0.566  0.886- 132 2.34 216 2.34 258 2.97
 104  0.745  0.417  0.252-  77 2.81 150 2.81  60 2.81   6 2.81
 105  0.578  0.417  0.420-  78 2.34 118 2.81   6 2.81
 106  0.912  0.083  0.084-  79 2.81  62 2.81   8 2.81 180 2.81
 107  0.745  0.083  0.252-  80 2.81   8 2.81 223 2.81  63 2.81
 108  0.578  0.083  0.420- 190 2.81 223 2.81 139 3.40  81 3.46  39 3.50
 109  0.745  0.917  0.420- 223 2.81 214 2.81   3 2.97 139 3.04
 110  0.727  0.316  0.675- 232 2.34 227 2.34 154 2.34 155 2.34
 111  0.612  0.393  0.816- 233 2.34 228 2.34  68 2.34 155 2.34
 112  0.078  0.583  0.420-  12 2.81  69 2.81  57 3.40
 113  0.881  0.547  0.675- 235 2.34 230 2.34 157 2.34 158 2.34
 114  0.766  0.624  0.816- 236 2.34  26 2.34 158 2.34  10 2.34
 115  0.458  0.162  0.534- 102 2.34 160 2.34  54 2.93
 116  0.342  0.239  0.675- 260 2.34 241 2.34 161 2.34 160 2.34
 117  0.227  0.316  0.816-  13 2.34 242 2.34  74 2.34 161 2.34
 118  0.495  0.500  0.336- 105 2.81  95 2.81 205 2.81  51 2.81
 119  0.496  0.470  0.675- 244 2.34 163 2.34 164 2.34 233 2.34
 120  0.381  0.547  0.816- 245 2.34 234 2.34 164 2.34 100 2.34
 121  0.078  0.083  0.252-  17 2.81  62 2.81  72 2.81  18 2.81
 122  0.650  0.701  0.675- 247 2.34 167 2.34 166 2.34 236 2.34
 123  0.535  0.778  0.816- 248 2.34 168 2.34 237 2.34 167 2.34
 124  0.919  0.854  0.534- 169 2.34 238 2.34 211 3.00
 125  0.804  0.931  0.675- 250 2.34 170 2.34 169 2.34 239 2.34
 126  0.689  0.008  0.816- 251 2.34  59 2.34 240 2.34 170 2.34
 127  0.073  0.085  0.534- 262 2.34 148 2.34
 128  0.958  0.162  0.675-  47 2.34 263 2.34 148 2.34 149 2.34
 129  0.842  0.239  0.816- 227 2.34  52 2.34 149 2.34   5 2.34
 130  0.162  0.833  0.336- 217 2.81  93 2.81 220 2.81  38 2.81
 131  0.112  0.393  0.675- 229 2.34 173 2.34 172 2.34 242 2.34
 132  0.996  0.470  0.816- 230 2.34 103 2.34  65 2.34 173 2.34
 133  0.381  0.547  0.534- 244 2.34 175 2.34  51 2.39
 134  0.266  0.624  0.675- 253 2.34 176 2.34 245 2.34 175 2.34
 135  0.150  0.701  0.816- 254 2.34 246 2.34 176 2.34  58 2.34
 136  0.245  0.250  0.252-  71 2.81  14 2.81  72 2.81  24 2.81
 137  0.419  0.854  0.675- 256 2.34 248 2.34 178 2.34 179 2.34
 138  0.304  0.931  0.816- 249 2.34 257 2.34 179 2.34   7 2.34
 139  0.689  0.008  0.534- 250 2.34 151 2.34 109 3.04 108 3.40
 140  0.573  0.085  0.675- 102 2.34 251 2.34 152 2.34 151 2.34
 141  0.458  0.162  0.816- 260 2.34  40 2.34  31 2.34 152 2.34
 142  0.150  0.701  0.534- 253 2.34 181 2.34  93 3.03
 143  0.035  0.778  0.675- 238 2.34 254 2.34 182 2.34 181 2.34
 144  0.919  0.854  0.816- 239 2.34  46 2.34 255 2.34 182 2.34
 145  0.304  0.931  0.534- 256 2.34 184 2.34  48 3.05
 146  0.189  0.008  0.675- 257 2.34 262 2.34 184 2.34 185 2.34
 147  0.073  0.085  0.816-   1 2.34 263 2.34 186 2.34 185 2.34
 148  0.054  0.181  0.605- 200 2.34 128 2.34  36 2.34 127 2.34
 149  0.939  0.258  0.745- 201 2.34 188 2.34 128 2.34 129 2.34
 150  0.828  0.333  0.168- 264 2.81  35 2.81 104 2.81 174 2.81
 151  0.669  0.104  0.605- 212 2.34  81 2.34 139 2.34 140 2.34
 152  0.554  0.181  0.745- 213 2.34 191 2.34 140 2.34 141 2.34
 153  0.078  0.583  0.084-  11 2.81 258 2.81 177 2.81 171 2.81
 154  0.823  0.335  0.605- 188 2.34  30 2.34 110 2.34 193 2.34
 155  0.708  0.412  0.745- 189 2.34 110 2.34 194 2.34 111 2.34
 156  0.328  0.500  0.168-  85 2.81  95 2.81  41 2.81 252 2.81
 157  0.977  0.566  0.605- 215 2.34 113 2.34  42 2.34  98 2.34
 158  0.862  0.643  0.745- 216 2.34 114 2.34 197 2.34 113 2.34
 159  0.328  0.667  0.000- 100 2.34 252 2.81  82 2.81
 160  0.439  0.258  0.605- 191 2.34 115 2.34 116 2.34 101 2.34
 161  0.323  0.335  0.745- 192 2.34 116 2.34 203 2.34 117 2.34
 162  0.662  0.833  0.168- 202 2.81  91 2.81 226 2.81 183 2.81
 163  0.592  0.489  0.605- 194 2.34 119 2.34  50 2.34  78 2.34
 164  0.477  0.566  0.745- 195 2.34 119 2.34 120 2.34 206 2.34
 165  0.912  0.750  0.084-  73 2.81  56 2.81 219 2.81 258 2.81
 166  0.746  0.720  0.605- 197 2.34  89 2.34   3 2.34 122 2.34
 167  0.631  0.797  0.745-  76 2.34 122 2.34 209 2.34 123 2.34
 168  0.516  0.874  0.886- 210 2.34 123 2.34  64 2.37
 169  0.900  0.951  0.605- 224 2.34 124 2.34  84 2.34 125 2.34
 170  0.785  0.028  0.745- 225 2.34 125 2.34 212 2.34 126 2.34
 171  0.995  0.500  0.168- 174 2.81  86 2.81  32 2.81 153 2.81
 172  0.208  0.412  0.605- 203 2.34  66 2.34 131 2.34  57 2.34
 173  0.092  0.489  0.745- 204 2.34 131 2.34 215 2.34 132 2.34
 174  0.912  0.417  0.084- 198 2.81 171 2.81 150 2.81   4 2.81
 175  0.362  0.643  0.605- 206 2.34  83 2.34 134 2.34 133 2.34
 176  0.246  0.720  0.745- 207 2.34 134 2.34 135 2.34 218 2.34
 177  0.162  0.500  0.000-  85 2.81 153 2.81  74 2.93 246 3.00
 178  0.516  0.874  0.605- 209 2.34 137 2.34  39 2.34  44 2.34
 179  0.400  0.951  0.745- 210 2.34 221 2.34 138 2.34 137 2.34
 180  0.995  0.000  0.000-  28 2.81 106 2.81   1 2.91  46 3.03
 181  0.131  0.797  0.605- 218 2.34 142 2.34   9 2.34 143 2.34
 182  0.016  0.874  0.745- 224 2.34   2 2.34 143 2.34 144 2.34
 183  0.745  0.917  0.084-   8 2.81  25 2.81 162 2.81  73 2.81
 184  0.285  0.028  0.605- 221 2.34 199 2.34 146 2.34 145 2.34
 185  0.169  0.104  0.745- 200 2.34 222 2.34 147 2.34 146 2.34
 186  0.054  0.181  0.886- 201 2.34 147 2.34  61 3.05
 187  0.745  0.250  0.420-   6 2.81  63 2.81  30 2.91  81 3.03
 188  0.919  0.354  0.675- 154 2.34 229 2.34 230 2.34 149 2.34
 189  0.804  0.431  0.816- 155 2.34  26 2.34 230 2.34   5 2.34
 190  0.495  0.167  0.336- 108 2.81 196 2.81  53 2.81  54 2.81
 191  0.535  0.278  0.675- 160 2.34 233 2.34 152 2.34 232 2.34
 192  0.419  0.354  0.816- 161 2.34  31 2.34 234 2.34 233 2.34
 193  0.804  0.431  0.534- 235 2.34 154 2.34  87 3.05
 194  0.689  0.508  0.675- 163 2.34 236 2.34 155 2.34 235 2.34
 195  0.573  0.585  0.816- 237 2.34 164 2.34 236 2.34  68 2.34
 196  0.412  0.083  0.252- 231 2.81  71 2.81 190 2.81  27 2.81
 197  0.842  0.739  0.675- 239 2.34 166 2.34 158 2.34 238 2.34
 198  0.828  0.500  0.000-  26 2.42 174 2.81  49 2.81
 199  0.266  0.124  0.534- 241 2.34 184 2.34  99 2.37
 200  0.150  0.201  0.675- 242 2.34 185 2.34 148 2.34 241 2.34
 201  0.035  0.278  0.816- 186 2.34  65 2.34 149 2.34 242 2.34
 202  0.745  0.750  0.252- 162 2.81 214 2.81 219 2.81 208 2.81
 203  0.304  0.431  0.675- 172 2.34 245 2.34 244 2.34 161 2.34
 204  0.189  0.508  0.816- 173 2.34  74 2.34 246 2.34 245 2.34
 205  0.578  0.583  0.252- 208 2.81  20 2.81  77 2.81 118 2.81
 206  0.458  0.662  0.675- 248 2.34 175 2.34 247 2.34 164 2.34
 207  0.342  0.739  0.816- 249 2.34 176 2.34 100 2.34 248 2.34
 208  0.662  0.667  0.336- 205 2.81  33 2.81 202 2.81 259 2.81
 209  0.612  0.893  0.675- 178 2.34 167 2.34 251 2.34 250 2.34
 210  0.496  0.970  0.816- 179 2.34  40 2.34 168 2.34 251 2.34
 211  0.912  0.750  0.420- 214 2.81  12 2.81  98 2.93 124 3.00
 212  0.766  0.124  0.675- 227 2.34 151 2.34 170 2.34  47 2.34
 213  0.650  0.201  0.816- 152 2.34 228 2.34  59 2.34 227 2.34
 214  0.828  0.833  0.336- 211 2.81 202 2.81 109 2.81  29 2.81
 215  0.073  0.585  0.675- 157 2.34 254 2.34 253 2.34 173 2.34
 216  0.958  0.662  0.816- 158 2.34 255 2.34 103 2.34 254 2.34
 217  0.078  0.750  0.252-  56 2.81 130 2.81  11 2.81  12 2.81
 218  0.227  0.816  0.675- 257 2.34 181 2.34 256 2.34 176 2.34
 219  0.828  0.667  0.168-  49 2.81  32 2.81 202 2.81 165 2.81
 220  0.078  0.917  0.420-   9 2.34  18 2.81 130 2.81
 221  0.381  0.047  0.675- 184 2.34 179 2.34 102 2.34 260 2.34
 222  0.266  0.124  0.816-   7 2.34 185 2.34  13 2.34 260 2.34
 223  0.662  0.000  0.336- 226 2.81 109 2.81 107 2.81 108 2.81
 224  0.996  0.970  0.675- 169 2.34 182 2.34 263 2.34 262 2.34
 225  0.881  0.047  0.816- 170 2.34  46 2.34  52 2.34 263 2.34
 226  0.578  0.917  0.252- 223 2.81 231 2.81 162 2.81  75 2.81
 227  0.746  0.220  0.745- 129 2.34 212 2.34 110 2.34 213 2.34
 228  0.631  0.297  0.886- 213 2.34 111 2.34  22 2.39
 229  0.016  0.374  0.605- 188 2.34  42 2.34  36 2.34 131 2.34
 230  0.900  0.451  0.745- 113 2.34 132 2.34 189 2.34 188 2.34
 231  0.495  0.000  0.168- 196 2.81  37 2.81 226 2.81  97 2.81
 232  0.631  0.297  0.605- 110 2.34  81 2.34  78 2.34 191 2.34
 233  0.516  0.374  0.745- 191 2.34 111 2.34 119 2.34 192 2.34
 234  0.400  0.451  0.886- 192 2.34 120 2.34  67 3.03
 235  0.785  0.528  0.605- 113 2.34 193 2.34  89 2.34 194 2.34
 236  0.669  0.604  0.745- 114 2.34 194 2.34 122 2.34 195 2.34
 237  0.554  0.681  0.886- 195 2.34 123 2.34  19 3.05
 238  0.939  0.758  0.605- 143 2.34  98 2.34 124 2.34 197 2.34
 239  0.823  0.835  0.745- 144 2.34 197 2.34 125 2.34  76 2.34
 240  0.708  0.912  0.886-  76 2.34 126 2.34  25 2.93
 241  0.246  0.220  0.605- 116 2.34 199 2.34 200 2.34  66 2.34
 242  0.131  0.297  0.745- 200 2.34 117 2.34 201 2.34 131 2.34
 243  0.328  0.833  0.168-  82 2.81  92 2.81  38 2.81  37 2.81
 244  0.400  0.451  0.605- 119 2.34 101 2.34 203 2.34 133 2.34
 245  0.285  0.528  0.745- 120 2.34 203 2.34 134 2.34 204 2.34
 246  0.169  0.604  0.886- 204 2.34 135 2.34 177 3.00
 247  0.554  0.681  0.605- 122 2.34  50 2.34  44 2.34 206 2.34
 248  0.439  0.758  0.745- 123 2.34 206 2.34 137 2.34 207 2.34
 249  0.323  0.835  0.886- 207 2.34 138 2.34
 250  0.708  0.912  0.605- 125 2.34 139 2.34   3 2.34 209 2.34
 251  0.592  0.989  0.745- 126 2.34 140 2.34 209 2.34 210 2.34
 252  0.412  0.583  0.084- 159 2.81  20 2.81  67 2.81 156 2.81
 253  0.169  0.604  0.605- 134 2.34  57 2.34 215 2.34 142 2.34
 254  0.054  0.681  0.745- 135 2.34 215 2.34 143 2.34 216 2.34
 255  0.939  0.758  0.886- 216 2.34 144 2.34 258 3.04  73 3.40
 256  0.323  0.835  0.605-  83 2.34 137 2.34 218 2.34 145 2.34
 257  0.208  0.912  0.745- 146 2.34 218 2.34 138 2.34   2 2.34
 258  0.995  0.667  0.000- 153 2.81 165 2.81 103 2.97 255 3.04
 259  0.578  0.750  0.420-  44 2.42  75 2.81 208 2.81
 260  0.362  0.143  0.745- 116 2.34 141 2.34 221 2.34 222 2.34
 261  0.328  0.333  0.000-  43 2.81  85 2.81  31 3.40
 262  0.092  0.989  0.605- 146 2.34   9 2.34 127 2.34 224 2.34
 263  0.977  0.066  0.745- 147 2.34 224 2.34 128 2.34 225 2.34
 264  0.745  0.250  0.084- 150 2.81  80 2.81  79 2.81  22 2.81
 
  LATTYP: Found a simple tetragonal cell.
 ALAT       =    19.4675998690
 C/A-ratio  =     0.9914038219
  
  Lattice vectors:
  
 A1 = (  19.4675998690,   0.0000000000,   0.0000000000)
 A2 = (   0.0000000000,  19.4675998690,   0.0000000000)
 A3 = (   0.0000000000,   0.0000000000,  19.3002529140)


Analysis of symmetry for initial positions (statically):
=====================================================================
 Subroutine PRICEL returns:
 Original cell was already a primitive cell.
 

 Routine SETGRP: Setting up the symmetry group for a 
 simple tetragonal supercell.


 Subroutine GETGRP returns: Found  1 space group operations
 (whereof  1 operations were pure point group operations)
 out of a pool of 16 trial point group operations.


The static configuration has the point symmetry C_1 .


Analysis of symmetry for dynamics (positions and initial velocities):
=====================================================================
 Subroutine PRICEL returns:
 Original cell was already a primitive cell.
 

 Routine SETGRP: Setting up the symmetry group for a 
 simple tetragonal supercell.


 Subroutine GETGRP returns: Found  1 space group operations
 (whereof  1 operations were pure point group operations)
 out of a pool of 16 trial point group operations.


The dynamic configuration has the point symmetry C_1 .


Analysis of structural, dynamic, and magnetic symmetry:
=====================================================================
 Subroutine PRICEL returns:
 Original cell was already a primitive cell.
 

 Routine SETGRP: Setting up the symmetry group for a 
 simple tetragonal supercell.


 Subroutine GETGRP returns: Found  1 space group operations
 (whereof  1 operations were pure point group operations)
 out of a pool of 16 trial point group operations.


The overall configuration has the point symmetry C_1 .


 Subroutine INISYM returns: Found  1 space group operations
 (whereof  1 operations are pure point group operations),
 and found     1 'primitive' translations


----------------------------------------------------------------------------------------

                                     Primitive cell                                     

  volume of cell :    7314.5535

  direct lattice vectors                    reciprocal lattice vectors
    19.467599869  0.000000000  0.000000000     0.051367401  0.000000000  0.000000000
     0.000000000 19.467599869  0.000000000     0.000000000  0.051367401  0.000000000
     0.000000000  0.000000000 19.300252914     0.000000000  0.000000000  0.051812793

  length of vectors
    19.467599869 19.467599869 19.300252914     0.051367401  0.051367401  0.051812793

  position of ions in fractional coordinates (direct lattice)
     0.092443161  0.989058554  0.886011779
     0.111674003  0.892904758  0.815662920
     0.727058709  0.815981507  0.534267545
     0.995035112  0.333333343  0.000000000
     0.823212326  0.335212380  0.886011779
     0.661701739  0.333333343  0.336223543
     0.284750849  0.027520061  0.886011779
     0.828368425  0.000000000  0.168111786
     0.111674130  0.892904580  0.534267545
     0.746289313  0.719827771  0.886011779
     0.161701739  0.666666687  0.168111786
     0.995035112  0.666666687  0.336223543
     0.246289402  0.219827890  0.886011779
     0.161701739  0.333333343  0.168111786
     0.995035112  0.333333343  0.336223543
     0.328368455  0.000000000  0.000000000
     0.161701739  0.000000000  0.168111786
     0.995035112  0.000000000  0.336223543
     0.661701798  0.666666687  0.000000000
     0.495035112  0.666666687  0.168111786
     0.328368455  0.666666687  0.336223543
     0.661701798  0.333333343  0.000000000
     0.495035112  0.333333343  0.168111786
     0.328368455  0.333333343  0.336223543
     0.661701798  0.000000000  0.000000000
     0.784750760  0.527520061  0.886011779
     0.328368455  0.000000000  0.336223543
     0.078368433  0.916666746  0.084055893
     0.911701798  0.916666746  0.252167612
     0.842443466  0.239058375  0.534267545
     0.438597023  0.258289337  0.886011779
     0.911701798  0.583333433  0.252167612
     0.745035052  0.583333433  0.420279443
     0.078368433  0.250000000  0.084055893
     0.911701798  0.250000000  0.252167612
     0.034751058  0.277519971  0.534267545
     0.411701769  0.916666746  0.084055893
     0.245035097  0.916666746  0.252167612
     0.496289581  0.969827712  0.534267545
     0.477058619  0.065981627  0.886011779
     0.245035097  0.583333433  0.252167612
     0.996289611  0.469827592  0.534267545
     0.411701769  0.250000000  0.084055893
     0.534751117  0.777519882  0.534267545
     0.078368381  0.250000000  0.420279443
     0.900135458  0.950596988  0.886011779
     0.861674249  0.142904535  0.604616404
     0.411701798  0.916666746  0.420279443
     0.745035172  0.583333433  0.084055893
     0.573212624  0.585212350  0.534267545
     0.411701798  0.583333433  0.420279443
     0.861673892  0.142904639  0.886011779
     0.578368545  0.250000000  0.252167612
     0.411701798  0.250000000  0.420279443
     0.161701769  0.833333313  0.000000000
     0.995035052  0.833333313  0.168111786
     0.188597232  0.508289218  0.534267545
     0.130904704  0.796750903  0.886011779
     0.669366241  0.104443185  0.886011779
     0.828368425  0.500000000  0.336223543
     0.161701769  0.166666672  0.000000000
     0.995035052  0.166666672  0.168111786
     0.828368425  0.166666672  0.336223543
     0.495035112  0.833333313  0.000000000
     0.015520096  0.373673856  0.886011779
     0.227058768  0.315981477  0.534267545
     0.495035112  0.500000000  0.000000000
     0.592443287  0.489058524  0.886011779
     0.161701754  0.500000000  0.336223543
     0.495035112  0.166666672  0.000000000
     0.328368425  0.166666672  0.168111786
     0.161701754  0.166666672  0.336223543
     0.828368545  0.833333313  0.000000000
     0.207827836  0.412135422  0.886011779
     0.495035201  0.833333313  0.336223543
     0.727058589  0.815981686  0.815662920
     0.661701858  0.500000000  0.168111786
     0.611674190  0.392904580  0.534267545
     0.828368545  0.166666672  0.000000000
     0.661701858  0.166666672  0.168111786
     0.650135636  0.200596869  0.534267545
     0.245035097  0.750000060  0.084055893
     0.342443407  0.739058495  0.534267545
     0.880904913  0.046750784  0.534267545
     0.245035097  0.416666716  0.084055893
     0.078368433  0.416666716  0.252167612
     0.911701739  0.416666716  0.420279443
     0.245035097  0.083333343  0.084055893
     0.765520275  0.623673797  0.534267545
     0.911701739  0.083333343  0.420279443
     0.578368485  0.750000060  0.084055893
     0.411701858  0.750000060  0.252167612
     0.245035127  0.750000060  0.420279443
     0.578368485  0.416666716  0.084055893
     0.411701858  0.416666716  0.252167612
     0.245035127  0.416666716  0.420279443
     0.578368485  0.083333343  0.084055893
     0.957828045  0.662135422  0.534267545
     0.245035127  0.083333343  0.420279443
     0.361673951  0.642904758  0.886011779
     0.419366509  0.354443043  0.534267545
     0.477058828  0.065981507  0.604616404
     0.977058530  0.565981567  0.886011779
     0.745035052  0.416666716  0.252167612
     0.578368366  0.416666716  0.420279443
     0.911701739  0.083333343  0.084055893
     0.745035052  0.083333343  0.252167612
     0.578368366  0.083333343  0.420279443
     0.745035052  0.916666746  0.420279443
     0.727058768  0.315981507  0.674965203
     0.611674070  0.392904669  0.815662920
     0.078368381  0.583333433  0.420279443
     0.880904913  0.546750665  0.674965203
     0.765520215  0.623673856  0.815662920
     0.457828045  0.162135303  0.534267545
     0.342443347  0.239058435  0.674965203
     0.227058649  0.315981567  0.815662920
     0.495035201  0.500000000  0.336223543
     0.496289492  0.469827712  0.674965203
     0.380904794  0.546750844  0.815662920
     0.078368433  0.083333343  0.252167612
     0.650135577  0.700596929  0.674965203
     0.534750879  0.777520061  0.815662920
     0.919366419  0.854443133  0.534267545
     0.803981721  0.931366265  0.674965203
     0.688597023  0.008289337  0.815662920
     0.073212624  0.085212208  0.534267545
     0.957827866  0.162135333  0.674965203
     0.842443168  0.239058465  0.815662920
     0.161701754  0.833333313  0.336223543
     0.111674070  0.392904609  0.674965203
     0.996289313  0.469827741  0.815662920
     0.380904943  0.546750724  0.534267545
     0.265520215  0.623673856  0.674965203
     0.150135517  0.700596988  0.815662920
     0.245035097  0.250000000  0.252167612
     0.419366419  0.854443014  0.674965203
     0.303981692  0.931366146  0.815662920
     0.688597202  0.008289218  0.534267545
     0.573212504  0.085212342  0.674965203
     0.457827836  0.162135482  0.815662920
     0.150135666  0.700596869  0.534267545
     0.034750938  0.777520001  0.674965203
     0.919366241  0.854443192  0.815662920
     0.303981870  0.931366086  0.534267545
     0.188597172  0.008289099  0.674965203
     0.073212385  0.085212342  0.815662920
     0.053981781  0.181366086  0.604616404
     0.938597083  0.258289218  0.745314062
     0.828368425  0.333333343  0.168111786
     0.669366419  0.104443066  0.604616404
     0.553981781  0.181366205  0.745314062
     0.078368433  0.583333433  0.084055893
     0.823212683  0.335212231  0.604616404
     0.707827985  0.412135392  0.745314062
     0.328368425  0.500000000  0.168111786
     0.977058768  0.565981448  0.604616404
     0.861674070  0.642904639  0.745314062
     0.328368455  0.666666687  0.000000000
     0.438597262  0.258289158  0.604616404
     0.323212564  0.335212290  0.745314062
     0.661701858  0.833333313  0.168111786
     0.592443347  0.489058465  0.604616404
     0.477058679  0.565981567  0.745314062
     0.911701739  0.750000060  0.084055893
     0.746289492  0.719827652  0.604616404
     0.630904794  0.796750784  0.745314062
     0.515520096  0.873673916  0.886011779
     0.900135636  0.950596929  0.604616404
     0.784750938  0.027520061  0.745314062
     0.995035052  0.500000000  0.168111786
     0.207827985  0.412135333  0.604616404
     0.092443295  0.489058435  0.745314062
     0.911701739  0.416666716  0.084055893
     0.361674130  0.642904639  0.604616404
     0.246289432  0.719827712  0.745314062
     0.161701769  0.500000000  0.000000000
     0.515520275  0.873673797  0.604616404
     0.400135577  0.950596929  0.745314062
     0.995035112  0.000000000  0.000000000
     0.130904898  0.796750724  0.604616404
     0.015520215  0.873673916  0.745314062
     0.745035172  0.916666746  0.084055893
     0.284751058  0.027519941  0.604616404
     0.169366330  0.104443066  0.745314062
     0.053981662  0.181366205  0.886011779
     0.745035052  0.250000000  0.420279443
     0.919366360  0.354443103  0.674965203
     0.803981662  0.431366265  0.815662920
     0.495035201  0.166666672  0.336223543
     0.534750938  0.277520001  0.674965203
     0.419366270  0.354443133  0.815662920
     0.803981900  0.431366175  0.534267545
     0.688597143  0.508289278  0.674965203
     0.573212504  0.585212469  0.815662920
     0.411701858  0.083333343  0.252167612
     0.842443287  0.739058554  0.674965203
     0.828368545  0.500000000  0.000000000
     0.265520334  0.123673767  0.534267545
     0.150135636  0.200596899  0.674965203
     0.034750938  0.277520031  0.815662920
     0.745035052  0.750000060  0.252167612
     0.303981811  0.431366175  0.674965203
     0.188597083  0.508289278  0.815662920
     0.578368545  0.583333433  0.252167612
     0.457827926  0.662135482  0.674965203
     0.342443228  0.739058614  0.815662920
     0.661701739  0.666666687  0.336223543
     0.611674011  0.892904639  0.674965203
     0.496289343  0.969827771  0.815662920
     0.911701739  0.750000060  0.420279443
     0.765520215  0.123673908  0.674965203
     0.650135517  0.200597048  0.815662920
     0.828368425  0.833333313  0.336223543
     0.073212504  0.585212350  0.674965203
     0.957827806  0.662135482  0.815662920
     0.078368433  0.750000060  0.252167612
     0.227058709  0.815981627  0.674965203
     0.828368425  0.666666687  0.168111786
     0.078368381  0.916666746  0.420279443
     0.380904853  0.046750784  0.674965203
     0.265520155  0.123673908  0.815662920
     0.661701739  0.000000000  0.336223543
     0.996289432  0.969827712  0.674965203
     0.880904675  0.046750784  0.815662920
     0.578368545  0.916666746  0.252167612
     0.746289492  0.219827682  0.745314062
     0.630904794  0.296750814  0.886011779
     0.015520215  0.373673767  0.604616404
     0.900135517  0.450596929  0.745314062
     0.495035112  0.000000000  0.168111786
     0.630904973  0.296750695  0.604616404
     0.515520275  0.373673826  0.745314062
     0.400135577  0.450596988  0.886011779
     0.784751177  0.527519941  0.604616404
     0.669366479  0.604443073  0.745314062
     0.553981781  0.681366205  0.886011779
     0.938597381  0.758289218  0.604616404
     0.823212683  0.835212350  0.745314062
     0.707827926  0.912135482  0.886011779
     0.246289551  0.219827563  0.604616404
     0.130904838  0.296750695  0.745314062
     0.328368425  0.833333313  0.168111786
     0.400135726  0.450596869  0.604616404
     0.284751028  0.527520001  0.745314062
     0.169366300  0.604443133  0.886011779
     0.553981841  0.681366086  0.604616404
     0.438597172  0.758289218  0.745314062
     0.323212415  0.835212350  0.886011779
     0.707828045  0.912135422  0.604616404
     0.592443347  0.989058554  0.745314062
     0.411701769  0.583333433  0.084055893
     0.169366419  0.604443014  0.604616404
     0.053981781  0.681366146  0.745314062
     0.938596964  0.758289278  0.886011779
     0.323212594  0.835212231  0.604616404
     0.207827896  0.912135363  0.745314062
     0.995035112  0.666666687  0.000000000
     0.578368366  0.750000060  0.420279443
     0.361674130  0.142904758  0.745314062
     0.328368455  0.333333343  0.000000000
     0.092443362  0.989058375  0.604616404
     0.977058589  0.065981507  0.745314062
     0.745035172  0.250000000  0.084055893

  ion indices of the primitive-cell ions
   primitive index   ion index
                 1           1
                 2           2
                 3           3
                 4           4
                 5           5
                 6           6
                 7           7
                 8           8
                 9           9
                10          10
                11          11
                12          12
                13          13
                14          14
                15          15
                16          16
                17          17
                18          18
                19          19
                20          20
                21          21
                22          22
                23          23
                24          24
                25          25
                26          26
                27          27
                28          28
                29          29
                30          30
                31          31
                32          32
                33          33
                34          34
                35          35
                36          36
                37          37
                38          38
                39          39
                40          40
                41          41
                42          42
                43          43
                44          44
                45          45
                46          46
                47          47
                48          48
                49          49
                50          50
                51          51
                52          52
                53          53
                54          54
                55          55
                56          56
                57          57
                58          58
                59          59
                60          60
                61          61
                62          62
                63          63
                64          64
                65          65
                66          66
                67          67
                68          68
                69          69
                70          70
                71          71
                72          72
                73          73
                74          74
                75          75
                76          76
                77          77
                78          78
                79          79
                80          80
                81          81
                82          82
                83          83
                84          84
                85          85
                86          86
                87          87
                88          88
                89          89
                90          90
                91          91
                92          92
                93          93
                94          94
                95          95
                96          96
                97          97
                98          98
                99          99
               100         100
               101         101
               102         102
               103         103
               104         104
               105         105
               106         106
               107         107
               108         108
               109         109
               110         110
               111         111
               112         112
               113         113
               114         114
               115         115
               116         116
               117         117
               118         118
               119         119
               120         120
               121         121
               122         122
               123         123
               124         124
               125         125
               126         126
               127         127
               128         128
               129         129
               130         130
               131         131
               132         132
               133         133
               134         134
               135         135
               136         136
               137         137
               138         138
               139         139
               140         140
               141         141
               142         142
               143         143
               144         144
               145         145
               146         146
               147         147
               148         148
               149         149
               150         150
               151         151
               152         152
               153         153
               154         154
               155         155
               156         156
               157         157
               158         158
               159         159
               160         160
               161         161
               162         162
               163         163
               164         164
               165         165
               166         166
               167         167
               168         168
               169         169
               170         170
               171         171
               172         172
               173         173
               174         174
               175         175
               176         176
               177         177
               178         178
               179         179
               180         180
               181         181
               182         182
               183         183
               184         184
               185         185
               186         186
               187         187
               188         188
               189         189
               190         190
               191         191
               192         192
               193         193
               194         194
               195         195
               196         196
               197         197
               198         198
               199         199
               200         200
               201         201
               202         202
               203         203
               204         204
               205         205
               206         206
               207         207
               208         208
               209         209
               210         210
               211         211
               212         212
               213         213
               214         214
               215         215
               216         216
               217         217
               218         218
               219         219
               220         220
               221         221
               222         222
               223         223
               224         224
               225         225
               226         226
               227         227
               228         228
               229         229
               230         230
               231         231
               232         232
               233         233
               234         234
               235         235
               236         236
               237         237
               238         238
               239         239
               240         240
               241         241
               242         242
               243         243
               244         244
               245         245
               246         246
               247         247
               248         248
               249         249
               250         250
               251         251
               252         252
               253         253
               254         254
               255         255
               256         256
               257         257
               258         258
               259         259
               260         260
               261         261
               262         262
               263         263
               264         264

----------------------------------------------------------------------------------------

 
 
 KPOINTS: Automatic KPOINTS generated             

Automatic generation of k-mesh.
 Grid dimensions read from file:
 generate k-points for:    2    2    2

 Generating k-lattice:

  Cartesian coordinates                     Fractional coordinates (reciprocal lattice)
     0.025683700  0.000000000  0.000000000     0.500000000  0.000000000  0.000000000
     0.000000000  0.025683700  0.000000000     0.000000000  0.500000000  0.000000000
     0.000000000  0.000000000  0.025906396     0.000000000  0.000000000  0.500000000

  Length of vectors
     0.025683700  0.025683700  0.025906396

  Shift w.r.t. Gamma in fractional coordinates (k-lattice)
     0.000000000  0.000000000  0.000000000

 
 Subroutine IBZKPT returns following result:
 ===========================================
 
 Found      8 irreducible k-points:
 
 Following reciprocal coordinates:
            Coordinates               Weight
  0.000000  0.000000  0.000000      1.000000
  0.500000  0.000000  0.000000      1.000000
  0.000000  0.500000  0.000000      1.000000
  0.500000  0.500000  0.000000      1.000000
  0.000000  0.000000  0.500000      1.000000
  0.500000  0.000000  0.500000      1.000000
  0.000000  0.500000  0.500000      1.000000
  0.500000  0.500000  0.500000      1.000000
 
 Following cartesian coordinates:
            Coordinates               Weight
  0.000000  0.000000  0.000000      1.000000
  0.025684  0.000000  0.000000      1.000000
  0.000000  0.025684  0.000000      1.000000
  0.025684  0.025684  0.000000      1.000000
  0.000000  0.000000  0.025906      1.000000
  0.025684  0.000000  0.025906      1.000000
  0.000000  0.025684  0.025906      1.000000
  0.025684  0.025684  0.025906      1.000000
 
 -----------------------------------------------------------------------------
|                                                                             |
|           W    W    AA    RRRRR   N    N  II  N    N   GGGG   !!!           |
|           W    W   A  A   R    R  NN   N  II  NN   N  G    G  !!!           |
|           W    W  A    A  R    R  N N  N  II  N N  N  G       !!!           |
|           W WW W  AAAAAA  RRRRR   N  N N  II  N  N N  G  GGG   !            |
|           WW  WW  A    A  R   R   N   NN  II  N   NN  G    G                |
|           W    W  A    A  R    R  N    N  II  N    N   GGGG   !!!           |
|                                                                             |
|     The number of bands has been changed from the values supplied in        |
|     the INCAR file. This is a result of running the parallel version.       |
|     The orbitals not found in the WAVECAR file will be initialized with     |
|     random numbers, which is usually adequate. For correlated               |
|     calculations, however, you should redo the groundstate calculation.     |
|     I found NBANDS = 634. Now, NBANDS = 636.                                |
|                                                                             |
 -----------------------------------------------------------------------------



--------------------------------------------------------------------------------------------------------




 Dimension of arrays:
   k-points           NKPTS =      8   k-points in BZ     NKDIM =      8   number of bands    NBANDS=    636
   number of dos      NEDOS =    301   number of ions     NIONS =    264
   non local maximal  LDIM  =      5   non local SUM 2l+1 LMDIM =     13
   total plane-waves  NPLWV = ******
   max r-space proj   IRMAX =   4555   max aug-charges    IRDMAX= 210771
   dimension x,y,z NGX =   126 NGY =  126 NGZ =  126
   dimension x,y,z NGXF=   252 NGYF=  252 NGZF=  252
   support grid    NGXF=   504 NGYF=  504 NGZF=  504
   ions per type =             108 156
   NGX,Y,Z   is equivalent  to a cutoff of  10.76, 10.76, 10.85 a.u.
   NGXF,Y,Z  is equivalent  to a cutoff of  21.52, 21.52, 21.71 a.u.

 SYSTEM =  Si and Ge interface calculation         
 POSCAR =  Sn+Si                                   

 Startparameter for this run:
   NWRITE =      2    write-flag & timer
   PREC   = normal    normal or accurate (medium, high low for compatibility)
   ISTART =      0    job   : 0-new  1-cont  2-samecut
   ICHARG =      2    charge: 1-file 2-atom 10-const
   ISPIN  =      2    spin polarized calculation?
   LNONCOLLINEAR =      F non collinear calculations
   LSORBIT =      F    spin-orbit coupling
   INIWAV =      1    electr: 0-lowe 1-rand  2-diag
   LASPH  =      T    aspherical Exc in radial PAW
 Electronic Relaxation 1
   ENCUT  =  700.0 eV  51.45 Ry    7.17 a.u.  42.00 42.00 41.64*2*pi/ulx,y,z
   ENINI  =  700.0     initial cutoff
   ENAUG  =  900.0 eV  augmentation charge cutoff
   NELM   =    100;   NELMIN=  2; NELMDL= -5     # of ELM steps 
   EDIFF  = 0.1E-06   stopping-criterion for ELM
   LREAL  =      T    real-space projection
   NLSPLINE    = F    spline interpolate recip. space projectors
   LCOMPAT=      F    compatible to vasp.4.4
   GGA_COMPAT  = T    GGA compatible to vasp.4.4-vasp.4.6
   LMAXPAW     = -100 max onsite density
   LMAXMIX     =    6 max onsite mixed and CHGCAR
   VOSKOWN=      0    Vosko Wilk Nusair interpolation
   ROPT   =   -0.00050  -0.00050
 Ionic relaxation
   EDIFFG = 0.1E-05   stopping-criterion for IOM
   NSW    =      0    number of steps for IOM
   NBLOCK =      1;   KBLOCK =      1    inner block; outer block 
   IBRION =     -1    ionic relax: 0-MD 1-quasi-New 2-CG
   NFREE  =      0    steps in history (QN), initial steepest desc. (CG)
   ISIF   =      2    stress and relaxation
   IWAVPR =     10    prediction:  0-non 1-charg 2-wave 3-comb
   ISYM   =      2    0-nonsym 1-usesym 2-fastsym
   LCORR  =      T    Harris-Foulkes like correction to forces

   POTIM  = 0.5000    time-step for ionic-motion
   TEIN   =    0.0    initial temperature
   TEBEG  =    0.0;   TEEND  =   0.0 temperature during run
   SMASS  =  -3.00    Nose mass-parameter (am)
   estimated Nose-frequenzy (Omega)   =  0.10E-29 period in steps = 0.13E+47 mass=  -0.866E-26a.u.
   SCALEE = 1.0000    scale energy and forces
   NPACO  =    256;   APACO  = 10.0  distance and # of slots for P.C.
   PSTRESS=    0.0 pullay stress

  Mass of Ions in am
   POMASS = 118.71 28.09
  Ionic Valenz
   ZVAL   =   4.00  4.00
  Atomic Wigner-Seitz radii
   RWIGS  =  -1.00 -1.00
  virtual crystal weights 
   VCA    =   1.00  1.00
   NELECT =    1056.0000    total number of electrons
   NUPDOWN=       1.0000    fix difference up-down

 DOS related values:
   EMIN   =  10.00;   EMAX   =-10.00  energy-range for DOS
   EFERMI =   0.00;   METHOD = LEGACY      
   ISMEAR =     0;   SIGMA  =   0.01  broadening in eV -4-tet -1-fermi 0-gaus

 Electronic relaxation 2 (details)
   IALGO  =     38    algorithm
   LDIAG  =      T    sub-space diagonalisation (order eigenvalues)
   LSUBROT=      F    optimize rotation matrix (better conditioning)
   TURBO    =      0    0=normal 1=particle mesh
   IRESTART =      0    0=no restart 2=restart with 2 vectors
   NREBOOT  =      0    no. of reboots
   NMIN     =      0    reboot dimension
   EREF     =   0.00    reference energy to select bands
   IMIX   =      4    mixing-type and parameters
     AMIX     =   0.60;   BMIX     =  1.00
     AMIX_MAG =   2.40;   BMIX_MAG =  1.00
     AMIN     =   0.10
     WC   =   100.;   INIMIX=   1;  MIXPRE=   1;  MAXMIX= -45

 Intra band minimization:
   WEIMIN = 0.0000     energy-eigenvalue tresh-hold
   EBREAK =  0.39E-10  absolut break condition
   DEPER  =   0.30     relativ break condition  

   TIME   =   0.40     timestep for ELM

  volume/ion in A,a.u.               =      27.71       186.97
  Fermi-wavevector in a.u.,A,eV,Ry     =   0.858816  1.622927 10.035183  0.737565
  Thomas-Fermi vector in A             =   1.976078
 
 Write flags
   LWAVE        =      F    write WAVECAR
   LDOWNSAMPLE  =      F    k-point downsampling of WAVECAR
   LCHARG       =      T    write CHGCAR
   LVTOT        =      F    write LOCPOT, total local potential
   LVHAR        =      T    write LOCPOT, Hartree potential only
   WRT_POTENTIAL=  hartree ionic  ! write potential to hdf5 file
   LELF         =      F    write electronic localiz. function (ELF)
   LORBIT       =      0    0 simple, 1 ext, 2 COOP (PROOUT), +10 PAW based schemes


 Dipole corrections
   LMONO      =      F    monopole corrections only (constant potential shift)
   LDIPOL     =      F    correct potential (dipole corrections)
   IDIPOL     =      0    1-x, 2-y, 3-z, 4-all directions 
   EPSILON    =  1.0000000 bulk dielectric constant
   LVACPOTAV  =      F  vacuum potentials using an averaging scheme for the charge density
   VACPOTFLAT =  0.1000000 required flatness to determine vacuum potential
 Exchange correlation treatment:
   GGA     = PE    functional components
   XC_C    = 1    coefficients multiplying the functional components
   LIBXC   =     F    Libxc                    
   VOSKOWN =     0    Vosko Wilk Nusair interpolation
   LHFCALC =     F    Hartree Fock is set to
   LHFONE  =     F    Hartree Fock one center treatment
   AEXX    =    0.0000 exact exchange contribution

 Parameters of functionals:
   PE:
     No parameter
 
 Van der Waals corrections
   IVDW    =     0    specifies the selected vdW correction

 Linear response parameters
   LEPSILON=     F    determine dielectric tensor
   LRPA    =     F    only Hartree local field effects (RPA)
   LNABLA  =     F    use nabla operator in PAW spheres
   LVEL    =     F    velocity operator in full k-point grid
   CSHIFT  =0.1000    complex shift for real part using Kramers Kronig
   OMEGAMAX=  -1.0    maximum frequency
   DEG_THRESHOLD= 0.2000000E-02 threshold for treating states as degnerate
   RTIME   =   -0.100 relaxation time in fs
  (WPLASMAI=    0.000 imaginary part of plasma frequency in eV, 0.658/RTIME)
   DFIELD  = 0.0000000 0.0000000 0.0000000 field for delta impulse in time
 
  Optional k-point grid parameters
   LKPOINTS_OPT  =     F    use optional k-point grid
   KPOINTS_OPT_MODE=     1    mode for optional k-point grid
 
 Orbital magnetization related:
   ORBITALMAG=     F  switch on orbital magnetization
   LCHIMAG   =     F  perturbation theory with respect to B field
   DQ        =  0.001000  dq finite difference perturbation B field
   LLRAUG    =     F  two centre corrections for induced B field
   LBONE     =     F  B-component reconstruction in AE one-centre
   LVGVCALC  =     T  calculate vGv susceptibility
   LVGVAPPL  =     F  apply vGv susceptibility instead of pGv for G=0

 Random number generation:
   RANDOM_GENERATOR = DEFAULT
   PCG_SEED         = not used


--------------------------------------------------------------------------------------------------------


 Static calculation
 charge density and potential will be updated during run
 spin polarized calculation
 Variant of blocked Davidson
 Davidson routine will perform the subspace rotation
 perform sub-space diagonalisation
    after iterative eigenvector-optimisation
 modified Broyden-mixing scheme, WC =      100.0
 initial mixing is a Kerker type mixing with AMIX =  0.6000 and BMIX =      1.0000
 Hartree-type preconditioning will be used
 using additional bands          108
 real space projection scheme for non local part
 use partial core corrections
 calculate Harris-corrections to forces 
   (improved forces if not selfconsistent)
 use gradient corrections 
 use of overlap-Matrix (Vanderbilt PP)
 Gauss-broadening in eV      SIGMA  =   0.01


--------------------------------------------------------------------------------------------------------


  energy-cutoff  :      700.00
  volume of cell :     7314.55
      direct lattice vectors                 reciprocal lattice vectors
    19.467599869  0.000000000  0.000000000     0.051367401  0.000000000  0.000000000
     0.000000000 19.467599869  0.000000000     0.000000000  0.051367401  0.000000000
     0.000000000  0.000000000 19.300252914     0.000000000  0.000000000  0.051812793

  length of vectors
    19.467599869 19.467599869 19.300252914     0.051367401  0.051367401  0.051812793


 
 k-points in units of 2pi/SCALE and weight: Automatic KPOINTS generated             
   0.00000000  0.00000000  0.00000000       0.125
   0.02568370  0.00000000  0.00000000       0.125
   0.00000000  0.02568370  0.00000000       0.125
   0.02568370  0.02568370  0.00000000       0.125
   0.00000000  0.00000000  0.02590640       0.125
   0.02568370  0.00000000  0.02590640       0.125
   0.00000000  0.02568370  0.02590640       0.125
   0.02568370  0.02568370  0.02590640       0.125
 
 k-points in reciprocal lattice and weights: Automatic KPOINTS generated             
   0.00000000  0.00000000  0.00000000       0.125
   0.50000000  0.00000000  0.00000000       0.125
   0.00000000  0.50000000  0.00000000       0.125
   0.50000000  0.50000000  0.00000000       0.125
   0.00000000  0.00000000  0.50000000       0.125
   0.50000000  0.00000000  0.50000000       0.125
   0.00000000  0.50000000  0.50000000       0.125
   0.50000000  0.50000000  0.50000000       0.125
 
 position of ions in fractional coordinates (direct lattice) 
   0.09244316  0.98905855  0.88601178
   0.11167400  0.89290476  0.81566292
   0.72705871  0.81598151  0.53426754
   0.99503511  0.33333334  0.00000000
   0.82321233  0.33521238  0.88601178
   0.66170174  0.33333334  0.33622354
   0.28475085  0.02752006  0.88601178
   0.82836843  0.00000000  0.16811179
   0.11167413  0.89290458  0.53426754
   0.74628931  0.71982777  0.88601178
   0.16170174  0.66666669  0.16811179
   0.99503511  0.66666669  0.33622354
   0.24628940  0.21982789  0.88601178
   0.16170174  0.33333334  0.16811179
   0.99503511  0.33333334  0.33622354
   0.32836846  0.00000000  0.00000000
   0.16170174  0.00000000  0.16811179
   0.99503511  0.00000000  0.33622354
   0.66170180  0.66666669  0.00000000
   0.49503511  0.66666669  0.16811179
   0.32836846  0.66666669  0.33622354
   0.66170180  0.33333334  0.00000000
   0.49503511  0.33333334  0.16811179
   0.32836846  0.33333334  0.33622354
   0.66170180  0.00000000  0.00000000
   0.78475076  0.52752006  0.88601178
   0.32836846  0.00000000  0.33622354
   0.07836843  0.91666675  0.08405589
   0.91170180  0.91666675  0.25216761
   0.84244347  0.23905837  0.53426754
   0.43859702  0.25828934  0.88601178
   0.91170180  0.58333343  0.25216761
   0.74503505  0.58333343  0.42027944
   0.07836843  0.25000000  0.08405589
   0.91170180  0.25000000  0.25216761
   0.03475106  0.27751997  0.53426754
   0.41170177  0.91666675  0.08405589
   0.24503510  0.91666675  0.25216761
   0.49628958  0.96982771  0.53426754
   0.47705862  0.06598163  0.88601178
   0.24503510  0.58333343  0.25216761
   0.99628961  0.46982759  0.53426754
   0.41170177  0.25000000  0.08405589
   0.53475112  0.77751988  0.53426754
   0.07836838  0.25000000  0.42027944
   0.90013546  0.95059699  0.88601178
   0.86167425  0.14290453  0.60461640
   0.41170180  0.91666675  0.42027944
   0.74503517  0.58333343  0.08405589
   0.57321262  0.58521235  0.53426754
   0.41170180  0.58333343  0.42027944
   0.86167389  0.14290464  0.88601178
   0.57836855  0.25000000  0.25216761
   0.41170180  0.25000000  0.42027944
   0.16170177  0.83333331  0.00000000
   0.99503505  0.83333331  0.16811179
   0.18859723  0.50828922  0.53426754
   0.13090470  0.79675090  0.88601178
   0.66936624  0.10444319  0.88601178
   0.82836843  0.50000000  0.33622354
   0.16170177  0.16666667  0.00000000
   0.99503505  0.16666667  0.16811179
   0.82836843  0.16666667  0.33622354
   0.49503511  0.83333331  0.00000000
   0.01552010  0.37367386  0.88601178
   0.22705877  0.31598148  0.53426754
   0.49503511  0.50000000  0.00000000
   0.59244329  0.48905852  0.88601178
   0.16170175  0.50000000  0.33622354
   0.49503511  0.16666667  0.00000000
   0.32836843  0.16666667  0.16811179
   0.16170175  0.16666667  0.33622354
   0.82836855  0.83333331  0.00000000
   0.20782784  0.41213542  0.88601178
   0.49503520  0.83333331  0.33622354
   0.72705859  0.81598169  0.81566292
   0.66170186  0.50000000  0.16811179
   0.61167419  0.39290458  0.53426754
   0.82836855  0.16666667  0.00000000
   0.66170186  0.16666667  0.16811179
   0.65013564  0.20059687  0.53426754
   0.24503510  0.75000006  0.08405589
   0.34244341  0.73905850  0.53426754
   0.88090491  0.04675078  0.53426754
   0.24503510  0.41666672  0.08405589
   0.07836843  0.41666672  0.25216761
   0.91170174  0.41666672  0.42027944
   0.24503510  0.08333334  0.08405589
   0.76552028  0.62367380  0.53426754
   0.91170174  0.08333334  0.42027944
   0.57836848  0.75000006  0.08405589
   0.41170186  0.75000006  0.25216761
   0.24503513  0.75000006  0.42027944
   0.57836848  0.41666672  0.08405589
   0.41170186  0.41666672  0.25216761
   0.24503513  0.41666672  0.42027944
   0.57836848  0.08333334  0.08405589
   0.95782804  0.66213542  0.53426754
   0.24503513  0.08333334  0.42027944
   0.36167395  0.64290476  0.88601178
   0.41936651  0.35444304  0.53426754
   0.47705883  0.06598151  0.60461640
   0.97705853  0.56598157  0.88601178
   0.74503505  0.41666672  0.25216761
   0.57836837  0.41666672  0.42027944
   0.91170174  0.08333334  0.08405589
   0.74503505  0.08333334  0.25216761
   0.57836837  0.08333334  0.42027944
   0.74503505  0.91666675  0.42027944
   0.72705877  0.31598151  0.67496520
   0.61167407  0.39290467  0.81566292
   0.07836838  0.58333343  0.42027944
   0.88090491  0.54675066  0.67496520
   0.76552022  0.62367386  0.81566292
   0.45782804  0.16213530  0.53426754
   0.34244335  0.23905843  0.67496520
   0.22705865  0.31598157  0.81566292
   0.49503520  0.50000000  0.33622354
   0.49628949  0.46982771  0.67496520
   0.38090479  0.54675084  0.81566292
   0.07836843  0.08333334  0.25216761
   0.65013558  0.70059693  0.67496520
   0.53475088  0.77752006  0.81566292
   0.91936642  0.85444313  0.53426754
   0.80398172  0.93136627  0.67496520
   0.68859702  0.00828934  0.81566292
   0.07321262  0.08521221  0.53426754
   0.95782787  0.16213533  0.67496520
   0.84244317  0.23905846  0.81566292
   0.16170175  0.83333331  0.33622354
   0.11167407  0.39290461  0.67496520
   0.99628931  0.46982774  0.81566292
   0.38090494  0.54675072  0.53426754
   0.26552022  0.62367386  0.67496520
   0.15013552  0.70059699  0.81566292
   0.24503510  0.25000000  0.25216761
   0.41936642  0.85444301  0.67496520
   0.30398169  0.93136615  0.81566292
   0.68859720  0.00828922  0.53426754
   0.57321250  0.08521234  0.67496520
   0.45782784  0.16213548  0.81566292
   0.15013567  0.70059687  0.53426754
   0.03475094  0.77752000  0.67496520
   0.91936624  0.85444319  0.81566292
   0.30398187  0.93136609  0.53426754
   0.18859717  0.00828910  0.67496520
   0.07321238  0.08521234  0.81566292
   0.05398178  0.18136609  0.60461640
   0.93859708  0.25828922  0.74531406
   0.82836843  0.33333334  0.16811179
   0.66936642  0.10444307  0.60461640
   0.55398178  0.18136621  0.74531406
   0.07836843  0.58333343  0.08405589
   0.82321268  0.33521223  0.60461640
   0.70782799  0.41213539  0.74531406
   0.32836843  0.50000000  0.16811179
   0.97705877  0.56598145  0.60461640
   0.86167407  0.64290464  0.74531406
   0.32836846  0.66666669  0.00000000
   0.43859726  0.25828916  0.60461640
   0.32321256  0.33521229  0.74531406
   0.66170186  0.83333331  0.16811179
   0.59244335  0.48905846  0.60461640
   0.47705868  0.56598157  0.74531406
   0.91170174  0.75000006  0.08405589
   0.74628949  0.71982765  0.60461640
   0.63090479  0.79675078  0.74531406
   0.51552010  0.87367392  0.88601178
   0.90013564  0.95059693  0.60461640
   0.78475094  0.02752006  0.74531406
   0.99503505  0.50000000  0.16811179
   0.20782799  0.41213533  0.60461640
   0.09244330  0.48905843  0.74531406
   0.91170174  0.41666672  0.08405589
   0.36167413  0.64290464  0.60461640
   0.24628943  0.71982771  0.74531406
   0.16170177  0.50000000  0.00000000
   0.51552028  0.87367380  0.60461640
   0.40013558  0.95059693  0.74531406
   0.99503511  0.00000000  0.00000000
   0.13090490  0.79675072  0.60461640
   0.01552022  0.87367392  0.74531406
   0.74503517  0.91666675  0.08405589
   0.28475106  0.02751994  0.60461640
   0.16936633  0.10444307  0.74531406
   0.05398166  0.18136621  0.88601178
   0.74503505  0.25000000  0.42027944
   0.91936636  0.35444310  0.67496520
   0.80398166  0.43136627  0.81566292
   0.49503520  0.16666667  0.33622354
   0.53475094  0.27752000  0.67496520
   0.41936627  0.35444313  0.81566292
   0.80398190  0.43136618  0.53426754
   0.68859714  0.50828928  0.67496520
   0.57321250  0.58521247  0.81566292
   0.41170186  0.08333334  0.25216761
   0.84244329  0.73905855  0.67496520
   0.82836855  0.50000000  0.00000000
   0.26552033  0.12367377  0.53426754
   0.15013564  0.20059690  0.67496520
   0.03475094  0.27752003  0.81566292
   0.74503505  0.75000006  0.25216761
   0.30398181  0.43136618  0.67496520
   0.18859708  0.50828928  0.81566292
   0.57836855  0.58333343  0.25216761
   0.45782793  0.66213548  0.67496520
   0.34244323  0.73905861  0.81566292
   0.66170174  0.66666669  0.33622354
   0.61167401  0.89290464  0.67496520
   0.49628934  0.96982777  0.81566292
   0.91170174  0.75000006  0.42027944
   0.76552022  0.12367391  0.67496520
   0.65013552  0.20059705  0.81566292
   0.82836843  0.83333331  0.33622354
   0.07321250  0.58521235  0.67496520
   0.95782781  0.66213548  0.81566292
   0.07836843  0.75000006  0.25216761
   0.22705871  0.81598163  0.67496520
   0.82836843  0.66666669  0.16811179
   0.07836838  0.91666675  0.42027944
   0.38090485  0.04675078  0.67496520
   0.26552015  0.12367391  0.81566292
   0.66170174  0.00000000  0.33622354
   0.99628943  0.96982771  0.67496520
   0.88090467  0.04675078  0.81566292
   0.57836855  0.91666675  0.25216761
   0.74628949  0.21982768  0.74531406
   0.63090479  0.29675081  0.88601178
   0.01552022  0.37367377  0.60461640
   0.90013552  0.45059693  0.74531406
   0.49503511  0.00000000  0.16811179
   0.63090497  0.29675070  0.60461640
   0.51552028  0.37367383  0.74531406
   0.40013558  0.45059699  0.88601178
   0.78475118  0.52751994  0.60461640
   0.66936648  0.60444307  0.74531406
   0.55398178  0.68136621  0.88601178
   0.93859738  0.75828922  0.60461640
   0.82321268  0.83521235  0.74531406
   0.70782793  0.91213548  0.88601178
   0.24628955  0.21982756  0.60461640
   0.13090484  0.29675070  0.74531406
   0.32836843  0.83333331  0.16811179
   0.40013573  0.45059687  0.60461640
   0.28475103  0.52752000  0.74531406
   0.16936630  0.60444313  0.88601178
   0.55398184  0.68136609  0.60461640
   0.43859717  0.75828922  0.74531406
   0.32321242  0.83521235  0.88601178
   0.70782804  0.91213542  0.60461640
   0.59244335  0.98905855  0.74531406
   0.41170177  0.58333343  0.08405589
   0.16936642  0.60444301  0.60461640
   0.05398178  0.68136615  0.74531406
   0.93859696  0.75828928  0.88601178
   0.32321259  0.83521223  0.60461640
   0.20782790  0.91213536  0.74531406
   0.99503511  0.66666669  0.00000000
   0.57836837  0.75000006  0.42027944
   0.36167413  0.14290476  0.74531406
   0.32836846  0.33333334  0.00000000
   0.09244336  0.98905837  0.60461640
   0.97705859  0.06598151  0.74531406
   0.74503517  0.25000000  0.08405589
 
 position of ions in cartesian coordinates  (Angst):
   1.79964647 19.25459618 17.10025142
   2.17402481 17.38271255 15.74250065
  14.15408803 15.88520148 10.31149874
  19.37094542  6.48920014  0.00000000
  16.02596817  6.52578048 17.10025142
  12.88174469  6.48920014  6.48919942
   5.54341559  0.53574954 17.10025142
  16.12634504  0.00000000  3.24459999
   2.17402728 17.38270908 10.31149874
  14.52846173 14.01331902 17.10025142
   3.14794475 12.97840031  3.24459999
  19.37094542 12.97840031  6.48919942
   4.79466353  4.27952140 17.10025142
   3.14794475  6.48920014  3.24459999
  19.37094542  6.48920014  6.48919942
   6.39254569  0.00000000  0.00000000
   3.14794475  0.00000000  3.24459999
  19.37094542  0.00000000  6.48919942
  12.88174584 12.97840031  0.00000000
   9.63714548 12.97840031  3.24459999
   6.39254569 12.97840031  6.48919942
  12.88174584  6.48920014  0.00000000
   9.63714548  6.48920014  3.24459999
   6.39254569  6.48920014  6.48919942
  12.88174584  0.00000000  0.00000000
  15.27721379 10.26954947 17.10025142
   6.39254569  0.00000000  6.48919942
   1.52564530 17.84530142  1.62229999
  17.74864580 17.84530142  4.86689869
  16.40035231  4.65389279 10.31149874
   8.53843135  5.02827346 17.10025142
  17.74864580 11.35610186  4.86689869
  14.50404428 11.35610186  8.11149954
   1.52564530  4.86689997  1.62229999
  17.74864580  4.86689997  4.86689869
   0.67651969  5.40264775 10.31149874
   8.01484530 17.84530142  1.62229999
   4.77024522 17.84530142  4.86689869
   9.66156698 18.88021784 10.31149874
   9.28718631  1.28450391 17.10025142
   4.77024522 11.35610186  4.86689869
  19.39536750  9.14641557 10.31149874
   8.01484530  4.86689997  1.62229999
  10.41032078 15.13644595 10.31149874
   1.52564428  4.86689997  8.11149954
  17.52347692 18.50584180 17.10025142
  16.77472950  2.78200831 11.66924951
   8.01484587 17.84530142  8.11149954
  14.50404662 11.35610186  1.62229999
  11.15907400 11.39267987 10.31149874
   8.01484587 11.35610186  8.11149954
  16.77472255  2.78201033 17.10025142
  11.25944741  4.86689997  4.86689869
   8.01484587  4.86689997  8.11149954
   3.14794534 16.22299949  0.00000000
  19.37094425 16.22299949  3.24459999
   3.67153545  9.89517111 10.31149874
   2.54840040 15.51082777 17.10025142
  13.03095415  2.03325813 17.10025142
  16.12634504  9.73379993  6.48919942
   3.14794534  3.24460008  0.00000000
  19.37094425  3.24460008  3.24459999
  16.12634504  3.24460008  6.48919942
   9.63714548 16.22299949  0.00000000
   0.30213902  7.27453311 17.10025142
   4.42028924  6.15140096 10.31149874
   9.63714548  9.73379993  0.00000000
  11.53344886  9.52079566 17.10025142
   3.14794504  9.73379993  6.48919942
   9.63714548  3.24460008  0.00000000
   6.39254511  3.24460008  3.24459999
   3.14794504  3.24460008  6.48919942
  16.12634738 16.22299949  0.00000000
   4.04590915  8.02328749 17.10025142
   9.63714721 16.22299949  6.48919942
  14.15408569 15.88520496 15.74250065
  12.88174700  9.73379993  3.24459999
  11.90782838  7.64890915 10.31149874
  16.12634738  3.24460008  0.00000000
  12.88174700  3.24460008  3.24459999
  12.65658042  3.90513958 10.31149874
   4.77024522 14.60070107  1.62229999
   6.66655123 14.38769506 10.31149874
  17.14910437  0.91012556 10.31149874
   4.77024522  8.11150091  1.62229999
   1.52564530  8.11150091  4.86689869
  17.74864465  8.11150091  8.11149954
   4.77024522  1.62230018  1.62229999
  14.90284241 12.14143193 10.31149874
  17.74864465  1.62230018  8.11149954
  11.25944624 14.60070107  1.62229999
   8.01484704 14.60070107  4.86689869
   4.77024581 14.60070107  8.11149954
  11.25944624  8.11150091  1.62229999
   8.01484704  8.11150091  4.86689869
   4.77024581  8.11150091  8.11149954
  11.25944624  1.62230018  1.62229999
  18.64661312 12.89018745 10.31149874
   4.77024581  1.62230018  8.11149954
   7.04092376 12.51581258 17.10025142
   8.16405940  6.90015534 10.31149874
   9.28719038  1.28450158 11.66924951
[...]
     11.25945      4.86690      4.86690        -0.566035     -0.748738      0.493778
      8.01485      4.86690      8.11150         0.679077     -0.924511      0.333376
      3.14795     16.22300      0.00000         1.634353      1.197516      3.980281
     19.37094     16.22300      3.24460         0.077349     -1.352386      0.102010
      3.67154      9.89517     10.31150        -0.093649      0.054416     -3.342304
      2.54840     15.51083     17.10025        -0.680172     -4.677632      0.939959
     13.03095      2.03326     17.10025        -0.086944     -0.394183      3.431702
     16.12635      9.73380      6.48920         0.154871      0.083075      0.054911
      3.14795      3.24460      0.00000        -0.567651      0.385807     -1.257923
     19.37094      3.24460      3.24460         0.576934     -0.648574      0.593558
     16.12635      3.24460      6.48920        -0.831029      0.495989      0.703779
      9.63715     16.22300      0.00000        -0.726281     -0.454035      1.222987
      0.30214      7.27453     17.10025         1.060359      1.566367     -1.813680
      4.42029      6.15140     10.31150         0.092788      0.312013     -3.480670
      9.63715      9.73380      0.00000        -0.962608      0.138316     -0.643562
     11.53345      9.52080     17.10025         0.360489      0.579092      3.256824
      3.14795      9.73380      6.48920        -0.778955      0.525293      0.226765
      9.63715      3.24460      0.00000         0.125695     -0.046437     -0.553306
      6.39255      3.24460      3.24460        -0.012192      0.112281      1.351533
      3.14795      3.24460      6.48920         0.139651     -0.040967     -0.996428
     16.12635     16.22300      0.00000         0.127164     -0.091111     -0.231318
      4.04591      8.02329     17.10025         0.026697      0.613957      3.644865
      9.63715     16.22300      6.48920         1.476876     -0.161304      0.009308
     14.15409     15.88520     15.74250        -1.050113      3.030459     -1.829762
     12.88175      9.73380      3.24460        -0.538181      0.616913      0.628204
     11.90783      7.64891     10.31150         1.853914     -0.782999      2.813865
     16.12635      3.24460      0.00000        -2.148926      1.584868      5.998976
     12.88175      3.24460      3.24460         0.655605      0.496922     -0.466628
     12.65658      3.90514     10.31150         0.092557     -0.337301     -4.239259
      4.77025     14.60070      1.62230         1.039297      0.147316     -0.184200
      6.66655     14.38770     10.31150         0.324046      0.570697     -3.262184
     17.14910      0.91013     10.31150        -0.680762     -4.674198     -0.944250
      4.77025      8.11150      1.62230         0.723873      0.739831     -0.374302
      1.52565      8.11150      4.86690        -0.686407      0.730618     -0.752133
     17.74864      8.11150      8.11150        -0.575696      0.382659      1.260538
      4.77025      1.62230      1.62230         0.182028     -0.123827      0.047069
     14.90284     12.14143     10.31150         1.049842      1.597212      1.826650
     17.74864      1.62230      8.11150         1.634708      1.202648     -3.998587
     11.25945     14.60070      1.62230         0.849236      0.697322      0.464222
      8.01485     14.60070      4.86690        -0.545718      0.635453     -0.625563
      4.77025     14.60070      8.11150        -0.959918      0.137715      0.646161
     11.25945      8.11150      1.62230        -0.256964     -0.108930      0.014016
      8.01485      8.11150      4.86690         0.042387      1.198673     -0.175413
      4.77025      8.11150      8.11150         0.104309     -0.055833      0.555618
     11.25945      1.62230      1.62230        -0.677473     -0.621598      0.831541
     18.64661     12.89019     10.31150        -0.000586      0.605421     -3.613926
      4.77025      1.62230      8.11150        -0.732732     -0.451881     -1.233173
      7.04092     12.51581     17.10025         0.674549     -0.076428      1.045080
      8.16406      6.90016     10.31150        -0.085389     -0.393573     -3.440344
      9.28719      1.28450     11.66925        -1.051060      3.017618      1.839838
     19.02098     11.01830     17.10025         0.167252      0.894829      3.995867
     14.50404      8.11150      4.86690         0.571317     -0.644076     -0.611103
     11.25944      8.11150      8.11150        -2.152560      1.594056     -6.005161
     17.74864      1.62230      1.62230         0.385478     -0.451825     -0.578100
     14.50404      1.62230      4.86690        -0.530262     -0.715068      0.513107
     11.25944      1.62230      8.11150         0.117237     -0.101168      0.239213
     14.50404     17.84530      8.11150        -0.084004     -0.048591     -0.380555
     14.15409      6.15140     13.02700         0.044983      0.053301      0.100767
     11.90783      7.64891     15.74250         0.211027     -2.401185     -1.099609
      1.52564     11.35610      8.11150         0.058672     -0.028441      0.463170
     17.14910     10.64392     13.02700        -0.064573      0.017435      0.160303
     14.90284     12.14143     15.74250         0.193679      0.011421     -2.529637
      8.91281      3.15639     10.31150        -0.497459      3.027305     -2.069753
      6.66655      4.65389     13.02700         0.096904     -0.123931      0.090828
      4.42029      6.15140     15.74250        -0.388730     -0.097950     -2.737447
      9.63715      9.73380      6.48920         0.325189      0.399502     -0.188423
      9.66157      9.14642     13.02700         0.033328      0.023728      0.166260
      7.41530     10.64393     15.74250         0.508542     -2.322303     -0.987863
      1.52565      1.62230      4.86690         0.010274      0.008386      0.004772
     12.65658     13.63894     13.02700        -0.050763      0.036275      0.132405
     10.41032     15.13645     15.74250         0.352973      0.076868      0.328052
     17.89786     16.63396     10.31150        -0.170802     -1.135060     -0.838149
     15.65159     18.13147     13.02700        -0.007528      0.055251      0.028917
     13.40533      0.16137     15.74250         0.666151     -2.383692     -1.549602
      1.42527      1.65888     10.31150         0.031221      0.113883     -0.768310
     18.64661      3.15639     13.02700         2.321435      0.565350      1.718038
     16.40035      4.65389     15.74250        -0.150324     -0.084543     -3.049558
      3.14795     16.22300      6.48920        -1.079876      0.173077      0.057143
      2.17403      7.64891     13.02700         0.095473     -0.045803      0.160098
     19.39536      9.14642     15.74250        -0.150896     -0.158565     -2.461682
      7.41531     10.64392     10.31150        -0.724711     -0.350860      1.758196
      5.16904     12.14143     13.02700        -0.012243     -0.028551      0.124330
      2.92278     13.63894     15.74250         0.694914     -2.231957     -0.938812
      4.77025      4.86690      4.86690        -0.087394      0.080728     -0.099939
      8.16406     16.63395     13.02700        -0.069740     -0.048372      0.097763
      5.91779     18.13146     15.74250         0.561315     -2.421433     -1.553489
     13.40533      0.16137     10.31150         0.089482     -0.477808     -0.774496
     11.15907      1.65888     13.02700         2.301759      0.533530      1.642570
      8.91281      3.15639     15.74250        -0.253388     -0.061669     -3.291477
      2.92278     13.63894     10.31150        -0.022280     -0.306550     -1.065142
      0.67652     15.13645     13.02700        -0.130286      0.041585      0.046292
     17.89785     16.63396     15.74250         0.894754     -2.313246     -1.413987
      5.91780     18.13146     10.31150        -0.000844     -0.571448     -0.711504
      3.67153      0.16137     13.02700         0.007125     -0.069663     -0.056509
      1.42527      1.65888     15.74250        -0.469561      2.440357     -1.270487
      1.05090      3.53076     11.66925         0.569333     -2.415105      1.563712
     18.27223      5.02827     14.38475         0.039495     -0.076910     -0.010188
     16.12635      6.48920      3.24460        -0.004025      0.047030     -0.852272
     13.03096      2.03326     11.66925         0.900817     -2.319652      1.406438
     10.78470      3.53076     14.38475        -0.041885      0.083065     -0.075847
      1.52565     11.35610      1.62230        -0.554099     -0.426912     -0.229053
     16.02598      6.52578     11.66925        -0.478751      2.443881      1.275693
     13.77971      8.02329     14.38475         0.017319      0.055302     -0.049180
      6.39255      9.73380      3.24460         0.483883      0.329320     -0.278357
     19.02099     11.01830     11.66925        -0.370231     -0.107275      2.724086
     16.77473     12.51581     14.38475         0.101625     -0.023688     -0.095731
      6.39255     12.97840      0.00000         0.030443     -0.334987      3.333965
      8.53844      5.02827     11.66925         0.661560     -2.368591      1.574805
      6.29217      6.52578     14.38475         0.018963      0.027195     -0.022880
     12.88175     16.22300      3.24460         0.334369      0.531216      0.521625
     11.53345      9.52079     11.66925        -0.136554     -0.083869      3.050188
      9.28719     11.01830     14.38475         0.009734      0.050869     -0.081628
     17.74864     14.60070      1.62230        -0.092811     -0.952449      0.282028
     14.52847     14.01332     11.66925        -0.152012     -0.141301      2.464843
     12.28220     15.51083     14.38475        -2.388909     -0.366311     -1.767252
     10.03594     17.00833     17.10025         0.613760      0.260470     -1.927469
     17.52348     18.50584     11.66925         0.678513     -2.199673      0.931376
     15.27722      0.53575     14.38475        -0.127045     -0.008609     -0.087244
     19.37094      9.73380      3.24460        -0.015981      0.065408     -0.724813
      4.04591      8.02329     11.66925        -0.249385     -0.052086      3.288399
      1.79965      9.52079     14.38475         0.090369     -0.053071     -0.108967
     17.74864      8.11150      1.62230        -0.141414      0.239880      0.312671
      7.04093     12.51581     11.66925         0.216561     -2.403540      1.100288
      4.79466     14.01332     14.38475         0.029203     -0.026357     -0.113774
      3.14795      9.73380      0.00000        -0.253111      0.695418      0.021504
     10.03594     17.00833     11.66925         0.193174      0.023847      2.528809
      7.78968     18.50584     14.38475        -0.065674     -0.011995     -0.088204
     19.37095      0.00000      0.00000         0.192412     -0.620653     -0.629237
      2.54840     15.51082     11.66925         0.503056     -2.323016      0.993364
      0.30214     17.00833     14.38475        -2.344457     -0.422502     -1.837284
     14.50405     17.84530      1.62230        -0.385341     -0.294754      0.699924
      5.54342      0.53575     11.66925         0.344553      0.077713     -0.331177
      3.29716      2.03326     14.38475        -0.050566     -0.058149     -0.111391
      1.05089      3.53076     17.10025        -0.001633     -0.557660      0.635374
     14.50404      4.86690      8.11150         0.199253     -0.619142      0.624619
     17.89786      6.90016     13.02700        -0.040292     -0.068854      0.106461
     15.65159      8.39767     15.74250         0.064384      0.007737     -3.041839
      9.63715      3.24460      6.48920        -0.380739     -0.310287     -0.692331
     10.41032      5.40265     13.02700        -0.099457      0.000020      0.107100
      8.16405      6.90016     15.74250        -0.060545      2.425835     -1.209784
     15.65160      8.39766     10.31150         0.002516     -0.577535     -0.635092
     13.40533      9.89517     13.02700         0.009218     -0.078751      0.035653
     11.15907     11.39268     15.74250        -0.452140      2.411424     -1.421608
      8.01485      1.62230      4.86690         0.733780      0.089467     -0.073779
     16.40035     14.38770     13.02700         0.124042     -0.029636      0.081525
     16.12635      9.73380      0.00000         0.732538     -0.290684      2.345640
      5.16904      2.40763     10.31150         0.612972      0.273599      1.925325
      2.92278      3.90514     13.02700        -0.018990     -0.029931      0.107673
      0.67652      5.40265     15.74250         0.870946     -2.269803     -1.329713
     14.50404     14.60070      4.86690         0.019487      0.067708     -0.135221
      5.91780      8.39766     13.02700        -0.088291      0.084240      0.111006
      3.67153      9.89517     15.74250        -0.341697      2.476105     -1.532568
     11.25945     11.35610      4.86690        -0.014969      0.027533      0.848366
      8.91281     12.89019     13.02700         0.039299      0.049701      0.061782
      6.66655     14.38770     15.74250        -0.639948      2.398789     -1.486081
     12.88174     12.97840      6.48920        -0.160239      0.243749     -0.319142
     11.90782     17.38271     13.02700         0.068691     -0.054359      0.073406
      9.66156     18.88022     15.74250         0.229489     -2.303226     -0.914701
     17.74864     14.60070      8.11150        -0.222550      0.706996     -0.032924
     14.90284      2.40763     13.02700        -2.337599     -0.449025      1.822796
     12.65658      3.90514     15.74250        -0.184951      2.314248     -0.908346
     16.12635     16.22300      6.48920        -0.525277     -0.413632      0.240331
      1.42527     11.39268     13.02700        -0.002878      0.060355      0.018777
     18.64661     12.89019     15.74250        -0.695578      2.366243     -1.544384
      1.52565     14.60070      4.86690         0.486962      0.319109      0.274375
      4.42029     15.88520     13.02700         0.044681      0.052161      0.072850
     16.12635     12.97840      3.24460        -0.058004      0.955839      0.109119
      1.52564     17.84530      8.11150         0.033575     -0.348847     -3.316870
      7.41530      0.91013     13.02700        -2.378659     -0.372231      1.792790
      5.16904      2.40763     15.74250         0.148674     -0.050676     -2.585421
     12.88174      0.00000      6.48920        -0.111012     -0.936778     -0.276625
     19.39536     18.88022     13.02700        -0.013320     -0.081114      0.090139
     17.14910      0.91013     15.74250        -0.053562      0.093212     -2.534520
     11.25945     17.84530      4.86690         0.416943      0.546567     -0.513983
     14.52847      4.27952     14.38475        -0.015500     -0.017900     -0.122209
     12.28220      5.77703     17.10025        -0.720419     -0.373564     -1.758194
      0.30214      7.27453     11.66925         0.145025     -0.063345      2.602790
     17.52348      8.77204     14.38475        -0.020233      0.040455     -0.147204
      9.63715      0.00000      3.24460        -0.047069      0.087258      0.978141
     12.28221      5.77702     11.66925        -0.052502      0.076952      2.544624
     10.03594      7.27453     14.38475        -0.005294     -0.046577     -0.124583
      7.78968      8.77204     17.10025        -0.033043     -0.303544      1.057773
     15.27722     10.26955     11.66925         0.886058     -2.267873      1.323128
     13.03096     11.76706     14.38475        -0.071938     -0.052762     -0.090777
     10.78470     13.26456     17.10025         0.004291     -0.563160      0.709730
     18.27224     14.76207     11.66925        -0.363379      2.463798      1.523430
     16.02598     16.25958     14.38475         2.285782      0.537037     -1.640030
     13.77971     17.75709     17.10025        -0.520985      3.023601      2.057265
      4.79467      4.27952     11.66925         0.232393     -2.301142      0.916917
      2.54840      5.77702     14.38475        -0.057063      0.019761     -0.166365
      6.39255     16.22300      3.24460         0.005139     -0.011110      0.011396
      7.78968      8.77204     11.66925        -0.179521      2.303360      0.919590
      5.54342     10.26955     14.38475        -0.101724      0.055936     -0.070629
      3.29716     11.76706     17.10025        -0.177563     -1.127089      0.845009
     10.78470     13.26456     11.66925         0.079387      0.015119      3.025934
      8.53843     14.76207     14.38475        -0.020325     -0.047830      0.035578
      6.29217     16.25958     17.10025         0.026134      0.108057      0.776006
     13.77971     17.75709     11.66925        -0.710496      2.366799      1.544421
     11.53345     19.25460     14.38475         0.131624     -0.096608     -0.062086
      8.01485     11.35610      1.62230        -1.081785      0.182607     -0.071624
      3.29716     11.76705     11.66925        -0.060964      2.434922      1.208985
      1.05090     13.26456     14.38475        -0.047575      0.073758     -0.047157
     18.27223     14.76207     17.10025         0.088035     -0.482579      0.781567
      6.29217     16.25958     11.66925        -0.433322      2.414713      1.419743
      4.04591     17.75709     14.38475         2.337410      0.574304     -1.714380
     19.37095     12.97840      0.00000        -0.110475     -0.058746      0.384572
     11.25944     14.60070      8.11150         0.724177     -0.290649     -2.355166
      7.04093      2.78201     14.38475         0.058448     -0.069608     -0.129327
      6.39255      6.48920      0.00000         0.071888     -0.042421     -0.459991
      1.79965     19.25459     11.66925        -0.636179      2.403706      1.492741
     19.02099      1.28450     14.38475         0.082528      0.043034     -0.085901
     14.50405      4.86690      1.62230         0.313525      0.403841      0.189541
 -----------------------------------------------------------------------------------
    total drift:                                0.277913      0.029125     -0.319588


--------------------------------------------------------------------------------------------------------



  FREE ENERGIE OF THE ION-ELECTRON SYSTEM (eV)
  ---------------------------------------------------
  free  energy   TOTEN  =     -1118.29105980 eV

  energy  without entropy=    -1118.28579094  energy(sigma->0) =    -1118.28842537
 


--------------------------------------------------------------------------------------------------------


    POTLOK:  cpu time      2.9888: real time      3.0091


--------------------------------------------------------------------------------------------------------


     LOOP+:  cpu time   6403.3158: real time   6463.7001
    4ORBIT:  cpu time      0.0000: real time      0.0000

 total amount of memory used by VASP MPI-rank0   916460. kBytes
=======================================================================

   base      :      30000. kBytes
   nonlr-proj:      25156. kBytes
   fftplans  :      40892. kBytes
   grid      :      30643. kBytes
   one-center:        275. kBytes
   wavefun   :     789494. kBytes
 
  
  
 General timing and accounting informations for this job:
 ========================================================
  
                  Total CPU time used (sec):     6728.561
                            User time (sec):     6467.681
                          System time (sec):      260.879
                         Elapsed time (sec):     6796.242
  
                   Maximum memory used (kb):     1210528.
                   Average memory used (kb):          N/A
  
                          Minor page faults:      1155261
                          Major page faults:         1880
                 Voluntary context switches:         5081
