 264 264   0   0
  0.2770664E+02  0.1946760E-08  0.1946760E-08  0.1930025E-08  0.5000000E-15
  1.000000000000000E-004
  CAR 
 Si and Ge interface calculation         
      6.70272510     -8.48243821  301      4.08820681      1.00000000
     -8.482  0.0000E+00  0.0000E+00  0.0000E+00  0.0000E+00
     -8.432  0.0000E+00  0.0000E+00  0.0000E+00  0.0000E+00
     -8.381  0.0000E+00  0.0000E+00  0.0000E+00  0.0000E+00
     -8.331  0.0000E+00  0.0000E+00  0.0000E+00  0.0000E+00
     -8.280  0.0000E+00  0.0000E+00  0.0000E+00  0.0000E+00
     -8.229  0.0000E+00  0.0000E+00  0.0000E+00  0.0000E+00
     -8.179  0.0000E+00  0.0000E+00  0.0000E+00  0.0000E+00
     -8.128  0.0000E+00  0.0000E+00  0.0000E+00  0.0000E+00
     -8.078  0.0000E+00  0.0000E+00  0.0000E+00  0.0000E+00
     -8.027  0.0000E+00  0.0000E+00  0.0000E+00  0.0000E+00
     -7.976  0.0000E+00  0.0000E+00  0.0000E+00  0.0000E+00
     -7.926  0.0000E+00  0.0000E+00  0.0000E+00  0.0000E+00
     -7.875  0.0000E+00  0.0000E+00  0.0000E+00  0.0000E+00
     -7.824  0.2407E-04  0.5635E-05  0.1218E-05  0.2853E-06
     -7.774  0.9830E+01  0.9770E+01  0.4976E+00  0.4945E+00
     -7.723  0.1190E+01  0.6706E+00  0.5578E+00  0.5285E+00
     -7.673  0.3837E+02  0.3895E+02  0.2500E+01  0.2500E+01
     -7.622  0.2915E+02  0.2578E+02  0.3976E+01  0.3805E+01
     -7.571  0.1036E+02  0.1373E+02  0.4500E+01  0.4500E+01
     -7.521  0.5891E-10  0.5081E-11  0.4500E+01  0.4500E+01
     -7.470  0.1305E+02  0.9986E+01  0.5161E+01  0.5005E+01
     -7.419  0.2646E+02  0.2953E+02  0.6500E+01  0.6500E+01
     -7.369  0.7689E+02  0.7515E+02  0.1039E+02  0.1030E+02
     -7.318  0.2130E+01  0.3876E+01  0.1050E+02  0.1050E+02
     -7.268  0.0000E+00  0.0000E+00  0.1050E+02  0.1050E+02
     -7.217  0.1209E-12  0.1645E-13  0.1050E+02  0.1050E+02
     -7.166  0.3212E+01  0.2351E+01  0.1066E+02  0.1062E+02
     -7.116  0.3383E+02  0.3341E+02  0.1237E+02  0.1231E+02
     -7.065  0.2903E+02  0.2819E+02  0.1384E+02  0.1374E+02
     -7.015  0.3235E+02  0.3247E+02  0.1548E+02  0.1538E+02
     -6.964  0.4153E+02  0.4103E+02  0.1758E+02  0.1746E+02
     -6.913  0.1801E+02  0.2042E+02  0.1850E+02  0.1849E+02
     -6.863  0.8303E-01  0.1876E+00  0.1850E+02  0.1850E+02
     -6.812  0.5122E-02  0.1033E-02  0.1850E+02  0.1850E+02
     -6.761  0.2353E+02  0.1950E+02  0.1969E+02  0.1949E+02
     -6.711  0.7687E+02  0.7726E+02  0.2358E+02  0.2340E+02
     -6.660  0.3184E+02  0.3483E+02  0.2519E+02  0.2516E+02
     -6.610  0.3467E+02  0.3399E+02  0.2695E+02  0.2688E+02
     -6.559  0.1512E+02  0.1460E+02  0.2771E+02  0.2762E+02
     -6.508  0.4011E+02  0.3940E+02  0.2974E+02  0.2962E+02
     -6.458  0.8637E+02  0.8388E+02  0.3412E+02  0.3386E+02
     -6.407  0.8043E+02  0.7958E+02  0.3819E+02  0.3789E+02
     -6.357  0.3140E+02  0.3703E+02  0.3978E+02  0.3976E+02
     -6.306  0.8127E+02  0.7961E+02  0.4389E+02  0.4379E+02
     -6.255  0.1764E+02  0.1741E+02  0.4478E+02  0.4467E+02
     -6.205  0.9266E+02  0.9123E+02  0.4947E+02  0.4929E+02
     -6.154  0.7455E+02  0.7439E+02  0.5325E+02  0.5306E+02
     -6.103  0.4553E+02  0.4849E+02  0.5555E+02  0.5551E+02
     -6.053  0.1012E+02  0.1054E+02  0.5606E+02  0.5605E+02
     -6.002  0.6804E+02  0.6090E+02  0.5951E+02  0.5913E+02
     -5.952  0.1046E+03  0.1039E+03  0.6480E+02  0.6439E+02
     -5.901  0.1043E+03  0.1112E+03  0.7008E+02  0.7002E+02
     -5.850  0.6759E+02  0.6544E+02  0.7350E+02  0.7333E+02
     -5.800  0.1101E+03  0.1110E+03  0.7908E+02  0.7895E+02
     -5.749  0.1152E+03  0.1122E+03  0.8491E+02  0.8463E+02
     -5.698  0.8444E+02  0.8202E+02  0.8918E+02  0.8878E+02
     -5.648  0.8942E+02  0.9461E+02  0.9371E+02  0.9357E+02
     -5.597  0.5310E+02  0.5191E+02  0.9639E+02  0.9620E+02
     -5.547  0.9716E+02  0.9562E+02  0.1013E+03  0.1010E+03
     -5.496  0.1065E+03  0.1051E+03  0.1067E+03  0.1064E+03
     -5.445  0.1207E+03  0.1233E+03  0.1128E+03  0.1126E+03
     -5.395  0.7129E+02  0.7155E+02  0.1164E+03  0.1162E+03
     -5.344  0.1199E+03  0.1171E+03  0.1225E+03  0.1221E+03
     -5.294  0.1185E+03  0.1248E+03  0.1285E+03  0.1285E+03
     -5.243  0.4049E+02  0.3736E+02  0.1305E+03  0.1304E+03
     -5.192  0.8709E+02  0.8859E+02  0.1349E+03  0.1348E+03
     -5.142  0.4415E+02  0.4517E+02  0.1372E+03  0.1371E+03
     -5.091  0.1107E+03  0.1069E+03  0.1428E+03  0.1425E+03
     -5.040  0.1018E+03  0.1048E+03  0.1479E+03  0.1478E+03
     -4.990  0.1013E+03  0.9802E+02  0.1531E+03  0.1528E+03
     -4.939  0.1687E+03  0.1721E+03  0.1616E+03  0.1615E+03
     -4.889  0.8682E+02  0.8279E+02  0.1660E+03  0.1657E+03
     -4.838  0.6343E+02  0.6431E+02  0.1692E+03  0.1690E+03
     -4.787  0.7989E+02  0.7990E+02  0.1732E+03  0.1730E+03
     -4.737  0.6336E+02  0.6609E+02  0.1765E+03  0.1764E+03
     -4.686  0.9257E+02  0.8931E+02  0.1811E+03  0.1809E+03
     -4.636  0.1201E+03  0.1203E+03  0.1872E+03  0.1870E+03
     -4.585  0.1109E+03  0.1104E+03  0.1928E+03  0.1925E+03
     -4.534  0.5806E+02  0.5996E+02  0.1958E+03  0.1956E+03
     -4.484  0.7945E+02  0.7675E+02  0.1998E+03  0.1995E+03
     -4.433  0.1240E+03  0.1246E+03  0.2061E+03  0.2058E+03
     -4.382  0.8226E+02  0.8194E+02  0.2102E+03  0.2099E+03
     -4.332  0.1369E+03  0.1339E+03  0.2172E+03  0.2167E+03
     -4.281  0.9778E+02  0.1012E+03  0.2221E+03  0.2218E+03
     -4.231  0.6237E+02  0.6053E+02  0.2253E+03  0.2249E+03
     -4.180  0.9289E+02  0.9974E+02  0.2300E+03  0.2299E+03
     -4.129  0.7189E+02  0.6935E+02  0.2336E+03  0.2334E+03
     -4.079  0.3368E+02  0.3597E+02  0.2353E+03  0.2353E+03
     -4.028  0.3673E+02  0.3213E+02  0.2372E+03  0.2369E+03
     -3.978  0.6101E+02  0.6227E+02  0.2403E+03  0.2400E+03
     -3.927  0.3642E+02  0.3944E+02  0.2421E+03  0.2420E+03
     -3.876  0.6572E+02  0.6302E+02  0.2454E+03  0.2452E+03
     -3.826  0.8034E+02  0.7919E+02  0.2495E+03  0.2492E+03
     -3.775  0.4933E+02  0.5223E+02  0.2520E+03  0.2519E+03
     -3.724  0.3919E+02  0.3899E+02  0.2540E+03  0.2539E+03
     -3.674  0.6250E+02  0.6128E+02  0.2571E+03  0.2570E+03
     -3.623  0.5890E+02  0.5807E+02  0.2601E+03  0.2599E+03
     -3.573  0.3312E+02  0.3047E+02  0.2618E+03  0.2614E+03
     -3.522  0.1063E+03  0.1090E+03  0.2672E+03  0.2670E+03
     -3.471  0.5718E+02  0.5869E+02  0.2701E+03  0.2699E+03
     -3.421  0.2454E+02  0.2621E+02  0.2713E+03  0.2713E+03
     -3.370  0.6262E+02  0.5857E+02  0.2745E+03  0.2742E+03
     -3.319  0.9513E+02  0.9582E+02  0.2793E+03  0.2791E+03
     -3.269  0.7979E+02  0.8066E+02  0.2833E+03  0.2832E+03
     -3.218  0.7980E+02  0.6984E+02  0.2874E+03  0.2867E+03
     -3.168  0.8290E+02  0.9103E+02  0.2916E+03  0.2913E+03
     -3.117  0.6061E+02  0.6198E+02  0.2946E+03  0.2944E+03
     -3.066  0.9072E+02  0.9059E+02  0.2992E+03  0.2990E+03
     -3.016  0.4344E+02  0.4684E+02  0.3014E+03  0.3014E+03
     -2.965  0.4567E+02  0.3881E+02  0.3037E+03  0.3034E+03
     -2.915  0.9766E+02  0.1015E+03  0.3087E+03  0.3085E+03
     -2.864  0.8237E+02  0.7755E+02  0.3129E+03  0.3124E+03
     -2.813  0.9158E+02  0.9815E+02  0.3175E+03  0.3174E+03
     -2.763  0.4846E+02  0.4964E+02  0.3200E+03  0.3199E+03
     -2.712  0.8577E+02  0.8102E+02  0.3243E+03  0.3240E+03
     -2.661  0.8939E+02  0.8947E+02  0.3288E+03  0.3285E+03
     -2.611  0.1435E+03  0.1388E+03  0.3361E+03  0.3356E+03
     -2.560  0.1058E+03  0.1133E+03  0.3414E+03  0.3413E+03
     -2.510  0.1354E+03  0.1305E+03  0.3483E+03  0.3479E+03
     -2.459  0.1414E+03  0.1434E+03  0.3554E+03  0.3552E+03
     -2.408  0.1083E+03  0.1092E+03  0.3609E+03  0.3607E+03
     -2.358  0.8850E+02  0.8628E+02  0.3654E+03  0.3650E+03
     -2.307  0.1034E+03  0.1058E+03  0.3706E+03  0.3704E+03
     -2.257  0.9628E+02  0.9218E+02  0.3755E+03  0.3751E+03
     -2.206  0.6567E+02  0.6941E+02  0.3788E+03  0.3786E+03
     -2.155  0.9772E+02  0.9810E+02  0.3838E+03  0.3835E+03
     -2.105  0.7847E+02  0.8217E+02  0.3878E+03  0.3877E+03
     -2.054  0.8492E+02  0.8295E+02  0.3921E+03  0.3919E+03
     -2.003  0.1054E+03  0.1011E+03  0.3974E+03  0.3970E+03
     -1.953  0.7503E+02  0.7986E+02  0.4012E+03  0.4011E+03
     -1.902  0.5884E+02  0.5619E+02  0.4042E+03  0.4039E+03
     -1.852  0.7093E+02  0.7162E+02  0.4078E+03  0.4075E+03
     -1.801  0.1149E+03  0.1126E+03  0.4136E+03  0.4132E+03
     -1.750  0.9432E+02  0.9710E+02  0.4184E+03  0.4181E+03
     -1.700  0.3066E+02  0.3043E+02  0.4199E+03  0.4197E+03
     -1.649  0.8920E+02  0.8696E+02  0.4244E+03  0.4241E+03
     -1.598  0.8366E+02  0.8672E+02  0.4287E+03  0.4285E+03
     -1.548  0.8451E+02  0.8201E+02  0.4329E+03  0.4326E+03
     -1.497  0.7416E+02  0.7697E+02  0.4367E+03  0.4365E+03
     -1.447  0.6400E+02  0.6325E+02  0.4399E+03  0.4397E+03
     -1.396  0.5929E+02  0.6113E+02  0.4429E+03  0.4428E+03
     -1.345  0.6052E+02  0.5831E+02  0.4460E+03  0.4458E+03
     -1.295  0.5315E+02  0.5346E+02  0.4487E+03  0.4485E+03
     -1.244  0.2611E+02  0.2995E+02  0.4500E+03  0.4500E+03
     -1.194  0.6390E+02  0.6180E+02  0.4532E+03  0.4531E+03
     -1.143  0.4404E+02  0.4444E+02  0.4555E+03  0.4554E+03
     -1.092  0.4632E+02  0.4096E+02  0.4578E+03  0.4574E+03
     -1.042  0.6076E+02  0.6355E+02  0.4609E+03  0.4607E+03
     -0.991  0.6299E+02  0.6312E+02  0.4641E+03  0.4639E+03
     -0.940  0.4702E+02  0.4654E+02  0.4665E+03  0.4662E+03
     -0.890  0.3679E+02  0.3680E+02  0.4683E+03  0.4681E+03
     -0.839  0.9778E+02  0.9532E+02  0.4733E+03  0.4729E+03
     -0.789  0.5388E+02  0.5854E+02  0.4760E+03  0.4759E+03
     -0.738  0.5492E+02  0.5556E+02  0.4788E+03  0.4787E+03
     -0.687  0.3976E+02  0.3726E+02  0.4808E+03  0.4806E+03
     -0.637  0.5894E+02  0.5994E+02  0.4838E+03  0.4836E+03
     -0.586  0.4983E+02  0.5263E+02  0.4863E+03  0.4863E+03
     -0.536  0.3601E+02  0.3429E+02  0.4881E+03  0.4880E+03
     -0.485  0.8596E+01  0.1034E+02  0.4885E+03  0.4885E+03
     -0.434  0.2637E+02  0.2570E+02  0.4899E+03  0.4898E+03
     -0.384  0.4102E+02  0.3854E+02  0.4920E+03  0.4918E+03
     -0.333  0.3690E+02  0.3938E+02  0.4938E+03  0.4938E+03
     -0.282  0.2463E+02  0.2494E+02  0.4951E+03  0.4950E+03
     -0.232  0.4672E+02  0.4418E+02  0.4974E+03  0.4973E+03
     -0.181  0.7564E+02  0.7580E+02  0.5013E+03  0.5011E+03
     -0.131  0.3934E+02  0.4025E+02  0.5033E+03  0.5031E+03
     -0.080  0.5787E+02  0.5758E+02  0.5062E+03  0.5061E+03
     -0.029  0.8272E+02  0.8280E+02  0.5104E+03  0.5102E+03
      0.021  0.4940E+02  0.4839E+02  0.5129E+03  0.5127E+03
      0.072  0.1469E+03  0.1437E+03  0.5203E+03  0.5200E+03
      0.122  0.1158E+03  0.1159E+03  0.5262E+03  0.5258E+03
      0.173  0.1235E+03  0.1205E+03  0.5324E+03  0.5319E+03
      0.224  0.1506E+03  0.1541E+03  0.5400E+03  0.5397E+03
      0.274  0.1212E+03  0.1242E+03  0.5462E+03  0.5460E+03
      0.325  0.1088E+03  0.1057E+03  0.5517E+03  0.5514E+03
      0.376  0.6762E+02  0.6600E+02  0.5551E+03  0.5547E+03
      0.426  0.1405E+03  0.1402E+03  0.5622E+03  0.5618E+03
      0.477  0.1209E+03  0.1201E+03  0.5683E+03  0.5679E+03
      0.527  0.1186E+03  0.1209E+03  0.5743E+03  0.5740E+03
      0.578  0.5345E+02  0.5676E+02  0.5770E+03  0.5769E+03
      0.629  0.7231E+02  0.7258E+02  0.5807E+03  0.5806E+03
      0.679  0.1288E+03  0.1244E+03  0.5872E+03  0.5869E+03
      0.730  0.1766E+03  0.1743E+03  0.5962E+03  0.5957E+03
      0.781  0.1625E+03  0.1625E+03  0.6044E+03  0.6039E+03
      0.831  0.1793E+03  0.1826E+03  0.6135E+03  0.6131E+03
      0.882  0.1797E+03  0.1797E+03  0.6226E+03  0.6222E+03
      0.932  0.1169E+03  0.1157E+03  0.6285E+03  0.6281E+03
      0.983  0.2244E+03  0.2232E+03  0.6398E+03  0.6394E+03
      1.034  0.1586E+03  0.1587E+03  0.6479E+03  0.6474E+03
      1.084  0.1597E+03  0.1593E+03  0.6559E+03  0.6555E+03
      1.135  0.1895E+03  0.1895E+03  0.6655E+03  0.6651E+03
      1.185  0.1612E+03  0.1633E+03  0.6737E+03  0.6733E+03
      1.236  0.2296E+03  0.2275E+03  0.6853E+03  0.6849E+03
      1.287  0.1230E+03  0.1279E+03  0.6915E+03  0.6913E+03
      1.337  0.1290E+03  0.1284E+03  0.6981E+03  0.6978E+03
      1.388  0.1257E+03  0.1189E+03  0.7044E+03  0.7038E+03
      1.439  0.1809E+03  0.1853E+03  0.7136E+03  0.7132E+03
      1.489  0.2626E+03  0.2551E+03  0.7269E+03  0.7261E+03
      1.540  0.2085E+03  0.2138E+03  0.7374E+03  0.7370E+03
      1.590  0.1565E+03  0.1597E+03  0.7454E+03  0.7450E+03
      1.641  0.1681E+03  0.1609E+03  0.7539E+03  0.7532E+03
      1.692  0.1739E+03  0.1740E+03  0.7627E+03  0.7620E+03
      1.742  0.1751E+03  0.1834E+03  0.7715E+03  0.7713E+03
      1.793  0.1533E+03  0.1469E+03  0.7793E+03  0.7787E+03
      1.843  0.2211E+03  0.2237E+03  0.7905E+03  0.7900E+03
      1.894  0.1479E+03  0.1464E+03  0.7980E+03  0.7974E+03
      1.945  0.2050E+03  0.2026E+03  0.8083E+03  0.8077E+03
      1.995  0.1679E+03  0.1720E+03  0.8168E+03  0.8164E+03
      2.046  0.1847E+03  0.1774E+03  0.8262E+03  0.8254E+03
      2.097  0.1918E+03  0.1998E+03  0.8359E+03  0.8355E+03
      2.147  0.1651E+03  0.1647E+03  0.8443E+03  0.8438E+03
      2.198  0.1263E+03  0.1235E+03  0.8507E+03  0.8501E+03
      2.248  0.1655E+03  0.1705E+03  0.8590E+03  0.8587E+03
      2.299  0.1632E+03  0.1613E+03  0.8673E+03  0.8669E+03
      2.350  0.2041E+03  0.1980E+03  0.8776E+03  0.8769E+03
      2.400  0.1827E+03  0.1877E+03  0.8869E+03  0.8864E+03
      2.451  0.1090E+03  0.1046E+03  0.8924E+03  0.8917E+03
      2.501  0.1560E+03  0.1621E+03  0.9003E+03  0.8999E+03
      2.552  0.1143E+03  0.1152E+03  0.9061E+03  0.9057E+03
      2.603  0.1601E+03  0.1514E+03  0.9142E+03  0.9134E+03
      2.653  0.1412E+03  0.1510E+03  0.9213E+03  0.9210E+03
      2.704  0.1672E+03  0.1649E+03  0.9298E+03  0.9294E+03
      2.755  0.1527E+03  0.1461E+03  0.9375E+03  0.9368E+03
      2.805  0.1638E+03  0.1667E+03  0.9458E+03  0.9452E+03
      2.856  0.1557E+03  0.1548E+03  0.9537E+03  0.9531E+03
      2.906  0.8521E+02  0.9340E+02  0.9580E+03  0.9578E+03
      2.957  0.9406E+02  0.8332E+02  0.9628E+03  0.9620E+03
      3.008  0.1525E+03  0.1570E+03  0.9705E+03  0.9700E+03
      3.058  0.1274E+03  0.1289E+03  0.9769E+03  0.9765E+03
      3.109  0.1022E+03  0.1064E+03  0.9821E+03  0.9819E+03
      3.160  0.1389E+03  0.1263E+03  0.9892E+03  0.9883E+03
      3.210  0.9646E+02  0.1033E+03  0.9940E+03  0.9935E+03
      3.261  0.1093E+03  0.1109E+03  0.9996E+03  0.9991E+03
      3.311  0.1055E+03  0.1013E+03  0.1005E+04  0.1004E+04
      3.362  0.9249E+02  0.9953E+02  0.1010E+04  0.1009E+04
      3.413  0.8609E+02  0.7987E+02  0.1014E+04  0.1013E+04
      3.463  0.7641E+02  0.8187E+02  0.1018E+04  0.1017E+04
      3.514  0.8586E+02  0.9013E+02  0.1022E+04  0.1022E+04
      3.564  0.6404E+02  0.5527E+02  0.1025E+04  0.1025E+04
      3.615  0.1050E+03  0.1102E+03  0.1031E+04  0.1030E+04
      3.666  0.3976E+02  0.4255E+02  0.1033E+04  0.1033E+04
      3.716  0.6036E+02  0.5126E+02  0.1036E+04  0.1035E+04
      3.767  0.4897E+02  0.5750E+02  0.1038E+04  0.1038E+04
      3.818  0.3182E+02  0.2844E+02  0.1040E+04  0.1039E+04
      3.868  0.5427E+02  0.5398E+02  0.1043E+04  0.1042E+04
      3.919  0.2705E+02  0.3004E+02  0.1044E+04  0.1044E+04
      3.969  0.7603E+02  0.6570E+02  0.1048E+04  0.1047E+04
      4.020  0.4724E+02  0.5564E+02  0.1050E+04  0.1050E+04
      4.071  0.7401E+02  0.6448E+02  0.1054E+04  0.1053E+04
      4.121  0.1150E+03  0.1167E+03  0.1060E+04  0.1059E+04
      4.172  0.1191E+03  0.1073E+03  0.1066E+04  0.1064E+04
      4.222  0.9414E+02  0.1076E+03  0.1071E+04  0.1070E+04
      4.273  0.1056E+03  0.9981E+02  0.1076E+04  0.1075E+04
      4.324  0.8025E+02  0.9581E+02  0.1080E+04  0.1080E+04
      4.374  0.1150E+03  0.1004E+03  0.1086E+04  0.1085E+04
      4.425  0.1119E+03  0.1130E+03  0.1091E+04  0.1091E+04
      4.476  0.1158E+03  0.1080E+03  0.1097E+04  0.1096E+04
      4.526  0.9190E+02  0.9773E+02  0.1102E+04  0.1101E+04
      4.577  0.1139E+03  0.1235E+03  0.1108E+04  0.1107E+04
      4.627  0.9318E+02  0.8963E+02  0.1112E+04  0.1112E+04
      4.678  0.1321E+03  0.1273E+03  0.1119E+04  0.1118E+04
      4.729  0.1422E+03  0.1354E+03  0.1126E+04  0.1125E+04
      4.779  0.1148E+03  0.1329E+03  0.1132E+04  0.1132E+04
      4.830  0.1122E+03  0.9988E+02  0.1138E+04  0.1137E+04
      4.881  0.1255E+03  0.1305E+03  0.1144E+04  0.1144E+04
      4.931  0.1095E+03  0.1159E+03  0.1150E+04  0.1149E+04
      4.982  0.1320E+03  0.1315E+03  0.1156E+04  0.1156E+04
      5.032  0.1232E+03  0.1146E+03  0.1163E+04  0.1162E+04
      5.083  0.1328E+03  0.1335E+03  0.1169E+04  0.1169E+04
      5.134  0.8302E+02  0.8836E+02  0.1174E+04  0.1173E+04
      5.184  0.1388E+03  0.1340E+03  0.1181E+04  0.1180E+04
      5.235  0.1272E+03  0.1311E+03  0.1187E+04  0.1187E+04
      5.285  0.3911E+02  0.3775E+02  0.1189E+04  0.1188E+04
      5.336  0.1099E+03  0.1135E+03  0.1195E+04  0.1194E+04
      5.387  0.1248E+03  0.1172E+03  0.1201E+04  0.1200E+04
      5.437  0.1319E+03  0.1409E+03  0.1208E+04  0.1207E+04
      5.488  0.1287E+03  0.1276E+03  0.1214E+04  0.1214E+04
      5.539  0.1302E+03  0.1248E+03  0.1221E+04  0.1220E+04
      5.589  0.1728E+03  0.1695E+03  0.1229E+04  0.1229E+04
      5.640  0.1583E+03  0.1628E+03  0.1237E+04  0.1237E+04
      5.690  0.1007E+03  0.1055E+03  0.1243E+04  0.1242E+04
      5.741  0.1045E+03  0.1043E+03  0.1248E+04  0.1247E+04
      5.792  0.1185E+03  0.1127E+03  0.1254E+04  0.1253E+04
      5.842  0.1169E+03  0.1257E+03  0.1260E+04  0.1260E+04
      5.893  0.9465E+02  0.9397E+02  0.1265E+04  0.1264E+04
      5.943  0.1077E+03  0.1110E+03  0.1270E+04  0.1270E+04
      5.994  0.3217E+02  0.3698E+02  0.1272E+04  0.1272E+04
      6.045  0.7491E+01  0.4926E+01  0.1272E+04  0.1272E+04
      6.095  0.0000E+00  0.0000E+00  0.1272E+04  0.1272E+04
      6.146  0.0000E+00  0.0000E+00  0.1272E+04  0.1272E+04
      6.197  0.0000E+00  0.0000E+00  0.1272E+04  0.1272E+04
      6.247  0.0000E+00  0.0000E+00  0.1272E+04  0.1272E+04
      6.298  0.0000E+00  0.0000E+00  0.1272E+04  0.1272E+04
      6.348  0.0000E+00  0.0000E+00  0.1272E+04  0.1272E+04
      6.399  0.0000E+00  0.0000E+00  0.1272E+04  0.1272E+04
      6.450  0.0000E+00  0.0000E+00  0.1272E+04  0.1272E+04
      6.500  0.0000E+00  0.0000E+00  0.1272E+04  0.1272E+04
      6.551  0.0000E+00  0.0000E+00  0.1272E+04  0.1272E+04
      6.601  0.0000E+00  0.0000E+00  0.1272E+04  0.1272E+04
      6.652  0.0000E+00  0.0000E+00  0.1272E+04  0.1272E+04
      6.703  0.0000E+00  0.0000E+00  0.1272E+04  0.1272E+04
