  84  84   0   0
  0.1768737E+02  0.5431000E-09  0.1629300E-08  0.1679042E-08  0.5000000E-15
  1.000000000000000E-004
  CAR 
 Si and Ge interface calculation         
      9.67340399    -11.28898170  301      6.51876512      1.00000000
    -11.289  0.0000E+00  0.0000E+00  0.0000E+00  0.0000E+00
    -11.219  0.0000E+00  0.0000E+00  0.0000E+00  0.0000E+00
    -11.149  0.0000E+00  0.0000E+00  0.0000E+00  0.0000E+00
    -11.079  0.0000E+00  0.0000E+00  0.0000E+00  0.0000E+00
    -11.009  0.0000E+00  0.0000E+00  0.0000E+00  0.0000E+00
    -10.940  0.0000E+00  0.0000E+00  0.0000E+00  0.0000E+00
    -10.870  0.0000E+00  0.0000E+00  0.0000E+00  0.0000E+00
    -10.800  0.0000E+00  0.0000E+00  0.0000E+00  0.0000E+00
    -10.730  0.0000E+00  0.0000E+00  0.0000E+00  0.0000E+00
    -10.660  0.0000E+00  0.0000E+00  0.0000E+00  0.0000E+00
    -10.590  0.0000E+00  0.0000E+00  0.0000E+00  0.0000E+00
    -10.520  0.0000E+00  0.0000E+00  0.0000E+00  0.0000E+00
    -10.450  0.0000E+00  0.0000E+00  0.0000E+00  0.0000E+00
    -10.381  0.4146E-10  0.3870E-09  0.2897E-11  0.2704E-10
    -10.311  0.4781E+01  0.4825E+01  0.3340E+00  0.3371E+00
    -10.241  0.1430E+02  0.1426E+02  0.1334E+01  0.1334E+01
    -10.171  0.1907E+02  0.1908E+02  0.2667E+01  0.2668E+01
    -10.101  0.1433E+02  0.1430E+02  0.3668E+01  0.3667E+01
    -10.031  0.1860E+02  0.1820E+02  0.4968E+01  0.4939E+01
     -9.961  0.8935E+01  0.8629E+01  0.5594E+01  0.5547E+01
     -9.891  0.5653E+01  0.6134E+01  0.6000E+01  0.6000E+01
     -9.822  0.0000E+00  0.0000E+00  0.6000E+01  0.6000E+01
     -9.752  0.0000E+00  0.0000E+00  0.6000E+01  0.6000E+01
     -9.682  0.4245E-01  0.1780E+00  0.6003E+01  0.6012E+01
     -9.612  0.1203E+02  0.1320E+02  0.6844E+01  0.6935E+01
     -9.542  0.2248E+01  0.8956E+00  0.7001E+01  0.7005E+01
     -9.472  0.1344E+02  0.1389E+02  0.7940E+01  0.7976E+01
     -9.402  0.2330E+02  0.2225E+02  0.9568E+01  0.9530E+01
     -9.332  0.5912E+01  0.6722E+01  0.1000E+02  0.1000E+02
     -9.263  0.0000E+00  0.0000E+00  0.1000E+02  0.1000E+02
     -9.193  0.3671E-07  0.1543E-06  0.1000E+02  0.1000E+02
     -9.123  0.6912E+01  0.7489E+01  0.1048E+02  0.1052E+02
     -9.053  0.1123E+02  0.1151E+02  0.1127E+02  0.1133E+02
     -8.983  0.1039E+02  0.9569E+01  0.1200E+02  0.1200E+02
     -8.913  0.0000E+00  0.0000E+00  0.1200E+02  0.1200E+02
     -8.843  0.0000E+00  0.0000E+00  0.1200E+02  0.1200E+02
     -8.773  0.0000E+00  0.0000E+00  0.1200E+02  0.1200E+02
     -8.704  0.0000E+00  0.0000E+00  0.1200E+02  0.1200E+02
     -8.634  0.0000E+00  0.0000E+00  0.1200E+02  0.1200E+02
     -8.564  0.0000E+00  0.0000E+00  0.1200E+02  0.1200E+02
     -8.494  0.0000E+00  0.0000E+00  0.1200E+02  0.1200E+02
     -8.424  0.0000E+00  0.0000E+00  0.1200E+02  0.1200E+02
     -8.354  0.0000E+00  0.0000E+00  0.1200E+02  0.1200E+02
     -8.284  0.0000E+00  0.0000E+00  0.1200E+02  0.1200E+02
     -8.214  0.0000E+00  0.0000E+00  0.1200E+02  0.1200E+02
     -8.145  0.0000E+00  0.0000E+00  0.1200E+02  0.1200E+02
     -8.075  0.8606E-15  0.3310E-15  0.1200E+02  0.1200E+02
     -8.005  0.4386E+01  0.4234E+01  0.1231E+02  0.1230E+02
     -7.935  0.2458E+02  0.2435E+02  0.1403E+02  0.1400E+02
     -7.865  0.2819E+02  0.2851E+02  0.1600E+02  0.1600E+02
     -7.795  0.2939E-13  0.0000E+00  0.1600E+02  0.1600E+02
     -7.725  0.3185E+01  0.2230E+01  0.1622E+02  0.1616E+02
     -7.656  0.1106E+02  0.1186E+02  0.1700E+02  0.1698E+02
     -7.586  0.1900E+02  0.2108E+02  0.1833E+02  0.1847E+02
     -7.516  0.2089E+02  0.1798E+02  0.1979E+02  0.1976E+02
     -7.446  0.3007E+01  0.3434E+01  0.2000E+02  0.2000E+02
     -7.376  0.0000E+00  0.0000E+00  0.2000E+02  0.2000E+02
     -7.306  0.0000E+00  0.0000E+00  0.2000E+02  0.2000E+02
     -7.236  0.0000E+00  0.0000E+00  0.2000E+02  0.2000E+02
     -7.166  0.0000E+00  0.0000E+00  0.2000E+02  0.2000E+02
     -7.097  0.0000E+00  0.0000E+00  0.2000E+02  0.2000E+02
     -7.027  0.0000E+00  0.0000E+00  0.2000E+02  0.2000E+02
     -6.957  0.0000E+00  0.0000E+00  0.2000E+02  0.2000E+02
     -6.887  0.0000E+00  0.0000E+00  0.2000E+02  0.2000E+02
     -6.817  0.0000E+00  0.0000E+00  0.2000E+02  0.2000E+02
     -6.747  0.0000E+00  0.0000E+00  0.2000E+02  0.2000E+02
     -6.677  0.3972E-15  0.0000E+00  0.2000E+02  0.2000E+02
     -6.607  0.1871E+01  0.1669E+01  0.2013E+02  0.2012E+02
     -6.538  0.1763E+02  0.1781E+02  0.2137E+02  0.2137E+02
     -6.468  0.8962E+01  0.8974E+01  0.2200E+02  0.2200E+02
     -6.398  0.1701E+02  0.1628E+02  0.2319E+02  0.2314E+02
     -6.328  0.7155E+01  0.7920E+01  0.2370E+02  0.2369E+02
     -6.258  0.5382E+01  0.4926E+01  0.2408E+02  0.2404E+02
     -6.188  0.3875E+01  0.4322E+01  0.2435E+02  0.2434E+02
     -6.118  0.9299E+01  0.9464E+01  0.2500E+02  0.2500E+02
     -6.048  0.1485E+02  0.1317E+02  0.2604E+02  0.2592E+02
     -5.979  0.7464E+01  0.8654E+01  0.2656E+02  0.2653E+02
     -5.909  0.1037E+02  0.9079E+01  0.2729E+02  0.2717E+02
     -5.839  0.1848E+02  0.2010E+02  0.2858E+02  0.2857E+02
     -5.769  0.1151E+02  0.1028E+02  0.2939E+02  0.2930E+02
     -5.699  0.1162E+02  0.1281E+02  0.3021E+02  0.3020E+02
     -5.629  0.1143E+02  0.1147E+02  0.3101E+02  0.3100E+02
     -5.559  0.9528E+01  0.9442E+01  0.3167E+02  0.3166E+02
     -5.489  0.9139E+01  0.9221E+01  0.3231E+02  0.3231E+02
     -5.420  0.6250E+01  0.6318E+01  0.3275E+02  0.3275E+02
     -5.350  0.1269E+02  0.1209E+02  0.3364E+02  0.3359E+02
     -5.280  0.1448E+02  0.1470E+02  0.3466E+02  0.3462E+02
     -5.210  0.1161E+02  0.1165E+02  0.3547E+02  0.3544E+02
     -5.140  0.1409E+02  0.1397E+02  0.3646E+02  0.3641E+02
     -5.070  0.1670E+02  0.1634E+02  0.3762E+02  0.3756E+02
     -5.000  0.1320E+02  0.1357E+02  0.3855E+02  0.3851E+02
     -4.930  0.1215E+02  0.1191E+02  0.3940E+02  0.3934E+02
     -4.861  0.1372E+02  0.1392E+02  0.4036E+02  0.4032E+02
     -4.791  0.2048E+02  0.2013E+02  0.4179E+02  0.4172E+02
     -4.721  0.1433E+02  0.1471E+02  0.4280E+02  0.4276E+02
     -4.651  0.2170E+02  0.2130E+02  0.4432E+02  0.4426E+02
     -4.581  0.2274E+02  0.2182E+02  0.4591E+02  0.4579E+02
     -4.511  0.1879E+02  0.1984E+02  0.4724E+02  0.4718E+02
     -4.441  0.2862E+02  0.2661E+02  0.4924E+02  0.4904E+02
     -4.371  0.2003E+02  0.2212E+02  0.5065E+02  0.5059E+02
     -4.302  0.1854E+02  0.1788E+02  0.5195E+02  0.5184E+02
     -4.232  0.2252E+02  0.2226E+02  0.5353E+02  0.5341E+02
     -4.162  0.2447E+02  0.2595E+02  0.5524E+02  0.5523E+02
     -4.092  0.1482E+02  0.1359E+02  0.5627E+02  0.5618E+02
     -4.022  0.2893E+02  0.2957E+02  0.5830E+02  0.5825E+02
     -3.952  0.2306E+02  0.2293E+02  0.5992E+02  0.5986E+02
     -3.882  0.2028E+02  0.2067E+02  0.6133E+02  0.6131E+02
     -3.812  0.2557E+02  0.2484E+02  0.6312E+02  0.6305E+02
     -3.743  0.1736E+02  0.1479E+02  0.6434E+02  0.6409E+02
     -3.673  0.2524E+02  0.2809E+02  0.6610E+02  0.6605E+02
     -3.603  0.2051E+02  0.2047E+02  0.6754E+02  0.6749E+02
     -3.533  0.1894E+02  0.1771E+02  0.6888E+02  0.6874E+02
     -3.463  0.2338E+02  0.2333E+02  0.7052E+02  0.7037E+02
     -3.393  0.2197E+02  0.2020E+02  0.7207E+02  0.7179E+02
     -3.323  0.2376E+02  0.2686E+02  0.7374E+02  0.7368E+02
     -3.253  0.1062E+02  0.1097E+02  0.7450E+02  0.7444E+02
     -3.184  0.1753E+02  0.1658E+02  0.7573E+02  0.7560E+02
     -3.114  0.2081E+02  0.2033E+02  0.7718E+02  0.7702E+02
     -3.044  0.2060E+02  0.1967E+02  0.7863E+02  0.7840E+02
     -2.974  0.1844E+02  0.1996E+02  0.7992E+02  0.7980E+02
     -2.904  0.1653E+02  0.1466E+02  0.8107E+02  0.8083E+02
     -2.834  0.2304E+02  0.2601E+02  0.8268E+02  0.8265E+02
     -2.764  0.1430E+02  0.1372E+02  0.8368E+02  0.8362E+02
     -2.694  0.2411E+02  0.2098E+02  0.8537E+02  0.8508E+02
     -2.625  0.2255E+02  0.2550E+02  0.8696E+02  0.8686E+02
     -2.555  0.1856E+02  0.1891E+02  0.8827E+02  0.8820E+02
     -2.485  0.2401E+02  0.2147E+02  0.8995E+02  0.8971E+02
     -2.415  0.1753E+02  0.1962E+02  0.9119E+02  0.9108E+02
     -2.345  0.2041E+02  0.1777E+02  0.9262E+02  0.9234E+02
     -2.275  0.1964E+02  0.2346E+02  0.9400E+02  0.9399E+02
     -2.205  0.1697E+02  0.1491E+02  0.9519E+02  0.9504E+02
     -2.135  0.2263E+02  0.2235E+02  0.9678E+02  0.9660E+02
     -2.066  0.2086E+02  0.2187E+02  0.9824E+02  0.9813E+02
     -1.996  0.1848E+02  0.1810E+02  0.9954E+02  0.9940E+02
     -1.926  0.3039E+02  0.3100E+02  0.1017E+03  0.1016E+03
     -1.856  0.1753E+02  0.1785E+02  0.1029E+03  0.1028E+03
     -1.786  0.2537E+02  0.2411E+02  0.1047E+03  0.1045E+03
     -1.716  0.2397E+02  0.2554E+02  0.1064E+03  0.1063E+03
     -1.646  0.2331E+02  0.2213E+02  0.1080E+03  0.1079E+03
     -1.576  0.1246E+02  0.1262E+02  0.1089E+03  0.1088E+03
     -1.507  0.2919E+02  0.2911E+02  0.1109E+03  0.1108E+03
     -1.437  0.2282E+02  0.2153E+02  0.1125E+03  0.1123E+03
     -1.367  0.2389E+02  0.2189E+02  0.1142E+03  0.1139E+03
     -1.297  0.1500E+02  0.1916E+02  0.1152E+03  0.1152E+03
     -1.227  0.2627E+02  0.2303E+02  0.1171E+03  0.1168E+03
     -1.157  0.2392E+02  0.2634E+02  0.1188E+03  0.1187E+03
     -1.087  0.2357E+02  0.2274E+02  0.1204E+03  0.1203E+03
     -1.017  0.2265E+02  0.2327E+02  0.1220E+03  0.1219E+03
     -0.948  0.2321E+02  0.2317E+02  0.1236E+03  0.1235E+03
     -0.878  0.2393E+02  0.2233E+02  0.1253E+03  0.1251E+03
     -0.808  0.1756E+02  0.1587E+02  0.1265E+03  0.1262E+03
     -0.738  0.2356E+02  0.2143E+02  0.1282E+03  0.1277E+03
     -0.668  0.2395E+02  0.2720E+02  0.1298E+03  0.1296E+03
     -0.598  0.2173E+02  0.1979E+02  0.1314E+03  0.1310E+03
     -0.528  0.2192E+02  0.2115E+02  0.1329E+03  0.1325E+03
     -0.458  0.2168E+02  0.2434E+02  0.1344E+03  0.1342E+03
     -0.389  0.2103E+02  0.1916E+02  0.1359E+03  0.1356E+03
     -0.319  0.1495E+02  0.1627E+02  0.1369E+03  0.1367E+03
     -0.249  0.1800E+02  0.1972E+02  0.1382E+03  0.1381E+03
     -0.179  0.2435E+02  0.2259E+02  0.1399E+03  0.1396E+03
     -0.109  0.2027E+02  0.2262E+02  0.1413E+03  0.1412E+03
     -0.039  0.3060E+02  0.2930E+02  0.1435E+03  0.1433E+03
      0.031  0.1606E+02  0.1589E+02  0.1446E+03  0.1444E+03
      0.101  0.2463E+02  0.2417E+02  0.1463E+03  0.1461E+03
      0.170  0.2297E+02  0.2366E+02  0.1479E+03  0.1478E+03
      0.240  0.2404E+02  0.2194E+02  0.1496E+03  0.1493E+03
      0.310  0.1333E+02  0.1508E+02  0.1506E+03  0.1504E+03
      0.380  0.2747E+02  0.2537E+02  0.1525E+03  0.1521E+03
      0.450  0.2355E+02  0.2231E+02  0.1541E+03  0.1537E+03
      0.520  0.2162E+02  0.2436E+02  0.1557E+03  0.1554E+03
      0.590  0.2362E+02  0.2293E+02  0.1573E+03  0.1570E+03
      0.660  0.1900E+02  0.1848E+02  0.1587E+03  0.1584E+03
      0.729  0.2765E+02  0.2801E+02  0.1606E+03  0.1603E+03
      0.799  0.2522E+02  0.2123E+02  0.1624E+03  0.1618E+03
      0.869  0.1919E+02  0.2194E+02  0.1637E+03  0.1634E+03
      0.939  0.2360E+02  0.2438E+02  0.1654E+03  0.1651E+03
      1.009  0.1897E+02  0.2092E+02  0.1667E+03  0.1665E+03
      1.079  0.1902E+02  0.1527E+02  0.1680E+03  0.1676E+03
      1.149  0.2733E+02  0.2712E+02  0.1700E+03  0.1695E+03
      1.219  0.1984E+02  0.2219E+02  0.1714E+03  0.1711E+03
      1.288  0.2462E+02  0.2755E+02  0.1731E+03  0.1730E+03
      1.358  0.3007E+02  0.2409E+02  0.1752E+03  0.1747E+03
      1.428  0.2705E+02  0.2814E+02  0.1771E+03  0.1767E+03
      1.498  0.2379E+02  0.2814E+02  0.1788E+03  0.1786E+03
      1.568  0.2963E+02  0.2553E+02  0.1808E+03  0.1804E+03
      1.638  0.2717E+02  0.3123E+02  0.1827E+03  0.1826E+03
      1.708  0.2544E+02  0.2508E+02  0.1845E+03  0.1844E+03
      1.778  0.2184E+02  0.2155E+02  0.1860E+03  0.1859E+03
      1.847  0.3322E+02  0.2941E+02  0.1884E+03  0.1879E+03
      1.917  0.2187E+02  0.2525E+02  0.1899E+03  0.1897E+03
      1.987  0.3077E+02  0.2490E+02  0.1921E+03  0.1915E+03
      2.057  0.3083E+02  0.3171E+02  0.1942E+03  0.1937E+03
      2.127  0.4305E+02  0.4211E+02  0.1972E+03  0.1966E+03
      2.197  0.2439E+02  0.2871E+02  0.1990E+03  0.1987E+03
      2.267  0.2232E+02  0.2163E+02  0.2005E+03  0.2002E+03
      2.337  0.3664E+02  0.3443E+02  0.2031E+03  0.2026E+03
      2.406  0.3849E+02  0.4024E+02  0.2058E+03  0.2054E+03
      2.476  0.3638E+02  0.3664E+02  0.2083E+03  0.2080E+03
      2.546  0.2678E+02  0.2764E+02  0.2102E+03  0.2099E+03
      2.616  0.3189E+02  0.3210E+02  0.2125E+03  0.2122E+03
      2.686  0.4292E+02  0.4022E+02  0.2155E+03  0.2150E+03
      2.756  0.3543E+02  0.3553E+02  0.2180E+03  0.2175E+03
      2.826  0.3544E+02  0.3545E+02  0.2204E+03  0.2200E+03
      2.896  0.3092E+02  0.3046E+02  0.2226E+03  0.2221E+03
      2.965  0.3402E+02  0.3443E+02  0.2250E+03  0.2245E+03
      3.035  0.3924E+02  0.4170E+02  0.2277E+03  0.2274E+03
      3.105  0.4035E+02  0.4112E+02  0.2306E+03  0.2303E+03
      3.175  0.3804E+02  0.3665E+02  0.2332E+03  0.2329E+03
      3.245  0.4225E+02  0.4190E+02  0.2362E+03  0.2358E+03
      3.315  0.4094E+02  0.4061E+02  0.2391E+03  0.2387E+03
      3.385  0.3989E+02  0.4275E+02  0.2419E+03  0.2417E+03
      3.455  0.4390E+02  0.3928E+02  0.2450E+03  0.2444E+03
      3.524  0.3316E+02  0.3458E+02  0.2473E+03  0.2469E+03
      3.594  0.3890E+02  0.4060E+02  0.2500E+03  0.2497E+03
      3.664  0.3906E+02  0.3754E+02  0.2527E+03  0.2523E+03
      3.734  0.3438E+02  0.3605E+02  0.2552E+03  0.2549E+03
      3.804  0.4044E+02  0.3998E+02  0.2580E+03  0.2577E+03
      3.874  0.4119E+02  0.3955E+02  0.2609E+03  0.2604E+03
      3.944  0.3969E+02  0.3973E+02  0.2637E+03  0.2632E+03
      4.014  0.3101E+02  0.3246E+02  0.2659E+03  0.2655E+03
      4.083  0.3258E+02  0.3198E+02  0.2681E+03  0.2677E+03
      4.153  0.3605E+02  0.3541E+02  0.2707E+03  0.2702E+03
      4.223  0.3398E+02  0.3368E+02  0.2730E+03  0.2726E+03
      4.293  0.3195E+02  0.3386E+02  0.2753E+03  0.2750E+03
      4.363  0.4405E+02  0.4036E+02  0.2784E+03  0.2778E+03
      4.433  0.3087E+02  0.2935E+02  0.2805E+03  0.2798E+03
      4.503  0.2638E+02  0.2830E+02  0.2824E+03  0.2818E+03
      4.573  0.2767E+02  0.3215E+02  0.2843E+03  0.2841E+03
      4.642  0.2989E+02  0.2706E+02  0.2864E+03  0.2860E+03
      4.712  0.3099E+02  0.2656E+02  0.2886E+03  0.2878E+03
      4.782  0.2506E+02  0.3087E+02  0.2903E+03  0.2900E+03
      4.852  0.2834E+02  0.2588E+02  0.2923E+03  0.2918E+03
      4.922  0.2756E+02  0.2961E+02  0.2943E+03  0.2939E+03
      4.992  0.2129E+02  0.1612E+02  0.2957E+03  0.2950E+03
      5.062  0.2606E+02  0.3042E+02  0.2976E+03  0.2972E+03
      5.132  0.2964E+02  0.2759E+02  0.2996E+03  0.2991E+03
      5.201  0.3336E+02  0.3183E+02  0.3020E+03  0.3013E+03
      5.271  0.2099E+02  0.2175E+02  0.3035E+03  0.3028E+03
      5.341  0.2683E+02  0.2588E+02  0.3054E+03  0.3047E+03
      5.411  0.2221E+02  0.2308E+02  0.3069E+03  0.3063E+03
      5.481  0.1977E+02  0.2018E+02  0.3083E+03  0.3077E+03
      5.551  0.2959E+02  0.2769E+02  0.3104E+03  0.3096E+03
      5.621  0.2131E+02  0.2108E+02  0.3119E+03  0.3111E+03
      5.691  0.2209E+02  0.2852E+02  0.3134E+03  0.3131E+03
      5.760  0.2308E+02  0.1435E+02  0.3150E+03  0.3141E+03
      5.830  0.2456E+02  0.2343E+02  0.3168E+03  0.3158E+03
      5.900  0.2889E+02  0.2334E+02  0.3188E+03  0.3174E+03
      5.970  0.2307E+02  0.2883E+02  0.3204E+03  0.3194E+03
      6.040  0.2758E+02  0.2236E+02  0.3223E+03  0.3210E+03
      6.110  0.2854E+02  0.2631E+02  0.3243E+03  0.3228E+03
      6.180  0.2920E+02  0.2345E+02  0.3264E+03  0.3245E+03
      6.250  0.3388E+02  0.3023E+02  0.3288E+03  0.3266E+03
      6.319  0.2590E+02  0.2885E+02  0.3306E+03  0.3286E+03
      6.389  0.2389E+02  0.2384E+02  0.3322E+03  0.3303E+03
      6.459  0.3698E+02  0.3392E+02  0.3348E+03  0.3327E+03
      6.529  0.3537E+02  0.3821E+02  0.3373E+03  0.3353E+03
      6.599  0.2194E+02  0.2794E+02  0.3389E+03  0.3373E+03
      6.669  0.4140E+02  0.3082E+02  0.3418E+03  0.3395E+03
      6.739  0.2454E+02  0.3557E+02  0.3435E+03  0.3419E+03
      6.809  0.3528E+02  0.3718E+02  0.3459E+03  0.3445E+03
      6.878  0.2719E+02  0.2744E+02  0.3478E+03  0.3465E+03
      6.948  0.3144E+02  0.2870E+02  0.3501E+03  0.3485E+03
      7.018  0.2757E+02  0.3829E+02  0.3520E+03  0.3512E+03
      7.088  0.2213E+02  0.1967E+02  0.3535E+03  0.3525E+03
      7.158  0.3272E+02  0.3140E+02  0.3558E+03  0.3547E+03
      7.228  0.2991E+02  0.3398E+02  0.3579E+03  0.3571E+03
      7.298  0.2647E+02  0.2357E+02  0.3598E+03  0.3588E+03
      7.368  0.2770E+02  0.3033E+02  0.3617E+03  0.3609E+03
      7.437  0.2861E+02  0.2979E+02  0.3637E+03  0.3630E+03
      7.507  0.3176E+02  0.2972E+02  0.3659E+03  0.3651E+03
      7.577  0.3486E+02  0.3499E+02  0.3684E+03  0.3675E+03
      7.647  0.3167E+02  0.3033E+02  0.3706E+03  0.3696E+03
      7.717  0.4063E+02  0.4201E+02  0.3734E+03  0.3726E+03
      7.787  0.2692E+02  0.3086E+02  0.3753E+03  0.3748E+03
      7.857  0.3925E+02  0.3844E+02  0.3781E+03  0.3774E+03
      7.927  0.3998E+02  0.4048E+02  0.3809E+03  0.3803E+03
      7.996  0.3777E+02  0.3740E+02  0.3835E+03  0.3829E+03
      8.066  0.3214E+02  0.3593E+02  0.3858E+03  0.3854E+03
      8.136  0.3981E+02  0.4024E+02  0.3886E+03  0.3882E+03
      8.206  0.4048E+02  0.3659E+02  0.3914E+03  0.3908E+03
      8.276  0.3886E+02  0.3972E+02  0.3941E+03  0.3936E+03
      8.346  0.4374E+02  0.3945E+02  0.3972E+03  0.3964E+03
      8.416  0.4105E+02  0.4558E+02  0.4001E+03  0.3996E+03
      8.486  0.3877E+02  0.3867E+02  0.4028E+03  0.4023E+03
      8.555  0.3986E+02  0.3903E+02  0.4056E+03  0.4050E+03
      8.625  0.2021E+02  0.2408E+02  0.4070E+03  0.4067E+03
      8.695  0.1272E+02  0.1743E+02  0.4080E+03  0.4079E+03
      8.765  0.7092E+00  0.1192E+01  0.4080E+03  0.4080E+03
      8.835  0.0000E+00  0.0000E+00  0.4080E+03  0.4080E+03
      8.905  0.0000E+00  0.0000E+00  0.4080E+03  0.4080E+03
      8.975  0.0000E+00  0.0000E+00  0.4080E+03  0.4080E+03
      9.045  0.0000E+00  0.0000E+00  0.4080E+03  0.4080E+03
      9.114  0.0000E+00  0.0000E+00  0.4080E+03  0.4080E+03
      9.184  0.0000E+00  0.0000E+00  0.4080E+03  0.4080E+03
      9.254  0.0000E+00  0.0000E+00  0.4080E+03  0.4080E+03
      9.324  0.0000E+00  0.0000E+00  0.4080E+03  0.4080E+03
      9.394  0.0000E+00  0.0000E+00  0.4080E+03  0.4080E+03
      9.464  0.0000E+00  0.0000E+00  0.4080E+03  0.4080E+03
      9.534  0.0000E+00  0.0000E+00  0.4080E+03  0.4080E+03
      9.604  0.0000E+00  0.0000E+00  0.4080E+03  0.4080E+03
      9.673  0.0000E+00  0.0000E+00  0.4080E+03  0.4080E+03
