Si and Ge interface calculation         
           1
     5.431000    0.000000    0.000000
     0.000000   16.293001    0.000000
     0.000000    0.000000   16.790424
   Si   Ge
    36    48
Direct configuration=     1
   0.01779686  0.66666675  0.00000000
   0.51779687  0.66666675  0.16172911
   0.01779687  0.66666675  0.32345823
   0.01779686  0.33333337  0.00000000
   0.51779687  0.33333337  0.16172911
   0.01779687  0.33333337  0.32345823
   0.01779686  0.00000000  0.00000000
   0.51779687  0.00000000  0.16172911
   0.01779687  0.00000000  0.32345823
   0.26779687  0.91666675  0.08086456
   0.76779693  0.91666675  0.24259369
   0.26779699  0.91666675  0.40432274
   0.26779687  0.58333343  0.08086456
   0.76779693  0.58333343  0.24259369
   0.26779699  0.58333343  0.40432274
   0.26779687  0.25000000  0.08086456
   0.76779693  0.25000000  0.24259369
   0.26779699  0.25000000  0.40432274
   0.51779687  0.83333331  0.00000000
   0.01779687  0.83333331  0.16172911
   0.51779699  0.83333331  0.32345823
   0.51779687  0.50000000  0.00000000
   0.01779687  0.50000000  0.16172911
   0.51779699  0.50000000  0.32345823
   0.51779687  0.16666669  0.00000000
   0.01779687  0.16666669  0.16172911
   0.51779699  0.16666669  0.32345823
   0.76779693  0.75000006  0.08086456
   0.26779687  0.75000006  0.24259369
   0.76779699  0.75000006  0.40432274
   0.76779693  0.41666669  0.08086456
   0.26779687  0.41666669  0.24259369
   0.76779699  0.41666669  0.40432274
   0.76779693  0.08333335  0.08086456
   0.26779687  0.08333335  0.24259369
   0.76779699  0.08333335  0.40432274
   0.05867448  0.45599416  0.40432277
   0.55867451  0.08099414  0.52345824
   0.05867446  0.70599413  0.64259362
   0.55867422  0.33099425  0.76172900
   0.05867457  0.95599413  0.88086450
   0.55867457  0.58099413  0.00000000
   0.05867448  0.95599413  0.40432277
   0.55867451  0.58099413  0.52345824
   0.05867446  0.20599413  0.64259362
   0.55867422  0.83099437  0.76172900
   0.05867457  0.45599413  0.88086450
   0.55867457  0.08099413  0.99999988
   0.05867448  0.70599413  0.40432277
   0.55867451  0.33099413  0.52345824
   0.05867446  0.95599413  0.64259362
   0.55867422  0.58099425  0.76172912
   0.05867457  0.20599419  0.88086450
   0.55867457  0.83099413  0.00000000
   0.05867448  0.20599414  0.40432277
   0.55867451  0.83099413  0.52345824
   0.05867446  0.45599413  0.64259362
   0.55867422  0.08099425  0.76172912
   0.05867457  0.70599425  0.88086450
   0.55867457  0.33099413  0.99999988
   0.80867446  0.58099419  0.40432277
   0.30867446  0.20599416  0.52345824
   0.80867457  0.83099413  0.64259362
   0.30867433  0.45599425  0.76172900
   0.80867457  0.08099419  0.88086450
   0.30867433  0.70599413  0.00000000
   0.80867446  0.08099414  0.40432277
   0.30867446  0.70599413  0.52345824
   0.80867457  0.33099413  0.64259362
   0.30867433  0.95599425  0.76172912
   0.80867457  0.58099425  0.88086450
   0.30867433  0.20599401  0.99999988
   0.80867446  0.83099419  0.40432277
   0.30867446  0.45599419  0.52345824
   0.80867457  0.08099417  0.64259362
   0.30867433  0.70599431  0.76172900
   0.80867457  0.33099425  0.88086450
   0.30867433  0.95599413  0.99999988
   0.80867446  0.33099413  0.40432277
   0.30867446  0.95599413  0.52345824
   0.80867457  0.58099413  0.64259362
   0.30867433  0.20599425  0.76172912
   0.80867457  0.83099413  0.88086450
   0.30867433  0.45599413  0.99999988
