Si and Ge interface calculation         
           1
    13.303180    0.000000    0.000000
     6.651589   14.873406    0.000000
     0.000000    0.000000    7.994752
   Si   C 
    36    84
Direct configuration=     1
   0.28324950  0.64162475  0.00000005
   0.81658280  0.40829128  0.15190083
   0.34991598  0.17495777  0.30380166
   0.61658275  0.30829138  0.00000006
   0.14991605  0.07495793  0.15190083
   0.68324923  0.84162444  0.30380163
   0.94991612  0.97495806  0.00000004
   0.48324949  0.74162459  0.15190083
   0.01658267  0.50829112  0.30380163
   0.79991627  0.77495801  0.07595029
   0.33324951  0.54162455  0.22785109
   0.86658275  0.30829108  0.37975195
   0.13324969  0.44162476  0.07595030
   0.66658294  0.20829128  0.22785109
   0.19991624  0.97495776  0.37975195
   0.46658289  0.10829154  0.07595030
   0.99991614  0.87495804  0.22785109
   0.53324938  0.64162457  0.37975195
   0.78324956  0.64162475  0.00000000
   0.31658283  0.40829128  0.15190081
   0.84991604  0.17495778  0.30380166
   0.11658280  0.30829140  0.00000006
   0.64991605  0.07495795  0.15190086
   0.18324930  0.84162450  0.30380166
   0.44991612  0.97495806  0.00000006
   0.98324943  0.74162459  0.15190086
   0.51658267  0.50829112  0.30380166
   0.29991618  0.77495813  0.07595030
   0.83324945  0.54162467  0.22785115
   0.36658269  0.30829120  0.37975192
   0.63324940  0.44162473  0.07595032
   0.16658264  0.20829126  0.22785115
   0.69991595  0.97495782  0.37975189
   0.96658272  0.10829155  0.07595030
   0.49991596  0.87495804  0.22785115
   0.03324926  0.64162463  0.37975195
   0.24915743  0.88883990  0.76469648
   0.59201449  0.91741157  0.56517530
   0.92058599  0.90312576  0.66493589
   0.53487158  0.74598283  0.76469648
   0.87772882  0.77455443  0.56517530
   0.20630026  0.76026863  0.66493589
   0.82058585  0.60312569  0.76469648
   0.16344297  0.63169730  0.56517530
   0.49201444  0.61741149  0.66493589
   0.10630023  0.46026850  0.76469648
   0.44915736  0.48884010  0.56517523
   0.77772880  0.47455433  0.66493589
   0.39201453  0.31741136  0.76469648
   0.73487163  0.34598297  0.56517523
   0.06344307  0.33169720  0.66493589
   0.67772877  0.17455426  0.76469648
   0.02058590  0.20312586  0.56517523
   0.34915736  0.18884009  0.66493589
   0.96344316  0.03169715  0.76469654
   0.30630022  0.06026864  0.56517523
   0.63487172  0.04598296  0.66493589
   0.69915724  0.98883992  0.81457668
   0.04201436  0.01741147  0.61505550
   0.37058583  0.00312567  0.71481615
   0.98487151  0.84598279  0.81457668
   0.32772866  0.87455440  0.61505550
   0.65630007  0.86026853  0.71481615
   0.27058578  0.70312566  0.81457681
   0.61344296  0.73169726  0.61505544
   0.94201446  0.71741146  0.71481609
   0.55630016  0.56026858  0.81457668
   0.89915729  0.58884013  0.61505544
   0.22772872  0.57455438  0.71481615
   0.84201455  0.41741145  0.81457681
   0.18487167  0.44598302  0.61505544
   0.51344299  0.43169725  0.71481609
   0.12772870  0.27455425  0.81457681
   0.47058588  0.30312586  0.61505550
   0.79915738  0.28884006  0.71481615
   0.41344312  0.13169712  0.81457668
   0.75630021  0.16026872  0.61505550
   0.08487165  0.14598292  0.71481609
   0.74915731  0.88883996  0.76469648
   0.09201443  0.91741145  0.56517523
   0.42058578  0.90312576  0.66493595
   0.03487182  0.74598283  0.76469654
   0.37772882  0.77455443  0.56517523
   0.70630026  0.76026863  0.66493589
   0.32058611  0.60312569  0.76469654
   0.66344309  0.63169730  0.56517523
   0.99201453  0.61741149  0.66493589
   0.60630023  0.46026856  0.76469654
   0.94915736  0.48884013  0.56517523
   0.27772871  0.47455436  0.66493589
   0.89201438  0.31741148  0.76469654
   0.23487163  0.34598300  0.56517523
   0.56344307  0.33169720  0.66493589
   0.17772889  0.17455427  0.76469654
   0.52058589  0.20312583  0.56517530
   0.84915745  0.18884003  0.66493589
   0.46344307  0.03169715  0.76469654
   0.80630016  0.06026876  0.56517530
   0.13487160  0.04598296  0.66493589
   0.19915736  0.98884004  0.81457668
   0.54201448  0.01741159  0.61505550
   0.87058580  0.00312567  0.71481609
   0.48487166  0.84598285  0.81457668
   0.82772875  0.87455446  0.61505550
   0.15630019  0.86026859  0.71481609
   0.77058589  0.70312566  0.81457668
   0.11344314  0.73169726  0.61505550
   0.44201460  0.71741140  0.71481609
   0.05630004  0.56026858  0.81457663
   0.39915731  0.58884007  0.61505544
   0.72772872  0.57455432  0.71481609
   0.34201458  0.41741139  0.81457668
   0.68487173  0.44598296  0.61505544
   0.01344311  0.43169719  0.71481609
   0.62772858  0.27455422  0.81457668
   0.97058582  0.30312583  0.61505544
   0.29915717  0.28884006  0.71481609
   0.91344297  0.13169719  0.81457668
   0.25630021  0.16026869  0.61505550
   0.58487153  0.14598292  0.71481615
