 168 168   0   0
  0.2759767E+02  0.1131560E-08  0.1959920E-08  0.2560422E-08  0.5000000E-15
  1.000000000000000E-004
  CAR 
 Si and Ge interface calculation         
      6.36283841     -9.87304916  301      3.41753808      1.00000000
     -9.873  0.0000E+00  0.0000E+00  0.0000E+00  0.0000E+00
     -9.819  0.0000E+00  0.0000E+00  0.0000E+00  0.0000E+00
     -9.765  0.0000E+00  0.0000E+00  0.0000E+00  0.0000E+00
     -9.711  0.0000E+00  0.0000E+00  0.0000E+00  0.0000E+00
     -9.657  0.0000E+00  0.0000E+00  0.0000E+00  0.0000E+00
     -9.602  0.0000E+00  0.0000E+00  0.0000E+00  0.0000E+00
     -9.548  0.0000E+00  0.0000E+00  0.0000E+00  0.0000E+00
     -9.494  0.0000E+00  0.0000E+00  0.0000E+00  0.0000E+00
     -9.440  0.0000E+00  0.0000E+00  0.0000E+00  0.0000E+00
     -9.386  0.0000E+00  0.0000E+00  0.0000E+00  0.0000E+00
     -9.332  0.0000E+00  0.0000E+00  0.0000E+00  0.0000E+00
     -9.278  0.0000E+00  0.0000E+00  0.0000E+00  0.0000E+00
     -9.224  0.0000E+00  0.0000E+00  0.0000E+00  0.0000E+00
     -9.169  0.3428E-05  0.4274E-07  0.1855E-06  0.2313E-08
     -9.115  0.6143E+01  0.6012E+01  0.3324E+00  0.3254E+00
     -9.061  0.1659E-01  0.1473E+00  0.3333E+00  0.3333E+00
     -9.007  0.2348E+02  0.2018E+02  0.1604E+01  0.1425E+01
     -8.953  0.1348E+02  0.1677E+02  0.2333E+01  0.2333E+01
     -8.899  0.6135E+01  0.5976E+01  0.2665E+01  0.2657E+01
     -8.845  0.8624E+01  0.3780E+01  0.3132E+01  0.2861E+01
     -8.791  0.4060E+02  0.4515E+02  0.5329E+01  0.5305E+01
     -8.737  0.2473E+02  0.2437E+02  0.6668E+01  0.6624E+01
     -8.682  0.2986E+02  0.2634E+02  0.8284E+01  0.8049E+01
     -8.628  0.2189E+02  0.2128E+02  0.9469E+01  0.9200E+01
     -8.574  0.5303E+02  0.4968E+02  0.1234E+02  0.1189E+02
     -8.520  0.1935E+02  0.2692E+02  0.1339E+02  0.1335E+02
     -8.466  0.2269E+02  0.2239E+02  0.1461E+02  0.1456E+02
     -8.412  0.1415E+02  0.1454E+02  0.1538E+02  0.1534E+02
     -8.358  0.3866E+02  0.3572E+02  0.1747E+02  0.1728E+02
     -8.304  0.4310E+01  0.7469E+01  0.1771E+02  0.1768E+02
     -8.249  0.2672E+02  0.1949E+02  0.1915E+02  0.1874E+02
     -8.195  0.4033E+02  0.4722E+02  0.2133E+02  0.2129E+02
     -8.141  0.1233E+02  0.1310E+02  0.2200E+02  0.2200E+02
     -8.087  0.1844E+02  0.1847E+02  0.2300E+02  0.2300E+02
     -8.033  0.3694E+00  0.5825E-01  0.2302E+02  0.2300E+02
     -7.979  0.1203E+02  0.1227E+02  0.2367E+02  0.2367E+02
     -7.925  0.4445E+02  0.3814E+02  0.2608E+02  0.2573E+02
     -7.871  0.5257E+01  0.1119E+02  0.2636E+02  0.2634E+02
     -7.817  0.3102E+02  0.2842E+02  0.2804E+02  0.2787E+02
     -7.762  0.2759E+02  0.2757E+02  0.2953E+02  0.2937E+02
     -7.708  0.9861E+01  0.9812E+01  0.3007E+02  0.2990E+02
     -7.654  0.4697E+02  0.4735E+02  0.3261E+02  0.3246E+02
     -7.600  0.3564E+02  0.3412E+02  0.3454E+02  0.3431E+02
     -7.546  0.2541E+02  0.2499E+02  0.3591E+02  0.3566E+02
     -7.492  0.5475E+02  0.5527E+02  0.3888E+02  0.3865E+02
     -7.438  0.1180E+02  0.1388E+02  0.3951E+02  0.3940E+02
     -7.384  0.9150E+01  0.1107E+02  0.4001E+02  0.4000E+02
     -7.329  0.3116E+02  0.3087E+02  0.4170E+02  0.4167E+02
     -7.275  0.3656E+02  0.3296E+02  0.4367E+02  0.4346E+02
     -7.221  0.4533E+02  0.4241E+02  0.4613E+02  0.4575E+02
     -7.167  0.4848E+02  0.5106E+02  0.4875E+02  0.4851E+02
     -7.113  0.5409E+02  0.5224E+02  0.5168E+02  0.5134E+02
     -7.059  0.3073E+02  0.3677E+02  0.5334E+02  0.5333E+02
     -7.005  0.3147E+02  0.2714E+02  0.5504E+02  0.5480E+02
     -6.951  0.5138E+02  0.4996E+02  0.5783E+02  0.5750E+02
     -6.896  0.5570E+02  0.5711E+02  0.6084E+02  0.6060E+02
     -6.842  0.3454E+02  0.3421E+02  0.6271E+02  0.6245E+02
     -6.788  0.5038E+02  0.5210E+02  0.6544E+02  0.6527E+02
     -6.734  0.3576E+02  0.3831E+02  0.6737E+02  0.6734E+02
     -6.680  0.4316E+02  0.3739E+02  0.6971E+02  0.6936E+02
     -6.626  0.3303E+02  0.3454E+02  0.7149E+02  0.7123E+02
     -6.572  0.5088E+02  0.5327E+02  0.7425E+02  0.7411E+02
     -6.518  0.3770E+02  0.3777E+02  0.7629E+02  0.7616E+02
     -6.464  0.2560E+02  0.2787E+02  0.7767E+02  0.7767E+02
     -6.409  0.3712E+02  0.3669E+02  0.7968E+02  0.7965E+02
     -6.355  0.5184E+02  0.4748E+02  0.8249E+02  0.8222E+02
     -6.301  0.7100E+02  0.6717E+02  0.8633E+02  0.8586E+02
     -6.247  0.4232E+02  0.4759E+02  0.8862E+02  0.8843E+02
     -6.193  0.5522E+02  0.4945E+02  0.9161E+02  0.9111E+02
     -6.139  0.3806E+02  0.4722E+02  0.9367E+02  0.9367E+02
     -6.085  0.5234E+02  0.4616E+02  0.9650E+02  0.9616E+02
     -6.031  0.5119E+02  0.5550E+02  0.9927E+02  0.9917E+02
     -5.976  0.2374E+02  0.1873E+02  0.1006E+03  0.1002E+03
     -5.922  0.3834E+02  0.4393E+02  0.1026E+03  0.1026E+03
     -5.868  0.1217E+02  0.1133E+02  0.1033E+03  0.1032E+03
     -5.814  0.4324E+02  0.3947E+02  0.1056E+03  0.1053E+03
     -5.760  0.4365E+02  0.4908E+02  0.1080E+03  0.1080E+03
     -5.706  0.4179E+02  0.3910E+02  0.1103E+03  0.1101E+03
     -5.652  0.4738E+02  0.4453E+02  0.1128E+03  0.1125E+03
     -5.598  0.9972E+01  0.1570E+02  0.1134E+03  0.1133E+03
     -5.543  0.3780E+02  0.3513E+02  0.1154E+03  0.1152E+03
     -5.489  0.4456E+02  0.4181E+02  0.1178E+03  0.1175E+03
     -5.435  0.8826E+02  0.8320E+02  0.1226E+03  0.1220E+03
     -5.381  0.2741E+02  0.3173E+02  0.1241E+03  0.1237E+03
     -5.327  0.7279E+02  0.6851E+02  0.1280E+03  0.1274E+03
     -5.273  0.4014E+02  0.4728E+02  0.1302E+03  0.1300E+03
     -5.219  0.6366E+02  0.6488E+02  0.1336E+03  0.1335E+03
     -5.165  0.5134E+02  0.4247E+02  0.1364E+03  0.1358E+03
     -5.111  0.6901E+02  0.7516E+02  0.1401E+03  0.1399E+03
     -5.056  0.4595E+02  0.3915E+02  0.1426E+03  0.1420E+03
     -5.002  0.6217E+02  0.7367E+02  0.1460E+03  0.1460E+03
     -4.948  0.6174E+02  0.5503E+02  0.1493E+03  0.1490E+03
     -4.894  0.4207E+02  0.4617E+02  0.1516E+03  0.1515E+03
     -4.840  0.3226E+02  0.3455E+02  0.1534E+03  0.1533E+03
     -4.786  0.6363E+02  0.5200E+02  0.1568E+03  0.1561E+03
     -4.732  0.7941E+02  0.8950E+02  0.1611E+03  0.1610E+03
     -4.678  0.5113E+02  0.4427E+02  0.1639E+03  0.1634E+03
     -4.623  0.3925E+02  0.4717E+02  0.1660E+03  0.1659E+03
     -4.569  0.3857E+02  0.3659E+02  0.1681E+03  0.1679E+03
     -4.515  0.4732E+02  0.4575E+02  0.1706E+03  0.1704E+03
     -4.461  0.6151E+02  0.5645E+02  0.1740E+03  0.1734E+03
     -4.407  0.3398E+02  0.3958E+02  0.1758E+03  0.1756E+03
     -4.353  0.8559E+02  0.8551E+02  0.1804E+03  0.1802E+03
     -4.299  0.5056E+02  0.4749E+02  0.1832E+03  0.1828E+03
     -4.245  0.5174E+02  0.5732E+02  0.1860E+03  0.1859E+03
     -4.190  0.3594E+02  0.3414E+02  0.1879E+03  0.1877E+03
     -4.136  0.2416E+02  0.2487E+02  0.1892E+03  0.1891E+03
     -4.082  0.5079E+02  0.5016E+02  0.1920E+03  0.1918E+03
     -4.028  0.5812E+02  0.5997E+02  0.1951E+03  0.1950E+03
     -3.974  0.4841E+02  0.4868E+02  0.1977E+03  0.1977E+03
     -3.920  0.6044E+02  0.5620E+02  0.2010E+03  0.2007E+03
     -3.866  0.6635E+02  0.6762E+02  0.2046E+03  0.2044E+03
     -3.812  0.4119E+02  0.4342E+02  0.2068E+03  0.2067E+03
     -3.758  0.3979E+02  0.3936E+02  0.2090E+03  0.2089E+03
     -3.703  0.6723E+02  0.6101E+02  0.2126E+03  0.2122E+03
     -3.649  0.4668E+02  0.5344E+02  0.2152E+03  0.2150E+03
     -3.595  0.7036E+02  0.6805E+02  0.2190E+03  0.2187E+03
     -3.541  0.5199E+02  0.5084E+02  0.2218E+03  0.2215E+03
     -3.487  0.2792E+02  0.2962E+02  0.2233E+03  0.2231E+03
     -3.433  0.4198E+02  0.4263E+02  0.2256E+03  0.2254E+03
     -3.379  0.5739E+02  0.5985E+02  0.2287E+03  0.2286E+03
     -3.325  0.4078E+02  0.3269E+02  0.2309E+03  0.2304E+03
     -3.270  0.2510E+02  0.3025E+02  0.2322E+03  0.2320E+03
     -3.216  0.8863E+02  0.8209E+02  0.2370E+03  0.2365E+03
     -3.162  0.4270E+02  0.4845E+02  0.2393E+03  0.2391E+03
     -3.108  0.2685E+02  0.2463E+02  0.2408E+03  0.2404E+03
     -3.054  0.2553E+02  0.3034E+02  0.2422E+03  0.2421E+03
     -3.000  0.2786E+02  0.2472E+02  0.2437E+03  0.2434E+03
     -2.946  0.5725E+02  0.5648E+02  0.2468E+03  0.2465E+03
     -2.892  0.3297E+02  0.3561E+02  0.2486E+03  0.2484E+03
     -2.837  0.5468E+02  0.5305E+02  0.2515E+03  0.2513E+03
     -2.783  0.3290E+02  0.3437E+02  0.2533E+03  0.2531E+03
     -2.729  0.6632E+02  0.6452E+02  0.2569E+03  0.2566E+03
     -2.675  0.5197E+02  0.5064E+02  0.2597E+03  0.2594E+03
     -2.621  0.5757E+02  0.5666E+02  0.2628E+03  0.2624E+03
     -2.567  0.8277E+02  0.8230E+02  0.2673E+03  0.2669E+03
     -2.513  0.4954E+02  0.5604E+02  0.2700E+03  0.2699E+03
     -2.459  0.5670E+02  0.5458E+02  0.2731E+03  0.2729E+03
     -2.405  0.1140E+02  0.1478E+02  0.2737E+03  0.2737E+03
     -2.350  0.5184E+02  0.4910E+02  0.2765E+03  0.2763E+03
     -2.296  0.6766E+02  0.6528E+02  0.2801E+03  0.2799E+03
     -2.242  0.4971E+02  0.4701E+02  0.2828E+03  0.2824E+03
     -2.188  0.3327E+02  0.3881E+02  0.2846E+03  0.2845E+03
     -2.134  0.1227E+02  0.1079E+02  0.2853E+03  0.2851E+03
     -2.080  0.4122E+02  0.3974E+02  0.2875E+03  0.2872E+03
     -2.026  0.2756E+02  0.3262E+02  0.2890E+03  0.2890E+03
     -1.972  0.2349E+02  0.2196E+02  0.2903E+03  0.2902E+03
     -1.917  0.2721E+02  0.2344E+02  0.2918E+03  0.2915E+03
     -1.863  0.5678E+02  0.5695E+02  0.2948E+03  0.2945E+03
     -1.809  0.4570E+02  0.4773E+02  0.2973E+03  0.2971E+03
     -1.755  0.2512E+02  0.2782E+02  0.2987E+03  0.2986E+03
     -1.701  0.3864E+02  0.3803E+02  0.3008E+03  0.3007E+03
     -1.647  0.2998E+02  0.3057E+02  0.3024E+03  0.3023E+03
     -1.593  0.3424E+02  0.3134E+02  0.3042E+03  0.3040E+03
     -1.539  0.5510E+02  0.5505E+02  0.3072E+03  0.3070E+03
     -1.485  0.8446E+01  0.1199E+02  0.3077E+03  0.3077E+03
     -1.430  0.1650E+02  0.8455E+01  0.3086E+03  0.3081E+03
     -1.376  0.4562E+02  0.4984E+02  0.3110E+03  0.3108E+03
     -1.322  0.2950E+02  0.2531E+02  0.3126E+03  0.3122E+03
     -1.268  0.2540E+02  0.3342E+02  0.3140E+03  0.3140E+03
     -1.214  0.2410E+02  0.2264E+02  0.3153E+03  0.3152E+03
     -1.160  0.2293E+02  0.1977E+02  0.3165E+03  0.3163E+03
     -1.106  0.2167E+02  0.2564E+02  0.3177E+03  0.3177E+03
     -1.052  0.9051E+01  0.7539E+01  0.3182E+03  0.3181E+03
     -0.997  0.1721E+02  0.1509E+02  0.3191E+03  0.3189E+03
     -0.943  0.2756E+02  0.3045E+02  0.3206E+03  0.3206E+03
     -0.889  0.1045E+02  0.8186E+01  0.3212E+03  0.3210E+03
     -0.835  0.2553E+01  0.6187E+01  0.3213E+03  0.3213E+03
     -0.781  0.1235E+02  0.1232E+02  0.3220E+03  0.3220E+03
     -0.727  0.3324E+02  0.2872E+02  0.3238E+03  0.3236E+03
     -0.673  0.5211E+02  0.5048E+02  0.3266E+03  0.3263E+03
     -0.619  0.2395E+02  0.2674E+02  0.3279E+03  0.3277E+03
     -0.564  0.9328E+02  0.9270E+02  0.3330E+03  0.3328E+03
     -0.510  0.2814E+02  0.2653E+02  0.3345E+03  0.3342E+03
     -0.456  0.7203E+02  0.6746E+02  0.3384E+03  0.3378E+03
     -0.402  0.6567E+02  0.6923E+02  0.3419E+03  0.3416E+03
     -0.348  0.7200E+02  0.6679E+02  0.3458E+03  0.3452E+03
     -0.294  0.1088E+03  0.1171E+03  0.3517E+03  0.3515E+03
     -0.240  0.6198E+02  0.5748E+02  0.3551E+03  0.3546E+03
     -0.186  0.7557E+02  0.8064E+02  0.3592E+03  0.3590E+03
     -0.132  0.6484E+02  0.6048E+02  0.3627E+03  0.3623E+03
     -0.077  0.5480E+02  0.5255E+02  0.3656E+03  0.3651E+03
     -0.023  0.1213E+03  0.1261E+03  0.3722E+03  0.3720E+03
      0.031  0.4573E+02  0.4583E+02  0.3747E+03  0.3744E+03
      0.085  0.6640E+02  0.6641E+02  0.3783E+03  0.3780E+03
      0.139  0.8862E+02  0.8122E+02  0.3831E+03  0.3824E+03
      0.193  0.7843E+02  0.8431E+02  0.3873E+03  0.3870E+03
      0.247  0.9567E+02  0.9667E+02  0.3925E+03  0.3922E+03
      0.301  0.4267E+02  0.3952E+02  0.3948E+03  0.3944E+03
      0.356  0.1280E+03  0.1229E+03  0.4017E+03  0.4010E+03
      0.410  0.1018E+03  0.1048E+03  0.4072E+03  0.4067E+03
      0.464  0.8763E+02  0.8530E+02  0.4120E+03  0.4113E+03
      0.518  0.1179E+03  0.1227E+03  0.4184E+03  0.4179E+03
      0.572  0.1091E+03  0.1058E+03  0.4243E+03  0.4237E+03
      0.626  0.9589E+02  0.9636E+02  0.4295E+03  0.4289E+03
      0.680  0.1268E+03  0.1286E+03  0.4363E+03  0.4358E+03
      0.734  0.1624E+03  0.1639E+03  0.4451E+03  0.4447E+03
      0.789  0.1147E+03  0.1092E+03  0.4513E+03  0.4506E+03
      0.843  0.1402E+03  0.1404E+03  0.4589E+03  0.4582E+03
      0.897  0.1079E+03  0.1113E+03  0.4648E+03  0.4642E+03
      0.951  0.7256E+02  0.7430E+02  0.4687E+03  0.4683E+03
      1.005  0.8192E+02  0.7928E+02  0.4731E+03  0.4725E+03
      1.059  0.9315E+02  0.9688E+02  0.4782E+03  0.4778E+03
      1.113  0.9798E+02  0.9048E+02  0.4835E+03  0.4827E+03
      1.167  0.1234E+03  0.1320E+03  0.4901E+03  0.4898E+03
      1.221  0.9706E+02  0.9466E+02  0.4954E+03  0.4950E+03
      1.276  0.1699E+03  0.1593E+03  0.5046E+03  0.5036E+03
      1.330  0.8445E+02  0.9426E+02  0.5092E+03  0.5087E+03
      1.384  0.1055E+03  0.1070E+03  0.5149E+03  0.5145E+03
      1.438  0.1025E+03  0.1036E+03  0.5204E+03  0.5201E+03
      1.492  0.1457E+03  0.1335E+03  0.5283E+03  0.5273E+03
      1.546  0.1055E+03  0.1144E+03  0.5340E+03  0.5335E+03
      1.600  0.9443E+02  0.9352E+02  0.5391E+03  0.5385E+03
      1.654  0.1215E+03  0.1182E+03  0.5457E+03  0.5449E+03
      1.709  0.1025E+03  0.1045E+03  0.5512E+03  0.5506E+03
      1.763  0.1032E+03  0.1053E+03  0.5568E+03  0.5563E+03
      1.817  0.1303E+03  0.1281E+03  0.5639E+03  0.5632E+03
      1.871  0.1270E+03  0.1338E+03  0.5708E+03  0.5705E+03
      1.925  0.4785E+02  0.4875E+02  0.5734E+03  0.5731E+03
      1.979  0.1145E+03  0.1065E+03  0.5795E+03  0.5789E+03
      2.033  0.8846E+02  0.9240E+02  0.5843E+03  0.5839E+03
      2.087  0.8572E+02  0.8551E+02  0.5890E+03  0.5885E+03
      2.142  0.1028E+03  0.1005E+03  0.5945E+03  0.5939E+03
      2.196  0.1009E+03  0.1011E+03  0.6000E+03  0.5994E+03
      2.250  0.5457E+02  0.5297E+02  0.6030E+03  0.6023E+03
      2.304  0.9020E+02  0.9034E+02  0.6078E+03  0.6072E+03
      2.358  0.7588E+02  0.7986E+02  0.6119E+03  0.6115E+03
      2.412  0.5017E+02  0.5214E+02  0.6147E+03  0.6143E+03
      2.466  0.9048E+02  0.8512E+02  0.6196E+03  0.6189E+03
      2.520  0.1123E+03  0.1161E+03  0.6256E+03  0.6252E+03
      2.574  0.8085E+02  0.7596E+02  0.6300E+03  0.6293E+03
      2.629  0.4335E+02  0.5573E+02  0.6323E+03  0.6323E+03
      2.683  0.4323E+02  0.2921E+02  0.6347E+03  0.6339E+03
      2.737  0.8247E+02  0.8497E+02  0.6392E+03  0.6385E+03
      2.791  0.6631E+02  0.7675E+02  0.6427E+03  0.6427E+03
      2.845  0.7830E+02  0.7083E+02  0.6470E+03  0.6465E+03
      2.899  0.4222E+02  0.4682E+02  0.6493E+03  0.6490E+03
      2.953  0.1979E+02  0.1418E+02  0.6503E+03  0.6498E+03
      3.007  0.7877E+02  0.8321E+02  0.6546E+03  0.6543E+03
      3.062  0.1429E+02  0.1870E+02  0.6554E+03  0.6553E+03
      3.116  0.6661E+02  0.5791E+02  0.6590E+03  0.6585E+03
      3.170  0.3264E+02  0.3975E+02  0.6607E+03  0.6606E+03
      3.224  0.3811E+02  0.3395E+02  0.6628E+03  0.6624E+03
      3.278  0.6492E+02  0.6566E+02  0.6663E+03  0.6660E+03
      3.332  0.4610E+02  0.4478E+02  0.6688E+03  0.6684E+03
      3.386  0.3465E+02  0.4158E+02  0.6707E+03  0.6707E+03
      3.440  0.2332E+02  0.1471E+02  0.6719E+03  0.6715E+03
      3.494  0.1612E+02  0.1618E+02  0.6728E+03  0.6723E+03
      3.549  0.4378E+02  0.4757E+02  0.6752E+03  0.6749E+03
      3.603  0.5126E+02  0.5074E+02  0.6780E+03  0.6777E+03
      3.657  0.2710E+02  0.2261E+02  0.6794E+03  0.6789E+03
      3.711  0.4463E+02  0.4892E+02  0.6818E+03  0.6815E+03
      3.765  0.2101E+02  0.2036E+02  0.6830E+03  0.6826E+03
      3.819  0.1871E+02  0.2404E+02  0.6840E+03  0.6839E+03
      3.873  0.1202E+02  0.1235E+02  0.6846E+03  0.6846E+03
      3.927  0.6518E+01  0.5975E+01  0.6850E+03  0.6849E+03
      3.982  0.1249E+02  0.1373E+02  0.6857E+03  0.6857E+03
      4.036  0.1592E+02  0.1433E+02  0.6865E+03  0.6864E+03
      4.090  0.3231E+02  0.2923E+02  0.6883E+03  0.6880E+03
      4.144  0.3328E+02  0.3702E+02  0.6901E+03  0.6900E+03
      4.198  0.3638E+02  0.2598E+02  0.6921E+03  0.6914E+03
      4.252  0.3593E+02  0.4741E+02  0.6940E+03  0.6940E+03
      4.306  0.4674E+01  0.1783E+01  0.6943E+03  0.6941E+03
      4.360  0.4123E+02  0.3818E+02  0.6965E+03  0.6962E+03
      4.415  0.4843E+02  0.4597E+02  0.6991E+03  0.6987E+03
      4.469  0.5934E+02  0.6428E+02  0.7023E+03  0.7021E+03
      4.523  0.4886E+02  0.5001E+02  0.7050E+03  0.7048E+03
      4.577  0.6018E+02  0.5740E+02  0.7082E+03  0.7079E+03
      4.631  0.8052E+02  0.7501E+02  0.7126E+03  0.7120E+03
      4.685  0.8704E+02  0.8698E+02  0.7173E+03  0.7167E+03
      4.739  0.1021E+03  0.1087E+03  0.7228E+03  0.7226E+03
      4.793  0.4148E+02  0.4261E+02  0.7251E+03  0.7249E+03
      4.847  0.8017E+02  0.7670E+02  0.7294E+03  0.7291E+03
      4.902  0.1011E+03  0.9802E+02  0.7349E+03  0.7344E+03
      4.956  0.8476E+02  0.8528E+02  0.7395E+03  0.7390E+03
      5.010  0.9188E+02  0.9335E+02  0.7444E+03  0.7440E+03
      5.064  0.1383E+03  0.1374E+03  0.7519E+03  0.7515E+03
      5.118  0.1072E+03  0.1052E+03  0.7577E+03  0.7572E+03
      5.172  0.1179E+03  0.1208E+03  0.7641E+03  0.7637E+03
      5.226  0.8322E+02  0.8707E+02  0.7686E+03  0.7684E+03
      5.280  0.9225E+02  0.8662E+02  0.7736E+03  0.7731E+03
      5.335  0.1274E+03  0.1326E+03  0.7805E+03  0.7803E+03
      5.389  0.8417E+02  0.8114E+02  0.7850E+03  0.7847E+03
      5.443  0.1205E+03  0.1205E+03  0.7916E+03  0.7912E+03
      5.497  0.1339E+03  0.1311E+03  0.7988E+03  0.7983E+03
      5.551  0.9227E+02  0.9691E+02  0.8038E+03  0.8035E+03
      5.605  0.6098E+02  0.6007E+02  0.8071E+03  0.8068E+03
      5.659  0.1658E+02  0.2275E+02  0.8080E+03  0.8080E+03
      5.713  0.0000E+00  0.0000E+00  0.8080E+03  0.8080E+03
      5.768  0.0000E+00  0.0000E+00  0.8080E+03  0.8080E+03
      5.822  0.0000E+00  0.0000E+00  0.8080E+03  0.8080E+03
      5.876  0.0000E+00  0.0000E+00  0.8080E+03  0.8080E+03
      5.930  0.0000E+00  0.0000E+00  0.8080E+03  0.8080E+03
      5.984  0.0000E+00  0.0000E+00  0.8080E+03  0.8080E+03
      6.038  0.0000E+00  0.0000E+00  0.8080E+03  0.8080E+03
      6.092  0.0000E+00  0.0000E+00  0.8080E+03  0.8080E+03
      6.146  0.0000E+00  0.0000E+00  0.8080E+03  0.8080E+03
      6.200  0.0000E+00  0.0000E+00  0.8080E+03  0.8080E+03
      6.255  0.0000E+00  0.0000E+00  0.8080E+03  0.8080E+03
      6.309  0.0000E+00  0.0000E+00  0.8080E+03  0.8080E+03
      6.363  0.0000E+00  0.0000E+00  0.8080E+03  0.8080E+03
