  48  48   0   0
  0.2362813E+02  0.8001338E-09  0.1265123E-08  0.1181011E-08  0.5000000E-15
  1.000000000000000E-004
  CAR 
 Si and Ge interface calculation         
      6.45295077    -10.90622390  301      3.21235890      1.00000000
    -10.906  0.0000E+00  0.0000E+00  0.0000E+00  0.0000E+00
    -10.848  0.0000E+00  0.0000E+00  0.0000E+00  0.0000E+00
    -10.790  0.0000E+00  0.0000E+00  0.0000E+00  0.0000E+00
    -10.733  0.0000E+00  0.0000E+00  0.0000E+00  0.0000E+00
    -10.675  0.0000E+00  0.0000E+00  0.0000E+00  0.0000E+00
    -10.617  0.0000E+00  0.0000E+00  0.0000E+00  0.0000E+00
    -10.559  0.0000E+00  0.0000E+00  0.0000E+00  0.0000E+00
    -10.501  0.0000E+00  0.0000E+00  0.0000E+00  0.0000E+00
    -10.443  0.0000E+00  0.0000E+00  0.0000E+00  0.0000E+00
    -10.385  0.0000E+00  0.0000E+00  0.0000E+00  0.0000E+00
    -10.328  0.0000E+00  0.0000E+00  0.0000E+00  0.0000E+00
    -10.270  0.0000E+00  0.0000E+00  0.0000E+00  0.0000E+00
    -10.212  0.0000E+00  0.0000E+00  0.0000E+00  0.0000E+00
    -10.154  0.9189E-07  0.1599E-15  0.5317E-08  0.9252E-17
    -10.096  0.3262E+01  0.5713E+00  0.1888E+00  0.3306E-01
    -10.038  0.5379E+01  0.8068E+01  0.5000E+00  0.4999E+00
     -9.980  0.4632E+00  0.1006E-03  0.5268E+00  0.5000E+00
     -9.923  0.2521E+02  0.1800E+02  0.1986E+01  0.1542E+01
     -9.865  0.2483E+00  0.7918E+01  0.2000E+01  0.2000E+01
     -9.807  0.1053E+02  0.5035E+00  0.2609E+01  0.2029E+01
     -9.749  0.6755E+01  0.1676E+02  0.3000E+01  0.2999E+01
     -9.691  0.0000E+00  0.2294E-01  0.3000E+01  0.3000E+01
     -9.633  0.0000E+00  0.0000E+00  0.3000E+01  0.3000E+01
     -9.575  0.1927E-02  0.2042E-08  0.3000E+01  0.3000E+01
     -9.517  0.1347E+02  0.4617E+01  0.3780E+01  0.3267E+01
     -9.460  0.3805E+01  0.1266E+02  0.4000E+01  0.4000E+01
     -9.402  0.1279E+01  0.3387E-03  0.4074E+01  0.4000E+01
     -9.344  0.1598E+02  0.1503E+02  0.4999E+01  0.4870E+01
     -9.286  0.1865E-01  0.2248E+01  0.5000E+01  0.5000E+01
     -9.228  0.0000E+00  0.0000E+00  0.5000E+01  0.5000E+01
     -9.170  0.0000E+00  0.0000E+00  0.5000E+01  0.5000E+01
     -9.112  0.0000E+00  0.0000E+00  0.5000E+01  0.5000E+01
     -9.055  0.0000E+00  0.0000E+00  0.5000E+01  0.5000E+01
     -8.997  0.0000E+00  0.0000E+00  0.5000E+01  0.5000E+01
     -8.939  0.2132E-15  0.0000E+00  0.5000E+01  0.5000E+01
     -8.881  0.9933E+00  0.6411E-01  0.5057E+01  0.5004E+01
     -8.823  0.1900E+02  0.1061E+02  0.6157E+01  0.5617E+01
     -8.765  0.6296E+01  0.1474E+02  0.6521E+01  0.6470E+01
     -8.707  0.1418E+02  0.8994E+01  0.7341E+01  0.6990E+01
     -8.650  0.1707E+02  0.2057E+02  0.8329E+01  0.8181E+01
     -8.592  0.8927E+01  0.9413E+01  0.8846E+01  0.8726E+01
     -8.534  0.5298E+01  0.6181E+01  0.9153E+01  0.9083E+01
     -8.476  0.2443E+00  0.1441E+01  0.9167E+01  0.9167E+01
     -8.418  0.1349E-01  0.1133E-04  0.9167E+01  0.9167E+01
     -8.360  0.1166E+02  0.1002E+02  0.9842E+01  0.9747E+01
     -8.302  0.1175E+02  0.9868E+01  0.1052E+02  0.1032E+02
     -8.244  0.9707E+01  0.1096E+02  0.1108E+02  0.1095E+02
     -8.187  0.4279E+01  0.5879E+01  0.1133E+02  0.1129E+02
     -8.129  0.2911E+01  0.3335E+01  0.1150E+02  0.1149E+02
     -8.071  0.5984E+01  0.8366E+00  0.1185E+02  0.1153E+02
     -8.013  0.1948E+02  0.2320E+02  0.1297E+02  0.1288E+02
     -7.955  0.6062E+01  0.5550E+01  0.1332E+02  0.1320E+02
     -7.897  0.7613E+01  0.8068E+01  0.1376E+02  0.1366E+02
     -7.839  0.1287E+02  0.1104E+02  0.1451E+02  0.1430E+02
     -7.782  0.1504E+02  0.1330E+02  0.1538E+02  0.1507E+02
     -7.724  0.1059E+02  0.1475E+02  0.1599E+02  0.1593E+02
     -7.666  0.7483E+01  0.5651E+01  0.1643E+02  0.1625E+02
     -7.608  0.1201E+02  0.1038E+02  0.1712E+02  0.1685E+02
     -7.550  0.1679E+02  0.1585E+02  0.1809E+02  0.1777E+02
     -7.492  0.2910E+02  0.2315E+02  0.1978E+02  0.1911E+02
     -7.434  0.1493E+02  0.2055E+02  0.2064E+02  0.2030E+02
     -7.377  0.1492E+02  0.1700E+02  0.2150E+02  0.2128E+02
     -7.319  0.2261E+02  0.1969E+02  0.2281E+02  0.2242E+02
     -7.261  0.1247E+02  0.1338E+02  0.2353E+02  0.2320E+02
     -7.203  0.9802E+01  0.1231E+02  0.2410E+02  0.2391E+02
     -7.145  0.2429E+02  0.2490E+02  0.2551E+02  0.2535E+02
     -7.087  0.1334E+02  0.9987E+01  0.2628E+02  0.2593E+02
     -7.029  0.2198E+02  0.2057E+02  0.2755E+02  0.2712E+02
     -6.971  0.2334E+02  0.2266E+02  0.2890E+02  0.2843E+02
     -6.914  0.2223E+02  0.2327E+02  0.3019E+02  0.2978E+02
     -6.856  0.1001E+02  0.1502E+02  0.3077E+02  0.3065E+02
     -6.798  0.1462E+02  0.1488E+02  0.3161E+02  0.3151E+02
     -6.740  0.2086E+02  0.1485E+02  0.3282E+02  0.3237E+02
     -6.682  0.1707E+02  0.1800E+02  0.3381E+02  0.3341E+02
     -6.624  0.1416E+02  0.1891E+02  0.3463E+02  0.3450E+02
     -6.566  0.1550E+02  0.1572E+02  0.3552E+02  0.3541E+02
     -6.509  0.1799E+02  0.1104E+02  0.3656E+02  0.3605E+02
     -6.451  0.9859E+01  0.1732E+02  0.3713E+02  0.3705E+02
     -6.393  0.5359E+01  0.5406E+01  0.3744E+02  0.3737E+02
     -6.335  0.1020E+02  0.8953E+01  0.3803E+02  0.3788E+02
     -6.277  0.1716E+02  0.1099E+02  0.3903E+02  0.3852E+02
     -6.219  0.1248E+02  0.1645E+02  0.3975E+02  0.3947E+02
     -6.161  0.9497E+01  0.1356E+02  0.4030E+02  0.4026E+02
     -6.104  0.9206E+01  0.7675E+01  0.4083E+02  0.4070E+02
     -6.046  0.4464E+01  0.5893E+01  0.4109E+02  0.4104E+02
     -5.988  0.6577E+01  0.6038E+01  0.4147E+02  0.4139E+02
     -5.930  0.1203E+02  0.8276E+01  0.4217E+02  0.4187E+02
     -5.872  0.1598E+02  0.1387E+02  0.4309E+02  0.4267E+02
     -5.814  0.8979E+01  0.1618E+02  0.4361E+02  0.4361E+02
     -5.756  0.1249E+02  0.4357E+01  0.4433E+02  0.4386E+02
     -5.698  0.8427E+01  0.1534E+02  0.4482E+02  0.4475E+02
     -5.641  0.1609E+02  0.1354E+02  0.4575E+02  0.4553E+02
     -5.583  0.4287E+01  0.7531E+01  0.4600E+02  0.4597E+02
     -5.525  0.1336E+02  0.7157E+01  0.4677E+02  0.4638E+02
     -5.467  0.7111E+01  0.1259E+02  0.4719E+02  0.4711E+02
     -5.409  0.8036E+01  0.5715E+01  0.4765E+02  0.4744E+02
     -5.351  0.1161E+02  0.1230E+02  0.4832E+02  0.4815E+02
     -5.293  0.1231E+02  0.1162E+02  0.4903E+02  0.4883E+02
     -5.236  0.1548E+02  0.9367E+01  0.4993E+02  0.4937E+02
     -5.178  0.1062E+02  0.1654E+02  0.5055E+02  0.5033E+02
     -5.120  0.8057E+01  0.8469E+01  0.5101E+02  0.5082E+02
     -5.062  0.5541E+01  0.7670E+01  0.5133E+02  0.5126E+02
     -5.004  0.4301E+01  0.2813E+01  0.5158E+02  0.5142E+02
     -4.946  0.1449E+02  0.1241E+02  0.5242E+02  0.5214E+02
     -4.888  0.5448E+01  0.5708E+01  0.5273E+02  0.5247E+02
     -4.831  0.1580E+02  0.1633E+02  0.5365E+02  0.5342E+02
     -4.773  0.5108E+01  0.9117E+01  0.5394E+02  0.5394E+02
     -4.715  0.3411E+01  0.1977E+01  0.5414E+02  0.5406E+02
     -4.657  0.2164E+02  0.2075E+02  0.5539E+02  0.5526E+02
     -4.599  0.1839E+02  0.1451E+02  0.5646E+02  0.5610E+02
     -4.541  0.1114E+02  0.1292E+02  0.5710E+02  0.5685E+02
     -4.483  0.1325E+02  0.1596E+02  0.5787E+02  0.5777E+02
     -4.425  0.1499E+02  0.9219E+01  0.5874E+02  0.5830E+02
     -4.368  0.2931E+02  0.2842E+02  0.6043E+02  0.5995E+02
     -4.310  0.2017E+02  0.2390E+02  0.6160E+02  0.6133E+02
     -4.252  0.2582E+02  0.2289E+02  0.6309E+02  0.6265E+02
     -4.194  0.9453E+01  0.1612E+02  0.6364E+02  0.6359E+02
     -4.136  0.2133E+02  0.1038E+02  0.6488E+02  0.6419E+02
     -4.078  0.2090E+02  0.2864E+02  0.6608E+02  0.6584E+02
     -4.020  0.2195E+02  0.1995E+02  0.6735E+02  0.6700E+02
     -3.963  0.1238E+02  0.1357E+02  0.6807E+02  0.6778E+02
     -3.905  0.9776E+01  0.1375E+02  0.6864E+02  0.6858E+02
     -3.847  0.1621E+02  0.1414E+02  0.6958E+02  0.6940E+02
     -3.789  0.1375E+02  0.9367E+01  0.7037E+02  0.6994E+02
     -3.731  0.1824E+02  0.1746E+02  0.7143E+02  0.7095E+02
     -3.673  0.1192E+02  0.1798E+02  0.7212E+02  0.7199E+02
     -3.615  0.1584E+02  0.9986E+01  0.7303E+02  0.7257E+02
     -3.558  0.9839E+01  0.1706E+02  0.7360E+02  0.7356E+02
     -3.500  0.1626E+02  0.1347E+02  0.7454E+02  0.7434E+02
     -3.442  0.2100E+02  0.1995E+02  0.7576E+02  0.7549E+02
     -3.384  0.2825E+02  0.2312E+02  0.7739E+02  0.7683E+02
     -3.326  0.7111E+01  0.1535E+02  0.7780E+02  0.7772E+02
     -3.268  0.3903E+01  0.3993E+01  0.7803E+02  0.7795E+02
     -3.210  0.8099E+01  0.7837E+01  0.7850E+02  0.7840E+02
     -3.152  0.7204E-01  0.1725E+01  0.7850E+02  0.7850E+02
     -3.095  0.1056E+02  0.8536E+01  0.7911E+02  0.7899E+02
     -3.037  0.9289E+01  0.6667E+01  0.7965E+02  0.7938E+02
     -2.979  0.1047E+02  0.1338E+02  0.8026E+02  0.8015E+02
     -2.921  0.6081E+01  0.6475E+01  0.8061E+02  0.8053E+02
     -2.863  0.1140E+01  0.1451E+01  0.8068E+02  0.8061E+02
     -2.805  0.9350E+01  0.7942E+01  0.8122E+02  0.8107E+02
     -2.747  0.1050E+02  0.8911E+01  0.8182E+02  0.8159E+02
     -2.690  0.9615E+01  0.1107E+02  0.8238E+02  0.8223E+02
     -2.632  0.1534E+02  0.1601E+02  0.8327E+02  0.8315E+02
     -2.574  0.1417E+02  0.1324E+02  0.8409E+02  0.8392E+02
     -2.516  0.4314E+01  0.6309E+01  0.8434E+02  0.8429E+02
     -2.458  0.9942E+01  0.6952E+01  0.8491E+02  0.8469E+02
     -2.400  0.5975E+01  0.7508E+01  0.8526E+02  0.8512E+02
     -2.342  0.1146E+02  0.6939E+01  0.8592E+02  0.8552E+02
     -2.285  0.2272E+02  0.2133E+02  0.8724E+02  0.8676E+02
     -2.227  0.1637E+01  0.9456E+01  0.8733E+02  0.8731E+02
     -2.169  0.3261E+01  0.2402E+01  0.8752E+02  0.8744E+02
     -2.111  0.1075E+02  0.7949E+01  0.8814E+02  0.8790E+02
     -2.053  0.4281E+01  0.7412E+01  0.8839E+02  0.8833E+02
     -1.995  0.7788E+01  0.7274E+01  0.8884E+02  0.8875E+02
     -1.937  0.6494E+01  0.6515E+01  0.8922E+02  0.8913E+02
     -1.879  0.7173E+01  0.5220E+01  0.8963E+02  0.8943E+02
     -1.822  0.7797E+01  0.8425E+01  0.9008E+02  0.8992E+02
     -1.764  0.4697E+01  0.3751E+01  0.9035E+02  0.9014E+02
     -1.706  0.5638E+01  0.6007E+01  0.9068E+02  0.9049E+02
     -1.648  0.4504E+01  0.6891E+01  0.9094E+02  0.9088E+02
     -1.590  0.4458E+01  0.3540E+01  0.9120E+02  0.9109E+02
     -1.532  0.4691E+01  0.5999E+01  0.9147E+02  0.9144E+02
     -1.474  0.6640E+01  0.5837E+01  0.9186E+02  0.9177E+02
     -1.417  0.5510E+01  0.4945E+01  0.9217E+02  0.9206E+02
     -1.359  0.3773E+01  0.4678E+01  0.9239E+02  0.9233E+02
     -1.301  0.4741E+01  0.5696E+01  0.9267E+02  0.9266E+02
     -1.243  0.3325E+01  0.1897E+01  0.9286E+02  0.9277E+02
     -1.185  0.1624E+02  0.1200E+02  0.9380E+02  0.9346E+02
     -1.127  0.1042E+02  0.1480E+02  0.9440E+02  0.9432E+02
     -1.069  0.1685E+02  0.1109E+02  0.9538E+02  0.9496E+02
     -1.011  0.1892E+02  0.2140E+02  0.9647E+02  0.9620E+02
     -0.954  0.1145E+02  0.1264E+02  0.9713E+02  0.9693E+02
     -0.896  0.1361E+02  0.1150E+02  0.9792E+02  0.9760E+02
     -0.838  0.2235E+02  0.2009E+02  0.9921E+02  0.9876E+02
     -0.780  0.1743E+02  0.2150E+02  0.1002E+03  0.1000E+03
     -0.722  0.3713E+02  0.2713E+02  0.1024E+03  0.1016E+03
     -0.664  0.2243E+02  0.3311E+02  0.1037E+03  0.1035E+03
     -0.606  0.1904E+02  0.1702E+02  0.1048E+03  0.1045E+03
     -0.549  0.2487E+02  0.2210E+02  0.1062E+03  0.1058E+03
     -0.491  0.2855E+02  0.2452E+02  0.1079E+03  0.1072E+03
     -0.433  0.4257E+02  0.4412E+02  0.1103E+03  0.1097E+03
     -0.375  0.1887E+02  0.2360E+02  0.1114E+03  0.1111E+03
     -0.317  0.2418E+02  0.2159E+02  0.1128E+03  0.1123E+03
     -0.259  0.2447E+02  0.2177E+02  0.1142E+03  0.1136E+03
     -0.201  0.2289E+02  0.2857E+02  0.1156E+03  0.1153E+03
     -0.144  0.2280E+02  0.2515E+02  0.1169E+03  0.1167E+03
     -0.086  0.1883E+02  0.1688E+02  0.1180E+03  0.1177E+03
     -0.028  0.3111E+02  0.2456E+02  0.1198E+03  0.1191E+03
      0.030  0.3386E+02  0.3404E+02  0.1217E+03  0.1211E+03
      0.088  0.1303E+02  0.1928E+02  0.1225E+03  0.1222E+03
      0.146  0.3070E+02  0.2745E+02  0.1243E+03  0.1238E+03
      0.204  0.1719E+02  0.2084E+02  0.1253E+03  0.1250E+03
      0.262  0.1894E+02  0.1498E+02  0.1263E+03  0.1259E+03
      0.319  0.2196E+02  0.2426E+02  0.1276E+03  0.1273E+03
      0.377  0.2526E+02  0.2508E+02  0.1291E+03  0.1287E+03
      0.435  0.3095E+02  0.3289E+02  0.1309E+03  0.1306E+03
      0.493  0.3114E+02  0.2192E+02  0.1327E+03  0.1319E+03
      0.551  0.3153E+02  0.4028E+02  0.1345E+03  0.1342E+03
      0.609  0.2907E+02  0.2251E+02  0.1362E+03  0.1355E+03
      0.667  0.2542E+02  0.2858E+02  0.1376E+03  0.1372E+03
      0.724  0.2308E+02  0.2294E+02  0.1390E+03  0.1385E+03
      0.782  0.2960E+02  0.3323E+02  0.1407E+03  0.1404E+03
      0.840  0.3184E+02  0.2242E+02  0.1425E+03  0.1417E+03
      0.898  0.3818E+02  0.4597E+02  0.1447E+03  0.1444E+03
      0.956  0.2548E+02  0.2805E+02  0.1462E+03  0.1460E+03
      1.014  0.2880E+02  0.1933E+02  0.1479E+03  0.1471E+03
      1.072  0.2300E+02  0.2955E+02  0.1492E+03  0.1488E+03
      1.129  0.2371E+02  0.2169E+02  0.1506E+03  0.1501E+03
      1.187  0.1938E+02  0.2454E+02  0.1517E+03  0.1515E+03
      1.245  0.2103E+02  0.1694E+02  0.1529E+03  0.1525E+03
      1.303  0.2335E+02  0.2432E+02  0.1543E+03  0.1539E+03
      1.361  0.2332E+02  0.2512E+02  0.1556E+03  0.1553E+03
      1.419  0.1675E+02  0.1647E+02  0.1566E+03  0.1563E+03
      1.477  0.2258E+02  0.1964E+02  0.1579E+03  0.1574E+03
      1.535  0.2042E+02  0.2496E+02  0.1591E+03  0.1589E+03
      1.592  0.2208E+02  0.1797E+02  0.1604E+03  0.1599E+03
      1.650  0.3431E+02  0.2959E+02  0.1624E+03  0.1616E+03
      1.708  0.2059E+02  0.2272E+02  0.1635E+03  0.1629E+03
      1.766  0.2502E+02  0.2856E+02  0.1650E+03  0.1646E+03
      1.824  0.2942E+02  0.2107E+02  0.1667E+03  0.1658E+03
      1.882  0.1609E+02  0.2889E+02  0.1676E+03  0.1675E+03
      1.940  0.3311E+02  0.1872E+02  0.1695E+03  0.1686E+03
      1.997  0.2066E+02  0.2431E+02  0.1707E+03  0.1700E+03
      2.055  0.2454E+02  0.2446E+02  0.1722E+03  0.1714E+03
      2.113  0.2604E+02  0.2969E+02  0.1737E+03  0.1731E+03
      2.171  0.1868E+02  0.2158E+02  0.1747E+03  0.1744E+03
      2.229  0.1592E+02  0.1534E+02  0.1757E+03  0.1752E+03
      2.287  0.1247E+02  0.1240E+02  0.1764E+03  0.1760E+03
      2.345  0.1373E+02  0.1461E+02  0.1772E+03  0.1768E+03
      2.402  0.1825E+02  0.1416E+02  0.1782E+03  0.1776E+03
      2.460  0.2421E+02  0.2113E+02  0.1796E+03  0.1789E+03
      2.518  0.1766E+02  0.2525E+02  0.1807E+03  0.1803E+03
      2.576  0.3262E+02  0.1714E+02  0.1825E+03  0.1813E+03
      2.634  0.5781E+01  0.2160E+02  0.1829E+03  0.1826E+03
      2.692  0.1380E+02  0.9352E+01  0.1837E+03  0.1831E+03
      2.750  0.1153E+02  0.1436E+02  0.1843E+03  0.1839E+03
      2.808  0.1037E+02  0.1347E+02  0.1849E+03  0.1847E+03
      2.865  0.1099E+02  0.1211E+02  0.1856E+03  0.1854E+03
      2.923  0.9803E+01  0.7161E+01  0.1862E+03  0.1858E+03
      2.981  0.2807E+02  0.1529E+02  0.1878E+03  0.1867E+03
      3.039  0.2154E+02  0.3073E+02  0.1890E+03  0.1885E+03
      3.097  0.1504E+02  0.1345E+02  0.1899E+03  0.1893E+03
      3.155  0.1221E+02  0.1686E+02  0.1906E+03  0.1902E+03
      3.213  0.2039E+02  0.1330E+02  0.1918E+03  0.1910E+03
      3.270  0.1605E+02  0.1835E+02  0.1927E+03  0.1921E+03
      3.328  0.1068E+02  0.1264E+02  0.1933E+03  0.1928E+03
      3.386  0.1159E+02  0.1170E+02  0.1940E+03  0.1935E+03
      3.444  0.1075E+02  0.1359E+02  0.1946E+03  0.1943E+03
      3.502  0.1704E+02  0.1115E+02  0.1956E+03  0.1949E+03
      3.560  0.1720E+02  0.1772E+02  0.1966E+03  0.1959E+03
      3.618  0.1237E+02  0.2009E+02  0.1973E+03  0.1971E+03
      3.675  0.1896E+02  0.1134E+02  0.1984E+03  0.1978E+03
      3.733  0.1397E+02  0.1781E+02  0.1992E+03  0.1988E+03
      3.791  0.2622E+02  0.2422E+02  0.2007E+03  0.2002E+03
      3.849  0.1509E+02  0.1747E+02  0.2016E+03  0.2012E+03
      3.907  0.1007E+02  0.1240E+02  0.2022E+03  0.2019E+03
      3.965  0.1565E+02  0.1201E+02  0.2031E+03  0.2026E+03
      4.023  0.1958E+02  0.1915E+02  0.2042E+03  0.2037E+03
      4.081  0.8652E+01  0.1326E+02  0.2047E+03  0.2045E+03
      4.138  0.1458E+02  0.1315E+02  0.2056E+03  0.2052E+03
      4.196  0.1194E+02  0.1213E+02  0.2063E+03  0.2059E+03
      4.254  0.1404E+02  0.9367E+01  0.2071E+03  0.2065E+03
      4.312  0.1623E+02  0.2286E+02  0.2080E+03  0.2078E+03
      4.370  0.1239E+02  0.9205E+01  0.2087E+03  0.2083E+03
      4.428  0.1008E+02  0.1357E+02  0.2093E+03  0.2091E+03
      4.486  0.1898E+02  0.1895E+02  0.2104E+03  0.2102E+03
      4.543  0.1428E+02  0.1181E+02  0.2112E+03  0.2109E+03
      4.601  0.2751E+02  0.2670E+02  0.2128E+03  0.2125E+03
      4.659  0.1241E+02  0.1660E+02  0.2136E+03  0.2134E+03
      4.717  0.1925E+02  0.1210E+02  0.2147E+03  0.2141E+03
      4.775  0.2970E+02  0.2956E+02  0.2164E+03  0.2158E+03
      4.833  0.1305E+02  0.1697E+02  0.2171E+03  0.2168E+03
      4.891  0.1186E+02  0.1075E+02  0.2178E+03  0.2174E+03
      4.948  0.2653E+02  0.2273E+02  0.2194E+03  0.2187E+03
      5.006  0.1565E+02  0.2121E+02  0.2203E+03  0.2200E+03
      5.064  0.2740E+02  0.1938E+02  0.2219E+03  0.2211E+03
      5.122  0.2509E+02  0.3257E+02  0.2233E+03  0.2230E+03
      5.180  0.2252E+02  0.2730E+02  0.2246E+03  0.2246E+03
      5.238  0.2357E+02  0.1527E+02  0.2260E+03  0.2254E+03
      5.296  0.2123E+02  0.2160E+02  0.2272E+03  0.2267E+03
      5.354  0.2703E+02  0.2430E+02  0.2288E+03  0.2281E+03
      5.411  0.1659E+02  0.1998E+02  0.2297E+03  0.2293E+03
      5.469  0.2233E+02  0.2158E+02  0.2310E+03  0.2305E+03
      5.527  0.7369E+01  0.1540E+02  0.2314E+03  0.2314E+03
      5.585  0.5242E+01  0.3092E+01  0.2317E+03  0.2316E+03
      5.643  0.4281E+01  0.3535E+01  0.2320E+03  0.2318E+03
      5.701  0.7888E-01  0.3831E+01  0.2320E+03  0.2320E+03
      5.759  0.0000E+00  0.0000E+00  0.2320E+03  0.2320E+03
      5.816  0.0000E+00  0.0000E+00  0.2320E+03  0.2320E+03
      5.874  0.0000E+00  0.0000E+00  0.2320E+03  0.2320E+03
      5.932  0.0000E+00  0.0000E+00  0.2320E+03  0.2320E+03
      5.990  0.0000E+00  0.0000E+00  0.2320E+03  0.2320E+03
      6.048  0.0000E+00  0.0000E+00  0.2320E+03  0.2320E+03
      6.106  0.0000E+00  0.0000E+00  0.2320E+03  0.2320E+03
      6.164  0.0000E+00  0.0000E+00  0.2320E+03  0.2320E+03
      6.221  0.0000E+00  0.0000E+00  0.2320E+03  0.2320E+03
      6.279  0.0000E+00  0.0000E+00  0.2320E+03  0.2320E+03
      6.337  0.0000E+00  0.0000E+00  0.2320E+03  0.2320E+03
      6.395  0.0000E+00  0.0000E+00  0.2320E+03  0.2320E+03
      6.453  0.0000E+00  0.0000E+00  0.2320E+03  0.2320E+03
