 vasp.6.4.3 19Mar24 (build Oct 22 2024 11:23:12) complex                        
  
 executed on             LinuxIFC date 2025.06.03  23:24:40
 running   64 mpi-ranks, on    4 nodes
 distrk:  each k-point on   64 cores,    1 groups
 distr:  one band on NCORE=  16 cores,    4 groups


--------------------------------------------------------------------------------------------------------


 INCAR:
   SYSTEM = Si and Ge interface calculation
   ISTART = 0
   ICHARG = 2
   LWAVE = .FALSE.
   LREAL = AUTO
   ENCUT = 700
   ENAUG = 900
   ADDGRID = .TRUE.
   LMAXMIX = 6
   LASPH = .TRUE.
   LMIXTAU = .TRUE.
   NCORE = 16
   NELM = 100
   NBANDS = 116
   EDIFF = 1d-7
   AMIX = 0.6
   ISMEAR = 0
   SIGMA = 0.01
   NELECT = 192
   ISPIN = 2
   NUPDOWN = 1
   LVTOT = .FALSE.
   LVHAR = .TRUE.

 POTCAR:    PAW_PBE Ge 05Jan2001                  
 -----------------------------------------------------------------------------
|                                                                             |
|           W    W    AA    RRRRR   N    N  II  N    N   GGGG   !!!           |
|           W    W   A  A   R    R  NN   N  II  NN   N  G    G  !!!           |
|           W    W  A    A  R    R  N N  N  II  N N  N  G       !!!           |
|           W WW W  AAAAAA  RRRRR   N  N N  II  N  N N  G  GGG   !            |
|           WW  WW  A    A  R   R   N   NN  II  N   NN  G    G                |
|           W    W  A    A  R    R  N    N  II  N    N   GGGG   !!!           |
|                                                                             |
|     You use a magnetic or noncollinear calculation, but did not specify     |
|     the initial magnetic moment with the MAGMOM tag. Note that a            |
|     default of 0.021 will be used for all atoms. This ferromagnetic         |
|     setup may break the symmetry of the crystal, in particular it may       |
|     rule out finding an antiferromagnetic solution. Thence, we              |
|     recommend setting the initial magnetic moment manually or verifying     |
|     carefully that this magnetic setup is desired.                          |
|                                                                             |
 -----------------------------------------------------------------------------

 POTCAR:    PAW_PBE Ge 05Jan2001                  
   VRHFIN =Ge: s2p2                                                                                 
   LEXCH  = PE                                                                                      
   EATOM  =   104.9960 eV,    7.7170 Ry                                                             
                                                                                                    
   TITEL  = PAW_PBE Ge 05Jan2001                                                                    
   LULTRA =        F    use ultrasoft PP ?                                                          
   IUNSCR =        1    unscreen: 0-lin 1-nonlin 2-no                                               
   RPACOR =    2.170    partial core radius                                                         
   POMASS =   72.610; ZVAL   =    4.000    mass and valenz                                          
   RCORE  =    2.300    outmost cutoff radius                                                       
   RWIGS  =    2.300; RWIGS  =    1.217    wigner-seitz radius (au A)                               
   ENMAX  =  173.807; ENMIN  =  130.355 eV                                                          
   ICORE  =        3    local potential                                                             
   LCOR   =        T    correct aug charges                                                         
   LPAW   =        T    paw PP                                                                      
   EAUG   =  385.843                                                                                
   DEXC   =    0.000                                                                                
   RMAX   =    2.342    core radius for proj-oper                                                   
   RAUG   =    1.300    factor for augmentation sphere                                              
   RDEP   =    2.318    radius for radial grids                                                     
   RDEPT  =    2.103    core radius for aug-charge                                                  
                                                                                                    
   Atomic configuration                                                                             
   10 entries                                                                                       
     n  l   j            E        occ.                                                              
     1  0  0.50    -10959.8463   2.0000                                                             
     2  0  0.50     -1371.6056   2.0000                                                             
     2  1  1.50     -1198.4791   6.0000                                                             
     3  0  0.50      -168.4733   2.0000                                                             
     3  1  1.50      -115.6019   6.0000                                                             
     3  2  2.50       -29.3106  10.0000                                                             
     4  0  0.50       -11.7309   2.0000                                                             
     4  1  0.50        -3.8952   2.0000                                                             
     4  2  1.50        -4.0817   0.0000                                                             
     4  3  2.50        -4.0817   0.0000                                                             
   Description                                                                                      
     l       E           TYP  RCUT    TYP  RCUT                                                     
     0    -11.7309493     23  2.300                                                                 
     0     -7.4578696     23  2.300                                                                 
     1     -3.8952261     23  2.300                                                                 
     1      6.1178114     23  2.300                                                                 
     2     -4.0817478     23  2.300                                                                 
     3     -1.3605826      7  2.300                                                                 
  local pseudopotential read in
  partial core-charges read in
  partial kinetic energy density read in
  atomic valenz-charges read in
  non local Contribution for L=           0  read in
    real space projection operators read in
  non local Contribution for L=           0  read in
    real space projection operators read in
  non local Contribution for L=           1  read in
    real space projection operators read in
  non local Contribution for L=           1  read in
    real space projection operators read in
  non local Contribution for L=           2  read in
    real space projection operators read in
    PAW grid and wavefunctions read in
 
   number of l-projection  operators is LMAX  =           5
   number of lm-projection operators is LMMAX =          13
 
 Optimization of the real space projectors (new method)

 maximal supplied QI-value         = 16.25
 optimisation between [QCUT,QGAM] = [ 13.49, 26.98] = [ 50.95,203.80] Ry 
 Optimized for a Real-space Cutoff    1.25 Angstroem

   l    n(q)    QCUT    max X(q) W(low)/X(q) W(high)/X(q)  e(spline) 
   0     10    13.489    65.336    0.91E-04    0.11E-03    0.34E-06
   0     10    13.489    52.220    0.89E-04    0.11E-03    0.34E-06
   1     10    13.489    36.409    0.22E-03    0.27E-03    0.14E-06
   1     10    13.489    21.334    0.21E-03    0.27E-03    0.14E-06
   2      9    13.489     4.673    0.11E-03    0.12E-03    0.19E-06
  PAW_PBE Ge 05Jan2001                  :
 energy of atom  1       EATOM= -104.9960
 kinetic energy error for atom=    0.0001 (will be added to EATOM!!)
 
 
 POSCAR: Ge+Ge
  positions in direct lattice
  No initial velocities read in


 exchange-correlation table for PE
   RHO(1)=    0.500       N(1)  =     2000
   RHO(2)=  100.500       N(2)  =     4000
 


--------------------------------------------------------------------------------------------------------


 ion  position               nearest neighbor table
   1  0.994  0.994  0.000-  10 2.45  31 2.45  47 2.52
   2  0.828  0.828  0.240-  31 2.45  11 2.45  16 2.45  32 2.45
   3  0.661  0.661  0.479-  17 2.45  32 2.45  12 2.45  33 2.45
   4  0.328  0.328  0.000-  45 2.39  28 2.45  13 2.45  48 2.45  39 2.61
   5  0.161  0.161  0.240-  10 2.45  14 2.45  28 2.45  29 2.45
   6  0.994  0.994  0.479-  11 2.45  30 2.45  29 2.45  15 2.45  37 2.69
   7  0.661  0.661  0.000-  34 2.45  16 2.45  42 2.60
   8  0.494  0.494  0.240-  13 2.45  34 2.45  35 2.45  17 2.45
   9  0.328  0.328  0.479-  14 2.45  35 2.45  36 2.45  18 2.45
  10  0.244  0.994  0.120-  20 2.45  19 2.45   5 2.45   1 2.45
  11  0.078  0.828  0.359-   6 2.45   2 2.45  20 2.45  21 2.45
  12  0.911  0.661  0.599-  21 2.45   3 2.45  43 2.61
  13  0.578  0.328  0.120-   8 2.45  26 2.45  25 2.45   4 2.45  48 2.69
  14  0.411  0.161  0.359-   9 2.45  27 2.45   5 2.45  26 2.45
  15  0.244  0.994  0.599-  37 2.39  40 2.45  27 2.45   6 2.45  46 2.60
  16  0.911  0.661  0.120-  23 2.45  22 2.45   7 2.45   2 2.45
  17  0.744  0.494  0.359-   3 2.45  24 2.45  23 2.45   8 2.45
  18  0.578  0.328  0.599-  24 2.45   9 2.45  38 2.51
  19  0.494  0.994  0.000-  10 2.45  31 2.45  44 2.52
  20  0.328  0.828  0.240-  10 2.45  11 2.45  32 2.45  34 2.45
  21  0.161  0.661  0.479-  35 2.45  12 2.45  33 2.45  11 2.45
  22  0.161  0.661  0.000-  34 2.45  16 2.45  39 2.60
  23  0.994  0.494  0.240-  28 2.45  35 2.45  16 2.45  17 2.45
  24  0.828  0.328  0.479-  29 2.45  36 2.45  17 2.45  18 2.45
  25  0.828  0.328  0.000-  48 2.39  13 2.45  28 2.45  45 2.45  42 2.61
  26  0.661  0.161  0.240-  13 2.45  31 2.45  29 2.45  14 2.45
  27  0.494  0.994  0.479-  14 2.45  32 2.45  15 2.45  30 2.45  40 2.69
  28  0.078  0.328  0.120-  23 2.45   4 2.45   5 2.45  25 2.45  45 2.69
  29  0.911  0.161  0.359-  24 2.45  26 2.45   6 2.45   5 2.45
  30  0.744  0.994  0.599-  40 2.39  37 2.45   6 2.45  27 2.45  43 2.60
  31  0.744  0.994  0.120-   2 2.45  26 2.45   1 2.45  19 2.45
  32  0.578  0.828  0.359-  27 2.45   3 2.45  20 2.45   2 2.45
  33  0.411  0.661  0.599-  21 2.45   3 2.45  46 2.61
  34  0.411  0.661  0.120-   7 2.45  22 2.45   8 2.45  20 2.45
  35  0.244  0.494  0.359-  23 2.45   9 2.45   8 2.45  21 2.45
  36  0.078  0.328  0.599-  24 2.45   9 2.45  41 2.51
  37  0.026  0.939  0.700-  15 2.39  30 2.45  46 2.45  47 2.45  43 2.45   6 2.69
  38  0.637  0.217  0.779-  47 2.45  44 2.45  48 2.45  18 2.51
  39  0.248  0.495  0.859-  48 2.45  45 2.45  22 2.60   4 2.61
  40  0.526  0.939  0.700-  30 2.39  15 2.45  43 2.45  44 2.45  46 2.45  27 2.69
  41  0.137  0.217  0.779-  44 2.45  47 2.45  45 2.45  36 2.51
  42  0.748  0.495  0.859-  45 2.45  48 2.45   7 2.60  25 2.61
  43  0.832  0.828  0.740-  40 2.45  37 2.45  30 2.60  12 2.61
  44  0.443  0.106  0.819-  40 2.45  41 2.45  38 2.45  19 2.52
  45  0.054  0.384  0.899-   4 2.39  42 2.45  41 2.45  39 2.45  25 2.45  28 2.69
  46  0.332  0.828  0.740-  37 2.45  40 2.45  15 2.60  33 2.61
  47  0.943  0.106  0.819-  37 2.45  38 2.45  41 2.45   1 2.52
  48  0.554  0.384  0.899-  25 2.39  39 2.45  38 2.45  42 2.45   4 2.45  13 2.69
 
  LATTYP: Found a base centered orthorhombic cell.
 ALAT       =     8.0013380050
 B/A-ratio  =     2.9999998809
 C/A-ratio  =     1.4760173735
  
  Lattice vectors:
  
 A1 = (   4.0006690020, -12.0020065310,   0.0000000000)
 A2 = (   4.0006690030,  12.0020065310,   0.0000000000)
 A3 = (   0.0000000000,   0.0000000000,  11.8101139070)


Analysis of symmetry for initial positions (statically):
=====================================================================
 Subroutine PRICEL returns following result:
 
  LATTYP: Found a simple orthorhombic cell.
 ALAT       =     4.0006685304
 B/A-ratio  =     2.9520350954
 C/A-ratio  =     3.0000002349
  
  Lattice vectors:
  
 A1 = (  -4.0006685304,   0.0000000000,   0.0000000000)
 A2 = (   0.0000000000,   0.0000000000,  11.8101139070)
 A3 = (   0.0000004726,  12.0020065310,   0.0000000000)
 
   2 primitive cells build up your supercell.
 

 Routine SETGRP: Setting up the symmetry group for a 
 base centered orthorhombic supercell.


 Subroutine GETGRP returns: Found  1 space group operations
 (whereof  1 operations were pure point group operations)
 out of a pool of  8 trial point group operations.


The static configuration has the point symmetry C_1 .


Analysis of symmetry for dynamics (positions and initial velocities):
=====================================================================
 Subroutine PRICEL returns following result:
 
  LATTYP: Found a simple orthorhombic cell.
 ALAT       =     4.0006685304
 B/A-ratio  =     2.9520350954
 C/A-ratio  =     3.0000002349
  
  Lattice vectors:
  
 A1 = (  -4.0006685304,   0.0000000000,   0.0000000000)
 A2 = (   0.0000000000,   0.0000000000,  11.8101139070)
 A3 = (   0.0000004726,  12.0020065310,   0.0000000000)
 
   2 primitive cells build up your supercell.
 

 Routine SETGRP: Setting up the symmetry group for a 
 base centered orthorhombic supercell.


 Subroutine GETGRP returns: Found  1 space group operations
 (whereof  1 operations were pure point group operations)
 out of a pool of  8 trial point group operations.


The dynamic configuration has the point symmetry C_1 .


Analysis of structural, dynamic, and magnetic symmetry:
=====================================================================
 Subroutine PRICEL returns following result:
 
  LATTYP: Found a simple orthorhombic cell.
 ALAT       =     4.0006685304
 B/A-ratio  =     2.9520350954
 C/A-ratio  =     3.0000002349
  
  Lattice vectors:
  
 A1 = (  -4.0006685304,   0.0000000000,   0.0000000000)
 A2 = (   0.0000000000,   0.0000000000,  11.8101139070)
 A3 = (   0.0000004726,  12.0020065310,   0.0000000000)
 
   2 primitive cells build up your supercell.
 

 Routine SETGRP: Setting up the symmetry group for a 
 base centered orthorhombic supercell.


 Subroutine GETGRP returns: Found  1 space group operations
 (whereof  1 operations were pure point group operations)
 out of a pool of  8 trial point group operations.


The overall configuration has the point symmetry C_1 .


 Subroutine INISYM returns: Found  1 space group operations
 (whereof  1 operations are pure point group operations),
 and found     2 'primitive' translations


----------------------------------------------------------------------------------------

                                     Primitive cell                                     

  volume of cell :     567.0750

  direct lattice vectors                    reciprocal lattice vectors
    -4.000668530  0.000000000  0.000000000    -0.249958224  0.000000010  0.000000000
     0.000000000  0.000000000 11.810113907     0.000000000  0.000000000  0.084673188
     0.000000473 12.002006531  0.000000000     0.000000000  0.083319401  0.000000000

  length of vectors
     4.000668530 11.810113907 12.002006531     0.249958224  0.084673188  0.083319401

  position of ions in fractional coordinates (direct lattice)
     0.017083292  0.000000000  0.994305491
     0.517083210  0.239531949  0.827638865
     0.017083666  0.479063928  0.660972118
     0.017083480  0.000000000  0.327638835
     0.517083518  0.239531949  0.160972148
     0.017083469  0.479063928  0.994305432
     0.017083488  0.000000000  0.660972118
     0.517083321  0.239531949  0.494305462
     0.017083420  0.479063928  0.327638775
     0.517083497  0.119765975  0.994305491
     0.017083537  0.359297961  0.827638865
     0.517083431  0.598829985  0.660972118
     0.517083493  0.119765975  0.327638835
     0.017083401  0.359297961  0.160972148
     0.517083646  0.598829985  0.994305432
     0.517083311  0.119765975  0.660972118
     0.017083646  0.359297961  0.494305402
     0.517083776  0.598829985  0.327638716
     0.008487814  0.699609995  0.939236522
     0.508487997  0.779453993  0.217014313
     0.008487882  0.859297991  0.494792223
     0.508487863  0.739531875  0.828125477
     0.008487836  0.819375992  0.105903149
     0.508488166  0.899219990  0.383681059

  ion indices of the primitive-cell ions
   primitive index   ion index
                 1           1
                 2           2
                 3          21
                 4          25
                 5           5
                 6           6
                 7          22
                 8          23
                 9          24
                10          10
                11          11
                12          12
                13          28
                14          29
                15          15
                16          16
                17          35
                18          36
                19          37
                20          41
                21          42
                22          43
                23          47
                24          45

----------------------------------------------------------------------------------------

 
 
 KPOINTS: Automatic KPOINTS generated             

Automatic generation of k-mesh.
 Grid dimensions read from file:
 generate k-points for:    4    3    3

 Generating k-lattice:

  Cartesian coordinates                     Fractional coordinates (reciprocal lattice)
     0.031244774 -0.010414925  0.000000000     0.250000000  0.000000000  0.000000000
     0.000000000  0.027773134  0.000000000     0.000000000  0.333333333  0.000000000
     0.000000000  0.000000000  0.028224396     0.000000000  0.000000000  0.333333333

  Length of vectors
     0.032934884  0.027773134  0.028224396

  Shift w.r.t. Gamma in fractional coordinates (k-lattice)
     0.000000000  0.000000000  0.000000000

 -----------------------------------------------------------------------------
|                                                                             |
|           W    W    AA    RRRRR   N    N  II  N    N   GGGG   !!!           |
|           W    W   A  A   R    R  NN   N  II  NN   N  G    G  !!!           |
|           W    W  A    A  R    R  N N  N  II  N N  N  G       !!!           |
|           W WW W  AAAAAA  RRRRR   N  N N  II  N  N N  G  GGG   !            |
|           WW  WW  A    A  R   R   N   NN  II  N   NN  G    G                |
|           W    W  A    A  R    R  N    N  II  N    N   GGGG   !!!           |
|                                                                             |
|     Your reciprocal lattice and k-lattice belong to different lattice       |
|     classes:                                                                |
|                                                                             |
|        The reciprocal lattice is base centered orthorhombic,                |
|        whereas your k-lattice is simple monoclinic.                         |
|                                                                             |
|     Results are often still useful ...                                      |
|                                                                             |
 -----------------------------------------------------------------------------

 WARNING: IBZKPT: internal override: KBLOWUP is changed to .FALSE.
      ... skipping the blow-up phase ...

 
 Subroutine IBZKPT returns following result:
 ===========================================
 
 Found     19 irreducible k-points:
 
 Following reciprocal coordinates:
            Coordinates               Weight
  0.000000  0.000000  0.000000      1.000000
  0.250000  0.000000  0.000000      2.000000
  0.500000  0.000000  0.000000      1.000000
  0.000000  0.333333  0.000000      2.000000
  0.250000  0.333333  0.000000      2.000000
  0.500000  0.333333  0.000000      2.000000
 -0.250000  0.333333  0.000000      2.000000
  0.000000  0.000000  0.333333      2.000000
  0.250000  0.000000  0.333333      2.000000
  0.500000  0.000000  0.333333      2.000000
 -0.250000 -0.000000  0.333333      2.000000
  0.000000  0.333333  0.333333      2.000000
  0.250000  0.333333  0.333333      2.000000
  0.500000  0.333333  0.333333      2.000000
 -0.250000  0.333333  0.333333      2.000000
  0.000000 -0.333333  0.333333      2.000000
  0.250000 -0.333333  0.333333      2.000000
  0.500000 -0.333333  0.333333      2.000000
 -0.250000 -0.333333  0.333333      2.000000
 
 Following cartesian coordinates:
            Coordinates               Weight
  0.000000  0.000000  0.000000      1.000000
  0.031245 -0.010415  0.000000      2.000000
  0.062490 -0.020830  0.000000      1.000000
  0.000000  0.027773  0.000000      2.000000
  0.031245  0.017358  0.000000      2.000000
  0.062490  0.006943  0.000000      2.000000
 -0.031245  0.038188  0.000000      2.000000
  0.000000  0.000000  0.028224      2.000000
  0.031245 -0.010415  0.028224      2.000000
  0.062490 -0.020830  0.028224      2.000000
 -0.031245  0.010415  0.028224      2.000000
  0.000000  0.027773  0.028224      2.000000
  0.031245  0.017358  0.028224      2.000000
  0.062490  0.006943  0.028224      2.000000
 -0.031245  0.038188  0.028224      2.000000
  0.000000 -0.027773  0.028224      2.000000
  0.031245 -0.038188  0.028224      2.000000
  0.062490 -0.048603  0.028224      2.000000
 -0.031245 -0.017358  0.028224      2.000000
 


--------------------------------------------------------------------------------------------------------




 Dimension of arrays:
   k-points           NKPTS =     19   k-points in BZ     NKDIM =     19   number of bands    NBANDS=    116
   number of dos      NEDOS =    301   number of ions     NIONS =     48
   non local maximal  LDIM  =      5   non local SUM 2l+1 LMDIM =     13
   total plane-waves  NPLWV = 362880
   max r-space proj   IRMAX =   2643   max aug-charges    IRDMAX= 139302
   dimension x,y,z NGX =    54 NGY =   84 NGZ =   80
   dimension x,y,z NGXF=   108 NGYF=  168 NGZF=  160
   support grid    NGXF=   216 NGYF=  336 NGZF=  320
   ions per type =              48
   NGX,Y,Z   is equivalent  to a cutoff of  11.22, 11.04, 11.26 a.u.
   NGXF,Y,Z  is equivalent  to a cutoff of  22.44, 22.08, 22.52 a.u.

 SYSTEM =  Si and Ge interface calculation         
 POSCAR =  Ge+Ge                                   

 Startparameter for this run:
   NWRITE =      2    write-flag & timer
   PREC   = normal    normal or accurate (medium, high low for compatibility)
   ISTART =      0    job   : 0-new  1-cont  2-samecut
   ICHARG =      2    charge: 1-file 2-atom 10-const
   ISPIN  =      2    spin polarized calculation?
   LNONCOLLINEAR =      F non collinear calculations
   LSORBIT =      F    spin-orbit coupling
   INIWAV =      1    electr: 0-lowe 1-rand  2-diag
   LASPH  =      T    aspherical Exc in radial PAW
 Electronic Relaxation 1
   ENCUT  =  700.0 eV  51.45 Ry    7.17 a.u.  17.26 27.29 25.48*2*pi/ulx,y,z
   ENINI  =  700.0     initial cutoff
   ENAUG  =  900.0 eV  augmentation charge cutoff
   NELM   =    100;   NELMIN=  2; NELMDL= -5     # of ELM steps 
   EDIFF  = 0.1E-06   stopping-criterion for ELM
   LREAL  =      T    real-space projection
   NLSPLINE    = F    spline interpolate recip. space projectors
   LCOMPAT=      F    compatible to vasp.4.4
   GGA_COMPAT  = T    GGA compatible to vasp.4.4-vasp.4.6
   LMAXPAW     = -100 max onsite density
   LMAXMIX     =    6 max onsite mixed and CHGCAR
   VOSKOWN=      0    Vosko Wilk Nusair interpolation
   ROPT   =   -0.00050
 Ionic relaxation
   EDIFFG = 0.1E-05   stopping-criterion for IOM
   NSW    =      0    number of steps for IOM
   NBLOCK =      1;   KBLOCK =      1    inner block; outer block 
   IBRION =     -1    ionic relax: 0-MD 1-quasi-New 2-CG
   NFREE  =      0    steps in history (QN), initial steepest desc. (CG)
   ISIF   =      2    stress and relaxation
   IWAVPR =     10    prediction:  0-non 1-charg 2-wave 3-comb
   ISYM   =      2    0-nonsym 1-usesym 2-fastsym
   LCORR  =      T    Harris-Foulkes like correction to forces

   POTIM  = 0.5000    time-step for ionic-motion
   TEIN   =    0.0    initial temperature
   TEBEG  =    0.0;   TEEND  =   0.0 temperature during run
   SMASS  =  -3.00    Nose mass-parameter (am)
   estimated Nose-frequenzy (Omega)   =  0.10E-29 period in steps = 0.13E+47 mass=  -0.146E-26a.u.
   SCALEE = 1.0000    scale energy and forces
   NPACO  =    256;   APACO  = 10.0  distance and # of slots for P.C.
   PSTRESS=    0.0 pullay stress

  Mass of Ions in am
   POMASS =  72.61
  Ionic Valenz
   ZVAL   =   4.00
  Atomic Wigner-Seitz radii
   RWIGS  =  -1.00
  virtual crystal weights 
   VCA    =   1.00
   NELECT =     192.0000    total number of electrons
   NUPDOWN=       1.0000    fix difference up-down

 DOS related values:
   EMIN   =  10.00;   EMAX   =-10.00  energy-range for DOS
   EFERMI =   0.00;   METHOD = LEGACY      
   ISMEAR =     0;   SIGMA  =   0.01  broadening in eV -4-tet -1-fermi 0-gaus

 Electronic relaxation 2 (details)
   IALGO  =     38    algorithm
   LDIAG  =      T    sub-space diagonalisation (order eigenvalues)
   LSUBROT=      F    optimize rotation matrix (better conditioning)
   TURBO    =      0    0=normal 1=particle mesh
   IRESTART =      0    0=no restart 2=restart with 2 vectors
   NREBOOT  =      0    no. of reboots
   NMIN     =      0    reboot dimension
   EREF     =   0.00    reference energy to select bands
   IMIX   =      4    mixing-type and parameters
     AMIX     =   0.60;   BMIX     =  1.00
     AMIX_MAG =   2.40;   BMIX_MAG =  1.00
     AMIN     =   0.10
     WC   =   100.;   INIMIX=   1;  MIXPRE=   1;  MAXMIX= -45

 Intra band minimization:
   WEIMIN = 0.0000     energy-eigenvalue tresh-hold
   EBREAK =  0.22E-09  absolut break condition
   DEPER  =   0.30     relativ break condition  

   TIME   =   0.40     timestep for ELM

  volume/ion in A,a.u.               =      23.63       159.45
  Fermi-wavevector in a.u.,A,eV,Ry     =   0.905632  1.711396 11.159079  0.820169
  Thomas-Fermi vector in A             =   2.029223
 
 Write flags
   LWAVE        =      F    write WAVECAR
   LDOWNSAMPLE  =      F    k-point downsampling of WAVECAR
   LCHARG       =      T    write CHGCAR
   LVTOT        =      F    write LOCPOT, total local potential
   LVHAR        =      T    write LOCPOT, Hartree potential only
   WRT_POTENTIAL=  hartree ionic  ! write potential to hdf5 file
   LELF         =      F    write electronic localiz. function (ELF)
   LORBIT       =      0    0 simple, 1 ext, 2 COOP (PROOUT), +10 PAW based schemes


 Dipole corrections
   LMONO      =      F    monopole corrections only (constant potential shift)
   LDIPOL     =      F    correct potential (dipole corrections)
   IDIPOL     =      0    1-x, 2-y, 3-z, 4-all directions 
   EPSILON    =  1.0000000 bulk dielectric constant
   LVACPOTAV  =      F  vacuum potentials using an averaging scheme for the charge density
   VACPOTFLAT =  0.1000000 required flatness to determine vacuum potential
 Exchange correlation treatment:
   GGA     = PE    functional components
   XC_C    = 1    coefficients multiplying the functional components
   LIBXC   =     F    Libxc                    
   VOSKOWN =     0    Vosko Wilk Nusair interpolation
   LHFCALC =     F    Hartree Fock is set to
   LHFONE  =     F    Hartree Fock one center treatment
   AEXX    =    0.0000 exact exchange contribution

 Parameters of functionals:
   PE:
     No parameter
 
 Van der Waals corrections
   IVDW    =     0    specifies the selected vdW correction

 Linear response parameters
   LEPSILON=     F    determine dielectric tensor
   LRPA    =     F    only Hartree local field effects (RPA)
   LNABLA  =     F    use nabla operator in PAW spheres
   LVEL    =     F    velocity operator in full k-point grid
   CSHIFT  =0.1000    complex shift for real part using Kramers Kronig
   OMEGAMAX=  -1.0    maximum frequency
   DEG_THRESHOLD= 0.2000000E-02 threshold for treating states as degnerate
   RTIME   =   -0.100 relaxation time in fs
  (WPLASMAI=    0.000 imaginary part of plasma frequency in eV, 0.658/RTIME)
   DFIELD  = 0.0000000 0.0000000 0.0000000 field for delta impulse in time
 
  Optional k-point grid parameters
   LKPOINTS_OPT  =     F    use optional k-point grid
   KPOINTS_OPT_MODE=     1    mode for optional k-point grid
 
 Orbital magnetization related:
   ORBITALMAG=     F  switch on orbital magnetization
   LCHIMAG   =     F  perturbation theory with respect to B field
   DQ        =  0.001000  dq finite difference perturbation B field
   LLRAUG    =     F  two centre corrections for induced B field
   LBONE     =     F  B-component reconstruction in AE one-centre
   LVGVCALC  =     T  calculate vGv susceptibility
   LVGVAPPL  =     F  apply vGv susceptibility instead of pGv for G=0

 Random number generation:
   RANDOM_GENERATOR = DEFAULT
   PCG_SEED         = not used


--------------------------------------------------------------------------------------------------------


 Static calculation
 charge density and potential will be updated during run
 spin polarized calculation
 Variant of blocked Davidson
 Davidson routine will perform the subspace rotation
 perform sub-space diagonalisation
    after iterative eigenvector-optimisation
 modified Broyden-mixing scheme, WC =      100.0
 initial mixing is a Kerker type mixing with AMIX =  0.6000 and BMIX =      1.0000
 Hartree-type preconditioning will be used
 using additional bands           20
 real space projection scheme for non local part
 use partial core corrections
 calculate Harris-corrections to forces 
   (improved forces if not selfconsistent)
 use gradient corrections 
 use of overlap-Matrix (Vanderbilt PP)
 Gauss-broadening in eV      SIGMA  =   0.01


--------------------------------------------------------------------------------------------------------


  energy-cutoff  :      700.00
  volume of cell :     1134.15
      direct lattice vectors                 reciprocal lattice vectors
     8.001338005  0.000000000  0.000000000     0.124979097 -0.041659701  0.000000000
     4.000669003 12.002006531  0.000000000     0.000000000  0.083319401  0.000000000
     0.000000000  0.000000000 11.810113907     0.000000000  0.000000000  0.084673188

  length of vectors
     8.001338005 12.651225760 11.810113907     0.131739536  0.083319401  0.084673188


 
 k-points in units of 2pi/SCALE and weight: Automatic KPOINTS generated             
   0.00000000  0.00000000  0.00000000       0.028
   0.03124477 -0.01041493  0.00000000       0.056
   0.06248955 -0.02082985  0.00000000       0.028
   0.00000000  0.02777313  0.00000000       0.056
   0.03124477  0.01735821  0.00000000       0.056
   0.06248955  0.00694328  0.00000000       0.056
  -0.03124477  0.03818806  0.00000000       0.056
   0.00000000  0.00000000  0.02822440       0.056
   0.03124477 -0.01041493  0.02822440       0.056
   0.06248955 -0.02082985  0.02822440       0.056
  -0.03124477  0.01041493  0.02822440       0.056
   0.00000000  0.02777313  0.02822440       0.056
   0.03124477  0.01735821  0.02822440       0.056
   0.06248955  0.00694328  0.02822440       0.056
  -0.03124477  0.03818806  0.02822440       0.056
   0.00000000 -0.02777313  0.02822440       0.056
   0.03124477 -0.03818806  0.02822440       0.056
   0.06248955 -0.04860298  0.02822440       0.056
  -0.03124477 -0.01735821  0.02822440       0.056
 
 k-points in reciprocal lattice and weights: Automatic KPOINTS generated             
   0.00000000  0.00000000  0.00000000       0.028
   0.25000000  0.00000000  0.00000000       0.056
   0.50000000  0.00000000  0.00000000       0.028
   0.00000000  0.33333333  0.00000000       0.056
   0.25000000  0.33333333  0.00000000       0.056
   0.50000000  0.33333333  0.00000000       0.056
  -0.25000000  0.33333333  0.00000000       0.056
   0.00000000  0.00000000  0.33333333       0.056
   0.25000000  0.00000000  0.33333333       0.056
   0.50000000  0.00000000  0.33333333       0.056
  -0.25000000 -0.00000000  0.33333333       0.056
   0.00000000  0.33333333  0.33333333       0.056
   0.25000000  0.33333333  0.33333333       0.056
   0.50000000  0.33333333  0.33333333       0.056
  -0.25000000  0.33333333  0.33333333       0.056
   0.00000000 -0.33333333  0.33333333       0.056
   0.25000000 -0.33333333  0.33333333       0.056
   0.50000000 -0.33333333  0.33333333       0.056
  -0.25000000 -0.33333333  0.33333333       0.056
 
 position of ions in fractional coordinates (direct lattice) 
   0.99430549  0.99430549  0.00000000
   0.82763886  0.82763886  0.23953195
   0.66097212  0.66097212  0.47906393
   0.32763880  0.32763880  0.00000000
   0.16097215  0.16097215  0.23953195
   0.99430543  0.99430543  0.47906393
   0.66097212  0.66097212  0.00000000
   0.49430543  0.49430543  0.23953195
   0.32763875  0.32763875  0.47906393
   0.24430548  0.99430549  0.11976597
   0.07763879  0.82763886  0.35929796
   0.91097212  0.66097212  0.59882999
   0.57763880  0.32763880  0.11976597
   0.41097212  0.16097213  0.35929796
   0.24430543  0.99430543  0.59882999
   0.91097218  0.66097212  0.11976597
   0.74430549  0.49430546  0.35929796
   0.57763880  0.32763877  0.59882999
   0.49430543  0.99430549  0.00000000
   0.32763877  0.82763886  0.23953195
   0.16097209  0.66097212  0.47906393
   0.16097218  0.66097212  0.00000000
   0.99430549  0.49430546  0.23953195
   0.82763880  0.32763877  0.47906393
   0.82763875  0.32763884  0.00000000
   0.66097212  0.16097216  0.23953195
   0.49430540  0.99430549  0.47906393
   0.07763883  0.32763884  0.11976597
   0.91097212  0.16097215  0.35929796
   0.74430549  0.99430549  0.59882999
   0.74430549  0.99430549  0.11976597
   0.57763880  0.82763880  0.35929796
   0.41097209  0.66097212  0.59882999
   0.41097215  0.66097212  0.11976597
   0.24430545  0.49430540  0.35929796
   0.07763875  0.32763872  0.59882999
   0.02613783  0.93923652  0.69961000
   0.63724881  0.21701431  0.77945399
   0.24835992  0.49479222  0.85929799
   0.52613777  0.93923652  0.69961000
   0.13724883  0.21701431  0.77945399
   0.74835986  0.49479222  0.85929799
   0.83169323  0.82812548  0.73953187
   0.44280440  0.10590315  0.81937599
   0.05391538  0.38368106  0.89921999
   0.33169323  0.82812548  0.73953187
   0.94280440  0.10590315  0.81937599
   0.55391538  0.38368106  0.89921999
 
 position of ions in cartesian coordinates  (Angst):
  11.93366147 11.93366100  0.00000000
   9.93332746  9.93332706  2.82889960
   7.93299199  7.93299168  5.65779956
   3.93232323  3.93232308  0.00000000
   1.93198885  1.93198877  2.82889960
  11.93366076 11.93366029  5.65779956
   7.93299199  7.93299168  0.00000000
   5.93265726  5.93265702  2.82889960
   3.93232251  3.93232236  5.65779956
   5.93265786 11.93366100  1.41444981
   3.93232335  9.93332706  4.24334985
   9.93332649  7.93299168  7.07225033
   5.93265773  3.93232308  1.41444981
   3.93232305  1.93198859  4.24334985
   5.93265726 11.93366029  7.07225033
   9.93332697  7.93299168  1.41444981
   7.93299235  5.93265738  4.24334985
   5.93265761  3.93232272  7.07225033
   7.93299200 11.93366100  0.00000000
   5.93265774  9.93332706  2.82889960
   3.93232276  7.93299168  5.65779956
   3.93232347  7.93299168  0.00000000
   9.93332685  5.93265738  2.82889960
   7.93299212  3.93232272  5.65779956
   7.93299188  3.93232344  0.00000000
   5.93265767  1.93198895  2.82889960
   7.93299176 11.93366100  5.65779956
   1.93198903  3.93232344  1.41444981
   7.93299211  1.93198877  4.24334985
   9.93332697 11.93366100  7.07225033
   9.93332697 11.93366100  1.41444981
   7.93299224  9.93332634  4.24334985
   5.93265726  7.93299168  7.07225033
   5.93265773  7.93299168  1.41444981
   3.93232276  5.93265666  4.24334985
   1.93198790  3.93232201  7.07225033
   3.96671204 11.27272287  8.26247373
   5.96704559  2.60460720  9.20544044
   3.96671157  5.93849949 10.14840715
   7.96738057 11.27272287  8.26247373
   1.96637671  2.60460720  9.20544044
   7.96738009  5.93849949 10.14840715
   9.96771459  9.93916738  8.73395568
   3.96671109  1.27105029  9.67692380
   1.96637611  4.60494258 10.61989051
   5.96704559  9.93916738  8.73395568
   7.96738009  1.27105029  9.67692380
   5.96704511  4.60494258 10.61989051
 


--------------------------------------------------------------------------------------------------------


 k-point     1 :   0.0000 0.0000 0.0000  plane waves:   47801
 k-point     2 :   0.2500 0.0000 0.0000  plane waves:   47706
 k-point     3 :   0.5000 0.0000 0.0000  plane waves:   47696
 k-point     4 :   0.0000 0.3333 0.0000  plane waves:   47692
 k-point     5 :   0.2500 0.3333 0.0000  plane waves:   47694
 k-point     6 :   0.5000 0.3333 0.0000  plane waves:   47709
 k-point     7 :  -0.2500 0.3333 0.0000  plane waves:   47718
 k-point     8 :   0.0000 0.0000 0.3333  plane waves:   47677
 k-point     9 :   0.2500 0.0000 0.3333  plane waves:   47680
 k-point    10 :   0.5000 0.0000 0.3333  plane waves:   47688
 k-point    11 :  -0.2500-0.0000 0.3333  plane waves:   47680
 k-point    12 :   0.0000 0.3333 0.3333  plane waves:   47685
 k-point    13 :   0.2500 0.3333 0.3333  plane waves:   47675
 k-point    14 :   0.5000 0.3333 0.3333  plane waves:   47687
 k-point    15 :  -0.2500 0.3333 0.3333  plane waves:   47688
 k-point    16 :   0.0000-0.3333 0.3333  plane waves:   47685
 k-point    17 :   0.2500-0.3333 0.3333  plane waves:   47688
 k-point    18 :   0.5000-0.3333 0.3333  plane waves:   47687
 k-point    19 :  -0.2500-0.3333 0.3333  plane waves:   47675

 maximum and minimum number of plane-waves per node :      3030     2945

 maximum number of plane-waves:     47801
 maximum index in each direction: 
   IXMAX=   17   IYMAX=   27   IZMAX=   25
   IXMIN=  -17   IYMIN=  -27   IZMIN=  -25


 real space projection operators:
  total allocation   :      12254.94 KBytes
  max/ min on nodes  :        928.18        671.23


 parallel 3D FFT for wavefunctions:
    minimum data exchange during FFTs selected (reduces bandwidth)
 parallel 3D FFT for charge:
    minimum data exchange during FFTs selected (reduces bandwidth)


 total amount of memory used by VASP MPI-rank0   101018. kBytes
=======================================================================

   base      :      30000. kBytes
   nonlr-proj:       3244. kBytes
   fftplans  :       8409. kBytes
   grid      :       6069. kBytes
   one-center:         48. kBytes
   wavefun   :      53248. kBytes
 
     INWAV:  cpu time      0.0000: real time      0.0003
 Broyden mixing: mesh for mixing (old mesh)
   NGX = 35   NGY = 55   NGZ = 51
  (NGX  =108   NGY  =168   NGZ  =160)
  gives a total of  98175 points

 initial charge density was supplied:
 charge density of overlapping atoms calculated
 number of electron     192.0000000 magnetization       1.0000000
 keeping initial charge density in first step


--------------------------------------------------------------------------------------------------------


 Maximum index for non-local projection operator          385
 Maximum index for augmentation-charges         5308 (set IRDMAX)


--------------------------------------------------------------------------------------------------------


 First call to EWALD:  gamma=   0.170
 Maximum number of real-space cells 4x 2x 2
 Maximum number of reciprocal cells 2x 3x 3

    FEWALD:  cpu time      0.0021: real time      0.0021


--------------------------------------- Ionic step        1  -------------------------------------------




--------------------------------------- Iteration      1(   1)  ---------------------------------------


    POTLOK:  cpu time      5.8480: real time      5.8650
    SETDIJ:  cpu time      0.7361: real time      0.7396
     EDDAV:  cpu time      9.3081: real time      9.3882
       DOS:  cpu time      0.0023: real time      0.0024
    --------------------------------------------
      LOOP:  cpu time     15.8946: real time     15.9952

 eigenvalue-minimisations  :  8816
 total energy-change (2. order) : 0.9510756E+03  (-0.8358653E+04)
 number of electron     192.0000000 magnetization       1.0000000
 augmentation part      192.0000000 magnetization       1.0000000

 Free energy of the ion-electron system (eV)
  ---------------------------------------------------
  alpha Z        PSCENC =       388.28090661
  Ewald energy   TEWEN  =     -4931.04985497
  -Hartree energ DENC   =      -546.67398868
  -exchange      EXHF   =         0.00000000
  -V(xc)+E(xc)   XCENC  =      -361.52676366
  PAW double counting   =      4230.96766597    -3535.56392164
  entropy T*S    EENTRO =        -0.00066316
  eigenvalues    EBANDS =       666.83856168
  atomic energy  EATOM  =      5039.80367324
  Solvation  Ediel_sol  =         0.00000000
  ---------------------------------------------------
  free energy    TOTEN  =       951.07561539 eV

  energy without entropy =      951.07627855  energy(sigma->0) =      951.07594697


--------------------------------------------------------------------------------------------------------




--------------------------------------- Iteration      1(   2)  ---------------------------------------


     EDDAV:  cpu time     10.3846: real time     10.4757
       DOS:  cpu time      0.0018: real time      0.0018
    --------------------------------------------
      LOOP:  cpu time     10.3864: real time     10.4775

 eigenvalue-minimisations  : 10304
 total energy-change (2. order) :-0.1041603E+04  (-0.1008150E+04)
 number of electron     192.0000000 magnetization       1.0000000
 augmentation part      192.0000000 magnetization       1.0000000

 Free energy of the ion-electron system (eV)
  ---------------------------------------------------
  alpha Z        PSCENC =       388.28090661
  Ewald energy   TEWEN  =     -4931.04985497
  -Hartree energ DENC   =      -546.67398868
  -exchange      EXHF   =         0.00000000
  -V(xc)+E(xc)   XCENC  =      -361.52676366
  PAW double counting   =      4230.96766597    -3535.56392164
  entropy T*S    EENTRO =        -0.00023153
  eigenvalues    EBANDS =      -374.76501353
  atomic energy  EATOM  =      5039.80367324
  Solvation  Ediel_sol  =         0.00000000
  ---------------------------------------------------
  free energy    TOTEN  =       -90.52752819 eV

  energy without entropy =      -90.52729666  energy(sigma->0) =      -90.52741243


--------------------------------------------------------------------------------------------------------




--------------------------------------- Iteration      1(   3)  ---------------------------------------


     EDDAV:  cpu time     10.8563: real time     10.9492
       DOS:  cpu time      0.0018: real time      0.0018
    --------------------------------------------
      LOOP:  cpu time     10.8581: real time     10.9510

 eigenvalue-minimisations  : 10904
 total energy-change (2. order) :-0.1058897E+03  (-0.1024230E+03)
 number of electron     192.0000000 magnetization       1.0000000
 augmentation part      192.0000000 magnetization       1.0000000

 Free energy of the ion-electron system (eV)
  ---------------------------------------------------
  alpha Z        PSCENC =       388.28090661
  Ewald energy   TEWEN  =     -4931.04985497
  -Hartree energ DENC   =      -546.67398868
  -exchange      EXHF   =         0.00000000
  -V(xc)+E(xc)   XCENC  =      -361.52676366
  PAW double counting   =      4230.96766597    -3535.56392164
  entropy T*S    EENTRO =        -0.00104323
  eigenvalues    EBANDS =      -480.65388610
  atomic energy  EATOM  =      5039.80367324
  Solvation  Ediel_sol  =         0.00000000
  ---------------------------------------------------
  free energy    TOTEN  =      -196.41721245 eV

  energy without entropy =     -196.41616923  energy(sigma->0) =     -196.41669084


--------------------------------------------------------------------------------------------------------




--------------------------------------- Iteration      1(   4)  ---------------------------------------


     EDDAV:  cpu time     10.5564: real time     10.6470
       DOS:  cpu time      0.0018: real time      0.0018
    --------------------------------------------
      LOOP:  cpu time     10.5582: real time     10.6489

 eigenvalue-minimisations  : 10536
 total energy-change (2. order) :-0.3867508E+01  (-0.3792926E+01)
 number of electron     192.0000000 magnetization       1.0000000
 augmentation part      192.0000000 magnetization       1.0000000

 Free energy of the ion-electron system (eV)
  ---------------------------------------------------
  alpha Z        PSCENC =       388.28090661
  Ewald energy   TEWEN  =     -4931.04985497
  -Hartree energ DENC   =      -546.67398868
  -exchange      EXHF   =         0.00000000
  -V(xc)+E(xc)   XCENC  =      -361.52676366
  PAW double counting   =      4230.96766597    -3535.56392164
  entropy T*S    EENTRO =        -0.00135387
  eigenvalues    EBANDS =      -484.52108326
  atomic energy  EATOM  =      5039.80367324
  Solvation  Ediel_sol  =         0.00000000
  ---------------------------------------------------
  free energy    TOTEN  =      -200.28472026 eV

  energy without entropy =     -200.28336639  energy(sigma->0) =     -200.28404332


--------------------------------------------------------------------------------------------------------




--------------------------------------- Iteration      1(   5)  ---------------------------------------


     EDDAV:  cpu time     11.2279: real time     11.3264
       DOS:  cpu time      0.0022: real time      0.0023
    CHARGE:  cpu time      0.5962: real time      0.5999
    MIXING:  cpu time      0.0033: real time      0.0034
    --------------------------------------------
      LOOP:  cpu time     11.8296: real time     11.9318

 eigenvalue-minimisations  : 11392
 total energy-change (2. order) :-0.1393162E+00  (-0.1386775E+00)
 number of electron     191.9999998 magnetization       1.0000000
 augmentation part      -32.0125826 magnetization      -0.0945604

 Broyden mixing:
  rms(total) = 0.13955E+01    rms(broyden)= 0.13955E+01
  rms(prec ) = 0.15918E+01
  weight for this iteration     100.00

 Free energy of the ion-electron system (eV)
  ---------------------------------------------------
  alpha Z        PSCENC =       388.28090661
  Ewald energy   TEWEN  =     -4931.04985497
  -Hartree energ DENC   =      -546.67398868
  -exchange      EXHF   =         0.00000000
  -V(xc)+E(xc)   XCENC  =      -361.52676366
  PAW double counting   =      4230.96766597    -3535.56392164
  entropy T*S    EENTRO =        -0.00133869
  eigenvalues    EBANDS =      -484.66041468
  atomic energy  EATOM  =      5039.80367324
  Solvation  Ediel_sol  =         0.00000000
  ---------------------------------------------------
  free energy    TOTEN  =      -200.42403650 eV

  energy without entropy =     -200.42269781  energy(sigma->0) =     -200.42336715


--------------------------------------------------------------------------------------------------------




--------------------------------------- Iteration      1(   6)  ---------------------------------------


    POTLOK:  cpu time     12.5085: real time     12.5454
    SETDIJ:  cpu time      0.7277: real time      0.7309
     EDDAV:  cpu time     10.3132: real time     10.4064
       DOS:  cpu time      0.0020: real time      0.0020
    CHARGE:  cpu time      0.5868: real time      0.5904
    MIXING:  cpu time      0.0028: real time      0.0028
    --------------------------------------------
      LOOP:  cpu time     24.1410: real time     24.2779

 eigenvalue-minimisations  : 10216
 total energy-change (2. order) : 0.1946079E+01  (-0.4140716E+00)
 number of electron     191.9999998 magnetization       1.0000000
 augmentation part      -31.7473381 magnetization      -0.0875958

 Broyden mixing:
  rms(total) = 0.65182E+00    rms(broyden)= 0.65182E+00
  rms(prec ) = 0.72754E+00
  weight for this iteration     100.00

 eigenvalues of (default mixing * dielectric matrix)
  average eigenvalue GAMMA=   1.7236
  1.7236

 Free energy of the ion-electron system (eV)
  ---------------------------------------------------
  alpha Z        PSCENC =       388.28090661
  Ewald energy   TEWEN  =     -4931.04985497
  -Hartree energ DENC   =      -586.45671749
  -exchange      EXHF   =         0.00000000
  -V(xc)+E(xc)   XCENC  =      -355.28760061
  PAW double counting   =      6915.48441072    -6224.15907866
  entropy T*S    EENTRO =        -0.00097507
  eigenvalues    EBANDS =      -445.09272099
  atomic energy  EATOM  =      5039.80367324
  Solvation  Ediel_sol  =         0.00000000
  ---------------------------------------------------
  free energy    TOTEN  =      -198.47795722 eV

  energy without entropy =     -198.47698215  energy(sigma->0) =     -198.47746969


--------------------------------------------------------------------------------------------------------




--------------------------------------- Iteration      1(   7)  ---------------------------------------


    POTLOK:  cpu time      9.7313: real time      9.7595
    SETDIJ:  cpu time      0.7268: real time      0.7297
     EDDAV:  cpu time     10.4034: real time     10.4969
       DOS:  cpu time      0.0019: real time      0.0019
    CHARGE:  cpu time      0.5887: real time      0.5923
    MIXING:  cpu time      0.0026: real time      0.0026
    --------------------------------------------
      LOOP:  cpu time     21.4547: real time     21.5829

 eigenvalue-minimisations  : 10344
 total energy-change (2. order) : 0.1329419E+00  (-0.1540664E+00)
 number of electron     191.9999998 magnetization       1.0000000
 augmentation part      -31.6862591 magnetization      -0.0865817

 Broyden mixing:
  rms(total) = 0.19725E+00    rms(broyden)= 0.19725E+00
  rms(prec ) = 0.28652E+00
  weight for this iteration     100.00

 eigenvalues of (default mixing * dielectric matrix)
  average eigenvalue GAMMA=   1.2568
  1.8483  0.6652

 Free energy of the ion-electron system (eV)
  ---------------------------------------------------
  alpha Z        PSCENC =       388.28090661
  Ewald energy   TEWEN  =     -4931.04985497
  -Hartree energ DENC   =      -601.86693072
  -exchange      EXHF   =         0.00000000
  -V(xc)+E(xc)   XCENC  =      -350.91291536
  PAW double counting   =      9418.32146262    -8729.73415188
  entropy T*S    EENTRO =        -0.00099751
  eigenvalues    EBANDS =      -431.18620735
  atomic energy  EATOM  =      5039.80367324
  Solvation  Ediel_sol  =         0.00000000
  ---------------------------------------------------
  free energy    TOTEN  =      -198.34501533 eV

  energy without entropy =     -198.34401782  energy(sigma->0) =     -198.34451657


--------------------------------------------------------------------------------------------------------




--------------------------------------- Iteration      1(   8)  ---------------------------------------


    POTLOK:  cpu time     10.7910: real time     10.8225
    SETDIJ:  cpu time      0.7264: real time      0.7296
     EDDAV:  cpu time     11.5764: real time     11.6713
       DOS:  cpu time      0.0021: real time      0.0021
    CHARGE:  cpu time      0.5910: real time      0.5944
    MIXING:  cpu time      0.0027: real time      0.0027
    --------------------------------------------
      LOOP:  cpu time     23.6896: real time     23.8225

 eigenvalue-minimisations  : 10264
 total energy-change (2. order) : 0.6308122E-01  (-0.4436610E-01)
 number of electron     191.9999998 magnetization       1.0000000
 augmentation part      -31.6220299 magnetization      -0.0863663

 Broyden mixing:
  rms(total) = 0.60746E-01    rms(broyden)= 0.60746E-01
  rms(prec ) = 0.68661E-01
  weight for this iteration     100.00

 eigenvalues of (default mixing * dielectric matrix)
  average eigenvalue GAMMA=   1.1544
  1.8816  0.9903  0.5914

 Free energy of the ion-electron system (eV)
  ---------------------------------------------------
  alpha Z        PSCENC =       388.28090661
  Ewald energy   TEWEN  =     -4931.04985497
  -Hartree energ DENC   =      -608.24681485
  -exchange      EXHF   =         0.00000000
  -V(xc)+E(xc)   XCENC  =      -349.91832282
  PAW double counting   =     10171.45555210    -9483.56890833
  entropy T*S    EENTRO =        -0.00097800
  eigenvalues    EBANDS =      -425.03718708
  atomic energy  EATOM  =      5039.80367324
  Solvation  Ediel_sol  =         0.00000000
  ---------------------------------------------------
  free energy    TOTEN  =      -198.28193411 eV

  energy without entropy =     -198.28095611  energy(sigma->0) =     -198.28144511


--------------------------------------------------------------------------------------------------------




--------------------------------------- Iteration      1(   9)  ---------------------------------------


    POTLOK:  cpu time      2.0475: real time      2.0539
    SETDIJ:  cpu time      0.7271: real time      0.7301
     EDDAV:  cpu time     10.6932: real time     10.7891
       DOS:  cpu time      0.0019: real time      0.0019
    CHARGE:  cpu time      0.5895: real time      0.5928
    MIXING:  cpu time      0.0026: real time      0.0026
    --------------------------------------------
      LOOP:  cpu time     14.0617: real time     14.1705

 eigenvalue-minimisations  : 10688
 total energy-change (2. order) :-0.8482601E-02  (-0.1064770E-01)
 number of electron     191.9999998 magnetization       1.0000000
 augmentation part      -31.6056230 magnetization      -0.0916038

 Broyden mixing:
  rms(total) = 0.39395E-01    rms(broyden)= 0.39395E-01
  rms(prec ) = 0.49209E-01
  weight for this iteration     100.00

 eigenvalues of (default mixing * dielectric matrix)
  average eigenvalue GAMMA=   1.1480
  1.9270  1.4915  0.6453  0.5281

 Free energy of the ion-electron system (eV)
  ---------------------------------------------------
  alpha Z        PSCENC =       388.28090661
  Ewald energy   TEWEN  =     -4931.04985497
  -Hartree energ DENC   =      -607.79295827
  -exchange      EXHF   =         0.00000000
  -V(xc)+E(xc)   XCENC  =      -349.87376014
  PAW double counting   =     10342.69058283    -9654.89590835
  entropy T*S    EENTRO =        -0.00088746
  eigenvalues    EBANDS =      -425.45221020
  atomic energy  EATOM  =      5039.80367324
  Solvation  Ediel_sol  =         0.00000000
  ---------------------------------------------------
  free energy    TOTEN  =      -198.29041671 eV

  energy without entropy =     -198.28952925  energy(sigma->0) =     -198.28997298


--------------------------------------------------------------------------------------------------------




--------------------------------------- Iteration      1(  10)  ---------------------------------------


    POTLOK:  cpu time     12.5827: real time     12.6195
    SETDIJ:  cpu time      0.7274: real time      0.7305
     EDDAV:  cpu time     10.1650: real time     10.2557
       DOS:  cpu time      0.0021: real time      0.0021
    CHARGE:  cpu time      0.5915: real time      0.5949
    MIXING:  cpu time      0.0027: real time      0.0028
    --------------------------------------------
      LOOP:  cpu time     24.0714: real time     24.2055

 eigenvalue-minimisations  : 10008
 total energy-change (2. order) :-0.1256894E-02  (-0.1813548E-02)
 number of electron     191.9999998 magnetization       1.0000000
 augmentation part      -31.6121649 magnetization      -0.0866357

 Broyden mixing:
  rms(total) = 0.19688E-01    rms(broyden)= 0.19688E-01
  rms(prec ) = 0.21147E-01
  weight for this iteration     100.00

 eigenvalues of (default mixing * dielectric matrix)
  average eigenvalue GAMMA=   1.0957
  1.9932  1.6513  0.7412  0.5464  0.5464

 Free energy of the ion-electron system (eV)
  ---------------------------------------------------
  alpha Z        PSCENC =       388.28090661
  Ewald energy   TEWEN  =     -4931.04985497
  -Hartree energ DENC   =      -607.13069907
  -exchange      EXHF   =         0.00000000
  -V(xc)+E(xc)   XCENC  =      -349.87681328
  PAW double counting   =     10403.60342558    -9715.82622696
  entropy T*S    EENTRO =        -0.00099309
  eigenvalues    EBANDS =      -426.09509166
  atomic energy  EATOM  =      5039.80367324
  Solvation  Ediel_sol  =         0.00000000
  ---------------------------------------------------
  free energy    TOTEN  =      -198.29167360 eV

  energy without entropy =     -198.29068051  energy(sigma->0) =     -198.29117706


--------------------------------------------------------------------------------------------------------




--------------------------------------- Iteration      1(  11)  ---------------------------------------


    POTLOK:  cpu time      7.6812: real time      7.7055
    SETDIJ:  cpu time      0.7206: real time      0.7239
     EDDAV:  cpu time     10.4214: real time     10.5122
       DOS:  cpu time      0.0021: real time      0.0022
    CHARGE:  cpu time      0.5891: real time      0.5927
    MIXING:  cpu time      0.0032: real time      0.0032
    --------------------------------------------
      LOOP:  cpu time     19.4177: real time     19.5398

 eigenvalue-minimisations  : 10400
 total energy-change (2. order) :-0.7691742E-03  (-0.4303585E-03)
 number of electron     191.9999998 magnetization       1.0000000
 augmentation part      -31.6138684 magnetization      -0.0881604

 Broyden mixing:
  rms(total) = 0.90024E-02    rms(broyden)= 0.90024E-02
  rms(prec ) = 0.10952E-01
  weight for this iteration     100.00

 eigenvalues of (default mixing * dielectric matrix)
  average eigenvalue GAMMA=   1.0615
  2.0202  1.6538  0.9055  0.6578  0.6578  0.4741

 Free energy of the ion-electron system (eV)
  ---------------------------------------------------
  alpha Z        PSCENC =       388.28090661
  Ewald energy   TEWEN  =     -4931.04985497
  -Hartree energ DENC   =      -606.95063634
  -exchange      EXHF   =         0.00000000
  -V(xc)+E(xc)   XCENC  =      -349.87425459
  PAW double counting   =     10433.13794482    -9745.36892798
  entropy T*S    EENTRO =        -0.00101615
  eigenvalues    EBANDS =      -426.27027742
  atomic energy  EATOM  =      5039.80367324
  Solvation  Ediel_sol  =         0.00000000
  ---------------------------------------------------
  free energy    TOTEN  =      -198.29244278 eV

  energy without entropy =     -198.29142663  energy(sigma->0) =     -198.29193470


--------------------------------------------------------------------------------------------------------




--------------------------------------- Iteration      1(  12)  ---------------------------------------


    POTLOK:  cpu time     10.7838: real time     10.8149
    SETDIJ:  cpu time      0.7219: real time      0.7250
     EDDAV:  cpu time     12.8756: real time     12.9727
       DOS:  cpu time      0.0024: real time      0.0024
    CHARGE:  cpu time      0.5949: real time      0.5984
    MIXING:  cpu time      0.0031: real time      0.0032
    --------------------------------------------
      LOOP:  cpu time     24.9816: real time     25.1165

 eigenvalue-minimisations  : 10056
 total energy-change (2. order) :-0.7529656E-04  (-0.9198275E-04)
 number of electron     191.9999998 magnetization       1.0000000
 augmentation part      -31.6126612 magnetization      -0.0875297

 Broyden mixing:
  rms(total) = 0.37385E-02    rms(broyden)= 0.37385E-02
  rms(prec ) = 0.41394E-02
  weight for this iteration     100.00

 eigenvalues of (default mixing * dielectric matrix)
  average eigenvalue GAMMA=   1.0292
  2.0162  1.6260  1.0484  0.7531  0.7531  0.5412  0.4665

 Free energy of the ion-electron system (eV)
  ---------------------------------------------------
  alpha Z        PSCENC =       388.28090661
  Ewald energy   TEWEN  =     -4931.04985497
  -Hartree energ DENC   =      -607.04663069
  -exchange      EXHF   =         0.00000000
  -V(xc)+E(xc)   XCENC  =      -349.87014192
  PAW double counting   =     10440.79334851    -9753.02725006
  entropy T*S    EENTRO =        -0.00100400
  eigenvalues    EBANDS =      -426.17556479
  atomic energy  EATOM  =      5039.80367324
  Solvation  Ediel_sol  =         0.00000000
  ---------------------------------------------------
  free energy    TOTEN  =      -198.29251807 eV

  energy without entropy =     -198.29151408  energy(sigma->0) =     -198.29201607


--------------------------------------------------------------------------------------------------------




--------------------------------------- Iteration      1(  13)  ---------------------------------------


    POTLOK:  cpu time      6.0651: real time      6.0828
    SETDIJ:  cpu time      0.7209: real time      0.7241
     EDDAV:  cpu time     12.1274: real time     12.2226
       DOS:  cpu time      0.0017: real time      0.0017
    CHARGE:  cpu time      0.5898: real time      0.5935
    MIXING:  cpu time      0.0029: real time      0.0029
    --------------------------------------------
      LOOP:  cpu time     19.5079: real time     19.6276

 eigenvalue-minimisations  : 10232
 total energy-change (2. order) :-0.3798305E-04  (-0.1948472E-04)
 number of electron     191.9999998 magnetization       1.0000000
 augmentation part      -31.6121590 magnetization      -0.0871289

 Broyden mixing:
  rms(total) = 0.13493E-02    rms(broyden)= 0.13493E-02
  rms(prec ) = 0.16653E-02
  weight for this iteration     100.00

 eigenvalues of (default mixing * dielectric matrix)
  average eigenvalue GAMMA=   1.0143
  2.0337  1.6484  1.1719  0.8626  0.7021  0.7021  0.5238  0.4700

 Free energy of the ion-electron system (eV)
  ---------------------------------------------------
  alpha Z        PSCENC =       388.28090661
  Ewald energy   TEWEN  =     -4931.04985497
  -Hartree energ DENC   =      -607.07848762
  -exchange      EXHF   =         0.00000000
  -V(xc)+E(xc)   XCENC  =      -349.86949072
  PAW double counting   =     10441.46280870    -9753.69613467
  entropy T*S    EENTRO =        -0.00100013
  eigenvalues    EBANDS =      -426.14497649
  atomic energy  EATOM  =      5039.80367324
  Solvation  Ediel_sol  =         0.00000000
  ---------------------------------------------------
  free energy    TOTEN  =      -198.29255606 eV

  energy without entropy =     -198.29155592  energy(sigma->0) =     -198.29205599


--------------------------------------------------------------------------------------------------------




--------------------------------------- Iteration      1(  14)  ---------------------------------------


    POTLOK:  cpu time      5.8485: real time      5.8660
    SETDIJ:  cpu time      0.7205: real time      0.7237
     EDDAV:  cpu time     10.2230: real time     10.3126
       DOS:  cpu time      0.0018: real time      0.0018
    CHARGE:  cpu time      0.5894: real time      0.5928
    MIXING:  cpu time      0.0035: real time      0.0035
    --------------------------------------------
      LOOP:  cpu time     17.3867: real time     17.5005

 eigenvalue-minimisations  : 10144
 total energy-change (2. order) :-0.5922513E-05  (-0.2503406E-05)
 number of electron     191.9999998 magnetization       1.0000000
 augmentation part      -31.6120803 magnetization      -0.0872627

 Broyden mixing:
  rms(total) = 0.65043E-03    rms(broyden)= 0.65038E-03
  rms(prec ) = 0.79152E-03
  weight for this iteration     100.00

 eigenvalues of (default mixing * dielectric matrix)
  average eigenvalue GAMMA=   1.0172
  2.0773  1.6999  1.3954  0.9257  0.7350  0.7350  0.5981  0.4702  0.5178

 Free energy of the ion-electron system (eV)
  ---------------------------------------------------
  alpha Z        PSCENC =       388.28090661
  Ewald energy   TEWEN  =     -4931.04985497
  -Hartree energ DENC   =      -607.08779124
  -exchange      EXHF   =         0.00000000
  -V(xc)+E(xc)   XCENC  =      -349.86834203
  PAW double counting   =     10442.25659679    -9754.48943650
  entropy T*S    EENTRO =        -0.00099981
  eigenvalues    EBANDS =      -426.13731406
  atomic energy  EATOM  =      5039.80367324
  Solvation  Ediel_sol  =         0.00000000
  ---------------------------------------------------
  free energy    TOTEN  =      -198.29256198 eV

  energy without entropy =     -198.29156217  energy(sigma->0) =     -198.29206207


--------------------------------------------------------------------------------------------------------




--------------------------------------- Iteration      1(  15)  ---------------------------------------


    POTLOK:  cpu time      7.7008: real time      7.7230
    SETDIJ:  cpu time      0.7210: real time      0.7241
     EDDAV:  cpu time     11.9991: real time     12.0961
       DOS:  cpu time      0.0018: real time      0.0018
    CHARGE:  cpu time      0.5886: real time      0.5921
    MIXING:  cpu time      0.0030: real time      0.0030
    --------------------------------------------
      LOOP:  cpu time     21.0142: real time     21.1401

 eigenvalue-minimisations  : 10280
 total energy-change (2. order) :-0.1844266E-05  (-0.6473643E-06)
 number of electron     191.9999998 magnetization       1.0000000
 augmentation part      -31.6119628 magnetization      -0.0871976

 Broyden mixing:
  rms(total) = 0.30527E-03    rms(broyden)= 0.30516E-03
  rms(prec ) = 0.34615E-03
  weight for this iteration     100.00

 eigenvalues of (default mixing * dielectric matrix)
  average eigenvalue GAMMA=   1.0153
  2.1005  1.7307  1.5064  0.9097  0.9097  0.7376  0.7376  0.5646  0.4699  0.4865

 Free energy of the ion-electron system (eV)
  ---------------------------------------------------
  alpha Z        PSCENC =       388.28090661
  Ewald energy   TEWEN  =     -4931.04985497
  -Hartree energ DENC   =      -607.09933167
  -exchange      EXHF   =         0.00000000
  -V(xc)+E(xc)   XCENC  =      -349.86725799
  PAW double counting   =     10442.50943331    -9754.74185174
  entropy T*S    EENTRO =        -0.00100025
  eigenvalues    EBANDS =      -426.12728036
  atomic energy  EATOM  =      5039.80367324
  Solvation  Ediel_sol  =         0.00000000
  ---------------------------------------------------
  free energy    TOTEN  =      -198.29256382 eV

  energy without entropy =     -198.29156357  energy(sigma->0) =     -198.29206370


--------------------------------------------------------------------------------------------------------




--------------------------------------- Iteration      1(  16)  ---------------------------------------


    POTLOK:  cpu time      5.8516: real time      5.8686
    SETDIJ:  cpu time      0.7236: real time      0.7268
     EDDAV:  cpu time     10.1511: real time     10.2395
       DOS:  cpu time      0.0019: real time      0.0019
    CHARGE:  cpu time      0.5888: real time      0.5922
    MIXING:  cpu time      0.0034: real time      0.0034
    --------------------------------------------
      LOOP:  cpu time     17.3203: real time     17.4324

 eigenvalue-minimisations  : 10056
 total energy-change (2. order) :-0.6256505E-07  (-0.1275991E-06)
 number of electron     191.9999998 magnetization       1.0000000
 augmentation part      -31.6118996 magnetization      -0.0872057

 Broyden mixing:
  rms(total) = 0.11456E-03    rms(broyden)= 0.11427E-03
  rms(prec ) = 0.13492E-03
  weight for this iteration     100.00

 eigenvalues of (default mixing * dielectric matrix)
  average eigenvalue GAMMA=   0.9886
  2.0969  1.7455  1.4728  1.0442  0.7563  0.7563  0.7579  0.7579  0.5254  0.4719
  0.4901

 Free energy of the ion-electron system (eV)
  ---------------------------------------------------
  alpha Z        PSCENC =       388.28090661
  Ewald energy   TEWEN  =     -4931.04985497
  -Hartree energ DENC   =      -607.10526773
  -exchange      EXHF   =         0.00000000
  -V(xc)+E(xc)   XCENC  =      -349.86686984
  PAW double counting   =     10442.39121200    -9754.62330969
  entropy T*S    EENTRO =        -0.00100026
  eigenvalues    EBANDS =      -426.12205324
  atomic energy  EATOM  =      5039.80367324
  Solvation  Ediel_sol  =         0.00000000
  ---------------------------------------------------
  free energy    TOTEN  =      -198.29256389 eV

  energy without entropy =     -198.29156363  energy(sigma->0) =     -198.29206376


--------------------------------------------------------------------------------------------------------




--------------------------------------- Iteration      1(  17)  ---------------------------------------


    POTLOK:  cpu time     14.2230: real time     14.2646
    SETDIJ:  cpu time      0.7240: real time      0.7272
     EDDAV:  cpu time      8.8819: real time      8.9514
       DOS:  cpu time      0.0019: real time      0.0019
    CHARGE:  cpu time      0.5888: real time      0.5924
    MIXING:  cpu time      0.0034: real time      0.0034
    --------------------------------------------
      LOOP:  cpu time     24.4230: real time     24.5409

 eigenvalue-minimisations  :  6416
 total energy-change (2. order) : 0.1101544E-06  (-0.1900069E-07)
 number of electron     191.9999998 magnetization       1.0000000
 augmentation part      -31.6118883 magnetization      -0.0872120

 Broyden mixing:
  rms(total) = 0.76357E-04    rms(broyden)= 0.75914E-04
  rms(prec ) = 0.83620E-04
  weight for this iteration     100.00

 eigenvalues of (default mixing * dielectric matrix)
  average eigenvalue GAMMA=   0.9956
  2.1185  1.8043  1.4361  1.3240  0.8687  0.8687  0.7347  0.7347  0.6137  0.4937
  0.4707  0.4790

 Free energy of the ion-electron system (eV)
  ---------------------------------------------------
  alpha Z        PSCENC =       388.28090661
  Ewald energy   TEWEN  =     -4931.04985497
  -Hartree energ DENC   =      -607.10633954
  -exchange      EXHF   =         0.00000000
  -V(xc)+E(xc)   XCENC  =      -349.86672857
  PAW double counting   =     10442.31915955    -9754.55108063
  entropy T*S    EENTRO =        -0.00100015
  eigenvalues    EBANDS =      -426.12129931
  atomic energy  EATOM  =      5039.80367324
  Solvation  Ediel_sol  =         0.00000000
  ---------------------------------------------------
  free energy    TOTEN  =      -198.29256378 eV

  energy without entropy =     -198.29156363  energy(sigma->0) =     -198.29206370


--------------------------------------------------------------------------------------------------------




--------------------------------------- Iteration      1(  18)  ---------------------------------------


    POTLOK:  cpu time      7.9661: real time      7.9891
    SETDIJ:  cpu time      0.7216: real time      0.7253
     EDDAV:  cpu time      6.9790: real time      7.0399
       DOS:  cpu time      0.0018: real time      0.0018
    --------------------------------------------
      LOOP:  cpu time     15.6686: real time     15.7562

 eigenvalue-minimisations  :  5744
 total energy-change (2. order) : 0.5950642E-07  (-0.5683766E-08)
 number of electron     191.9999998 magnetization       1.0000000
 augmentation part      -31.6118883 magnetization      -0.0872120

 Free energy of the ion-electron system (eV)
  ---------------------------------------------------
  alpha Z        PSCENC =       388.28090661
  Ewald energy   TEWEN  =     -4931.04985497
  -Hartree energ DENC   =      -607.10744476
  -exchange      EXHF   =         0.00000000
  -V(xc)+E(xc)   XCENC  =      -349.86655113
  PAW double counting   =     10442.28219957    -9754.51399635
  entropy T*S    EENTRO =        -0.00100016
  eigenvalues    EBANDS =      -426.12049577
  atomic energy  EATOM  =      5039.80367324
  Solvation  Ediel_sol  =         0.00000000
  ---------------------------------------------------
  free energy    TOTEN  =      -198.29256372 eV

  energy without entropy =     -198.29156355  energy(sigma->0) =     -198.29206363


--------------------------------------------------------------------------------------------------------




 average (electrostatic) potential at core
  the test charge radii are     1.1631
  (the norm of the test charge is              1.0000)
       1 -33.3923       2 -33.3657       3 -33.3095       4 -33.5289       5 -33.5602
       6 -33.5987       7 -33.2636       8 -33.4529       9 -33.3948      10 -33.3936
      11 -33.4532      12 -33.2642      13 -33.5974      14 -33.5596      15 -33.5268
      16 -33.3119      17 -33.3651      18 -33.3913      19 -33.3923      20 -33.3657
      21 -33.3095      22 -33.2636      23 -33.4529      24 -33.3948      25 -33.5289
      26 -33.5602      27 -33.5987      28 -33.5974      29 -33.5596      30 -33.5268
      31 -33.3936      32 -33.4532      33 -33.2642      34 -33.3119      35 -33.3651
      36 -33.3913      37 -33.7613      38 -33.5662      39 -33.3488      40 -33.7613
      41 -33.5662      42 -33.3488      43 -33.3459      44 -33.5669      45 -33.7629
      46 -33.3459      47 -33.5669      48 -33.7629
 
 
 
 E-fermi :   3.2124     XC(G=0):  -8.9667     alpha+bet : -8.7732

 val. band max:        3.2827231143   @ k =   0.0000   0.0000   0.3333
 cond. band min:       3.2176958385   @ k =   0.2500   0.0000   0.3333
 fundamental gap:     -0.0650272758
 Fermi energy:         3.2949909744

 spin component 1

 k-point     1 :       0.0000    0.0000    0.0000
  band No.  band energies     occupation 
      1     -10.1172      1.00000
      2      -9.9279      1.00000
      3      -8.8552      1.00000
      4      -8.2797      1.00000
      5      -8.1504      1.00000
      6      -8.0625      1.00000
      7      -8.0571      1.00000
      8      -7.9654      1.00000
      9      -7.6774      1.00000
     10      -7.5241      1.00000
     11      -7.5104      1.00000
     12      -7.4590      1.00000
     13      -7.1661      1.00000
     14      -7.1652      1.00000
     15      -6.9365      1.00000
     16      -6.9359      1.00000
     17      -6.9337      1.00000
     18      -6.5601      1.00000
     19      -6.3184      1.00000
     20      -6.0290      1.00000
     21      -6.0272      1.00000
     22      -5.7681      1.00000
     23      -5.5267      1.00000
     24      -5.5264      1.00000
     25      -5.2706      1.00000
     26      -5.2667      1.00000
     27      -5.1535      1.00000
     28      -5.1481      1.00000
     29      -4.8691      1.00000
     30      -4.4041      1.00000
     31      -4.2918      1.00000
     32      -4.2680      1.00000
     33      -4.2619      1.00000
     34      -4.0480      1.00000
     35      -4.0468      1.00000
     36      -3.6750      1.00000
     37      -3.6150      1.00000
     38      -3.6143      1.00000
     39      -3.4386      1.00000
     40      -3.4377      1.00000
     41      -3.3660      1.00000
     42      -2.5625      1.00000
     43      -2.4080      1.00000
     44      -2.2396      1.00000
     45      -1.4854      1.00000
     46      -1.3471      1.00000
     47      -1.0787      1.00000
     48      -1.0748      1.00000
     49      -0.8478      1.00000
     50      -0.7469      1.00000
     51      -0.7462      1.00000
     52      -0.7174      1.00000
     53      -0.3539      1.00000
     54      -0.3120      1.00000
     55      -0.3107      1.00000
     56      -0.2976      1.00000
     57      -0.2485      1.00000
     58      -0.2222      1.00000
     59      -0.2211      1.00000
     60      -0.0192      1.00000
     61       0.2642      1.00000
     62       0.2665      1.00000
     63       0.3431      1.00000
     64       0.3444      1.00000
     65       0.6463      1.00000
     66       0.6464      1.00000
     67       0.6703      1.00000
     68       0.7148      1.00000
     69       0.7149      1.00000
     70       0.8085      1.00000
     71       0.8625      1.00000
     72       0.9502      1.00000
     73       1.1001      1.00000
     74       1.1530      1.00000
     75       1.1562      1.00000
     76       1.2652      1.00000
     77       1.3768      1.00000
     78       1.4006      1.00000
     79       1.4904      1.00000
     80       1.5938      1.00000
     81       1.7303      1.00000
     82       1.8263      1.00000
     83       1.8278      1.00000
     84       1.9079      1.00000
     85       2.0023      1.00000
     86       2.0555      1.00000
     87       2.0566      1.00000
     88       2.2713      1.00000
     89       2.4161      1.00000
     90       2.5581      1.00000
     91       2.7191      1.00000
     92       2.7426      1.00000
     93       2.9056      1.00000
     94       2.9092      1.00000
     95       2.9489      1.00000
     96       2.9765      1.00000
     97       3.1631      1.00000
     98       3.1656      1.00000
     99       3.3056      0.06604
    100       3.6826      0.00000
    101       3.7148      0.00000
    102       3.7235      0.00000
    103       3.7371      0.00000
    104       4.2953      0.00000
    105       4.3103      0.00000
    106       4.3356      0.00000
    107       4.3415      0.00000
    108       4.4321      0.00000
    109       4.5285      0.00000
    110       4.5600      0.00000
    111       4.7269      0.00000
    112       4.7287      0.00000
    113       4.8302      0.00000
    114       4.9033      0.00000
    115       5.0540      0.00000
    116       5.1262      0.00000

 k-point     2 :       0.2500    0.0000    0.0000
  band No.  band energies     occupation 
      1      -9.9736      1.00000
      2      -9.7877      1.00000
      3      -8.8498      1.00000
      4      -8.7217      1.00000
      5      -8.6856      1.00000
      6      -8.2498      1.00000
      7      -7.9207      1.00000
      8      -7.8547      1.00000
      9      -7.7345      1.00000
     10      -7.5696      1.00000
     11      -7.5522      1.00000
     12      -7.3344      1.00000
     13      -7.1190      1.00000
     14      -7.0068      1.00000
     15      -6.8195      1.00000
     16      -6.7293      1.00000
     17      -6.6552      1.00000
     18      -6.5174      1.00000
     19      -6.4020      1.00000
     20      -6.3468      1.00000
     21      -6.1192      1.00000
     22      -5.8936      1.00000
     23      -5.6436      1.00000
     24      -5.3759      1.00000
     25      -5.3271      1.00000
     26      -4.9812      1.00000
     27      -4.9620      1.00000
     28      -4.8625      1.00000
     29      -4.7155      1.00000
     30      -4.4686      1.00000
     31      -4.4054      1.00000
     32      -4.2724      1.00000
     33      -4.2205      1.00000
     34      -4.1557      1.00000
     35      -3.8208      1.00000
     36      -3.7962      1.00000
     37      -3.4834      1.00000
     38      -3.3678      1.00000
     39      -3.1122      1.00000
     40      -2.7965      1.00000
     41      -2.6650      1.00000
     42      -2.6620      1.00000
     43      -2.6310      1.00000
     44      -2.3261      1.00000
     45      -2.1081      1.00000
     46      -1.9037      1.00000
     47      -1.5654      1.00000
     48      -1.2421      1.00000
     49      -1.0404      1.00000
     50      -0.8432      1.00000
     51      -0.7427      1.00000
     52      -0.6858      1.00000
     53      -0.6353      1.00000
     54      -0.4981      1.00000
     55      -0.3355      1.00000
     56      -0.3134      1.00000
     57      -0.1699      1.00000
     58      -0.1135      1.00000
     59      -0.0558      1.00000
     60      -0.0224      1.00000
     61       0.0507      1.00000
     62       0.1856      1.00000
     63       0.3156      1.00000
     64       0.3607      1.00000
     65       0.4097      1.00000
     66       0.4914      1.00000
     67       0.5205      1.00000
     68       0.6143      1.00000
     69       0.6662      1.00000
     70       0.7641      1.00000
     71       0.8327      1.00000
     72       0.8604      1.00000
     73       0.9310      1.00000
[...]
 total charge-density along one line
 
 pseudopotential strength for first ion, spin component:           1
 14.563  18.172   0.021   0.010   0.000   0.039   0.018   0.000
 18.172  22.689   0.027   0.013   0.000   0.049   0.023   0.000
  0.021   0.027   3.239   0.001   0.000   5.517   0.001   0.000
  0.010   0.013   0.001   3.236   0.000   0.001   5.512   0.000
  0.000   0.000   0.000   0.000   3.234   0.000   0.000   5.509
  0.039   0.049   5.517   0.001   0.000   9.454   0.002   0.000
  0.018   0.023   0.001   5.512   0.000   0.002   9.447   0.000
  0.000   0.000   0.000   0.000   5.509   0.000   0.000   9.441
  0.000   0.000  -0.000   0.000   0.006   0.000   0.000   0.011
  0.001   0.002   0.004   0.004   0.000   0.008   0.008   0.000
  0.000   0.000  -0.004   0.005  -0.000  -0.008   0.008  -0.000
  0.000   0.000   0.000  -0.000   0.000   0.000  -0.000   0.001
 -0.005  -0.005  -0.006  -0.002   0.000  -0.011  -0.003   0.000
 pseudopotential strength for first ion, spin component:           2
 14.561  18.169   0.022   0.011   0.000   0.040   0.019   0.000
 18.169  22.686   0.028   0.013   0.000   0.050   0.024   0.000
  0.022   0.028   3.237   0.001  -0.000   5.513   0.001  -0.000
  0.011   0.013   0.001   3.235  -0.000   0.001   5.511  -0.000
  0.000   0.000  -0.000  -0.000   3.233  -0.000  -0.000   5.507
  0.040   0.050   5.513   0.001  -0.000   9.448   0.001  -0.000
  0.019   0.024   0.001   5.511  -0.000   0.001   9.444  -0.000
  0.000   0.000  -0.000  -0.000   5.507  -0.000  -0.000   9.437
 -0.000  -0.000   0.000   0.000   0.006   0.000   0.000   0.011
  0.001   0.001   0.004   0.005   0.000   0.008   0.009   0.000
  0.001   0.001  -0.004   0.005  -0.000  -0.008   0.009  -0.000
 -0.000  -0.000   0.000   0.000   0.000   0.000   0.000   0.001
 -0.004  -0.005  -0.006  -0.002   0.000  -0.011  -0.003   0.000
 total augmentation occupancy for first ion, spin component:           1
  3.210  -0.857   0.246   0.212   0.005  -0.048  -0.050  -0.002   0.001  -0.046   0.038  -0.001   0.065
 -0.857   0.444  -0.240  -0.169  -0.004   0.033   0.028   0.001  -0.000   0.019  -0.020   0.001  -0.030
  0.246  -0.240   1.229  -0.210   0.003  -0.146   0.062  -0.001   0.001  -0.035   0.025  -0.001  -0.031
  0.212  -0.169  -0.210   1.837  -0.004   0.062  -0.307   0.001  -0.001   0.090  -0.039   0.003   0.102
  0.005  -0.004   0.003  -0.004   1.967  -0.001   0.001  -0.326   0.016  -0.001   0.000   0.192  -0.000
 -0.048   0.033  -0.146   0.062  -0.001   0.021  -0.014   0.000  -0.000   0.006  -0.004   0.000   0.006
 -0.050   0.028   0.062  -0.307   0.001  -0.014   0.059  -0.000   0.000  -0.016   0.008  -0.000  -0.018
 -0.002   0.001  -0.001   0.001  -0.326   0.000  -0.000   0.061  -0.003   0.000  -0.000  -0.033   0.000
  0.001  -0.000   0.001  -0.001   0.016  -0.000   0.000  -0.003   0.005  -0.000   0.000  -0.000  -0.000
 -0.046   0.019  -0.035   0.090  -0.001   0.006  -0.016   0.000  -0.000   0.012  -0.005   0.000   0.006
  0.038  -0.020   0.025  -0.039   0.000  -0.004   0.008  -0.000   0.000  -0.005   0.011  -0.000  -0.004
 -0.001   0.001  -0.001   0.003   0.192   0.000  -0.000  -0.033  -0.000   0.000  -0.000   0.029   0.000
  0.065  -0.030  -0.031   0.102  -0.000   0.006  -0.018   0.000  -0.000   0.006  -0.004   0.000   0.014
 total augmentation occupancy for first ion, spin component:           2
  0.010  -0.006   0.001   0.001   0.000  -0.000  -0.000   0.000   0.000   0.000  -0.000  -0.000  -0.000
 -0.006   0.005  -0.003  -0.003  -0.000   0.000   0.000   0.000   0.000   0.000  -0.000   0.000   0.000
  0.001  -0.003   0.024   0.006   0.004  -0.002  -0.000  -0.000  -0.000  -0.000  -0.000  -0.000  -0.000
  0.001  -0.003   0.006   0.005   0.002  -0.000  -0.001  -0.000  -0.000  -0.000  -0.000  -0.000  -0.000
  0.000  -0.000   0.004   0.002   0.012  -0.000  -0.000  -0.001   0.000  -0.000  -0.000   0.001   0.000
 -0.000   0.000  -0.002  -0.000  -0.000   0.000   0.000   0.000   0.000   0.000   0.000   0.000   0.000
 -0.000   0.000  -0.000  -0.001  -0.000   0.000   0.000   0.000   0.000   0.000   0.000   0.000  -0.000
  0.000   0.000  -0.000  -0.000  -0.001   0.000   0.000   0.000  -0.000   0.000   0.000  -0.000  -0.000
  0.000   0.000  -0.000  -0.000   0.000   0.000   0.000  -0.000   0.000   0.000  -0.000  -0.000   0.000
  0.000   0.000  -0.000  -0.000  -0.000   0.000   0.000   0.000   0.000   0.000  -0.000  -0.000   0.000
 -0.000  -0.000  -0.000  -0.000  -0.000   0.000   0.000   0.000  -0.000  -0.000   0.000  -0.000   0.000
 -0.000   0.000  -0.000  -0.000   0.001   0.000   0.000  -0.000  -0.000  -0.000  -0.000   0.000   0.000
 -0.000   0.000  -0.000  -0.000   0.000   0.000  -0.000  -0.000   0.000   0.000   0.000   0.000   0.000


------------------------ aborting loop because EDIFF is reached ----------------------------------------


    CHARGE:  cpu time      0.5892: real time      0.5928
    FORLOC:  cpu time      0.0087: real time      0.0088
    FORNL :  cpu time      4.2361: real time      4.2621
    STRESS:  cpu time      8.4014: real time      8.4691
    FORCOR:  cpu time     10.3942: real time     10.4237
    FORHAR:  cpu time      0.0156: real time      0.0157
    MIXING:  cpu time      0.0034: real time      0.0034
    OFIELD:  cpu time      0.0000: real time      0.0000

  FORCE on cell =-STRESS in cart. coord.  units (eV):
  Direction    XX          YY          ZZ          XY          YZ          ZX
  --------------------------------------------------------------------------------------
  Alpha Z   388.28091   388.28091   388.28091
  Ewald   -1189.97841 -1971.60771 -1769.49057    -0.02926   102.42034    -0.01036
  Hartree   410.21114    65.43031   131.46835    -0.01326   122.08465    -0.00007
  E(xc)    -662.81815  -658.84896  -659.55908    -0.00133     0.40876     0.00478
  Local   -1351.42192  -252.29385  -509.80730     0.04026  -240.78313     0.07042
  n-local   971.20506   932.56581   941.96649    -0.07533    -3.76298    -0.05236
  augment    58.93559    59.31788    59.34347    -0.00066    -0.68775     0.00418
  Kinetic  1453.30908  1456.56232  1457.32503     0.04042    14.63959    -0.09427
  Fock        0.00000     0.00000     0.00000     0.00000     0.00000     0.00000
  -------------------------------------------------------------------------------------
  Total      77.72330    19.40671    39.52730    -0.03917    -5.68053    -0.07769
  in kB     109.79719    27.41523    55.83893    -0.05533    -8.02470    -0.10975
  external pressure =       64.35 kB  Pullay stress =        0.00 kB


 VOLUME and BASIS-vectors are now :
 -----------------------------------------------------------------------------
  energy-cutoff  :      700.00
  volume of cell :     1134.15
      direct lattice vectors                 reciprocal lattice vectors
     8.001338005  0.000000000  0.000000000     0.124979097 -0.041659701  0.000000000
     4.000669003 12.002006531  0.000000000     0.000000000  0.083319401  0.000000000
     0.000000000  0.000000000 11.810113907     0.000000000  0.000000000  0.084673188

  length of vectors
     8.001338005 12.651225760 11.810113907     0.131739536  0.083319401  0.084673188


 FORCES acting on ions
    electron-ion (+dipol)            ewald-force                    non-local-force                 convergence-correction
 -----------------------------------------------------------------------------------------------
   0.230E+00 0.308E+02 0.116E+02   -.214E+00 -.319E+02 -.117E+02   -.252E-01 0.703E+00 -.191E+00   -.208E-05 -.821E-04 0.822E-04
   0.878E-02 0.506E+01 0.146E+02   0.961E-03 -.521E+01 -.144E+02   -.650E-02 0.129E+00 -.256E+00   -.114E-05 -.296E-04 -.736E-04
   -.381E-01 0.136E+02 -.205E+02   0.158E-01 -.135E+02 0.211E+02   0.196E-01 -.958E-01 -.321E+00   0.882E-06 -.839E-04 -.671E-04
   -.108E+01 0.126E+02 -.727E+01   0.120E+01 -.143E+02 0.704E+01   0.177E+00 0.148E+00 0.161E+01   0.148E-05 -.320E-04 0.456E-04
   -.456E-02 0.320E+01 0.192E+01   -.173E-02 -.373E+01 -.180E+01   0.589E-02 0.271E+00 -.657E-01   0.165E-05 -.445E-04 -.462E-05
   0.123E+00 -.266E+01 0.152E+02   -.150E+00 0.232E+01 -.158E+02   0.566E-02 0.178E+00 -.359E+00   -.463E-06 0.373E-05 -.141E-03
   0.165E+00 -.308E+02 0.388E+02   -.144E+00 0.312E+02 -.394E+02   -.215E-01 -.377E+00 0.498E-01   0.278E-05 0.102E-03 -.554E-05
   -.453E-02 -.889E+01 -.493E+01   -.463E-02 0.924E+01 0.505E+01   -.221E-02 -.321E+00 0.726E-01   -.225E-05 0.726E-04 0.920E-04
   -.419E-01 -.149E+02 -.159E+02   0.190E-01 0.147E+02 0.163E+02   0.112E-01 0.559E-01 0.869E-01   0.848E-06 0.878E-04 -.302E-04
   -.453E-01 0.149E+02 0.160E+02   0.188E-01 -.147E+02 -.164E+02   0.299E-01 -.634E-01 -.653E-01   0.240E-05 -.749E-04 -.176E-04
   -.342E-02 0.890E+01 0.488E+01   -.456E-02 -.925E+01 -.500E+01   0.126E-01 0.333E+00 -.791E-01   -.241E-05 -.815E-04 -.126E-03
   0.166E+00 0.304E+02 -.389E+02   -.141E+00 -.308E+02 0.396E+02   -.582E-02 0.389E+00 -.417E-01   -.418E-06 -.912E-04 0.125E-04
   0.113E+00 0.280E+01 -.151E+02   -.149E+00 -.245E+01 0.157E+02   0.219E-01 -.186E+00 0.372E+00   -.789E-06 -.189E-04 0.998E-04
   -.979E-02 -.317E+01 -.185E+01   -.175E-02 0.369E+01 0.174E+01   0.195E-01 -.260E+00 0.617E-01   0.121E-05 0.400E-04 -.601E-04
   -.110E+01 -.125E+02 0.740E+01   0.121E+01 0.142E+02 -.720E+01   0.205E+00 -.134E+00 -.162E+01   0.287E-05 0.200E-04 -.331E-04
   -.335E-01 -.137E+02 0.204E+02   0.159E-01 0.137E+02 -.210E+02   0.211E-01 0.884E-01 0.331E+00   0.950E-06 0.929E-04 0.511E-04
   0.640E-02 -.509E+01 -.147E+02   0.985E-03 0.525E+01 0.144E+02   0.131E-01 -.120E+00 0.250E+00   0.123E-05 0.404E-04 0.322E-04
   0.233E+00 -.309E+02 -.114E+02   -.217E+00 0.320E+02 0.114E+02   -.353E-02 -.697E+00 0.184E+00   -.265E-05 0.855E-04 -.752E-04
   0.230E+00 0.308E+02 0.116E+02   -.214E+00 -.319E+02 -.117E+02   -.252E-01 0.703E+00 -.191E+00   -.525E-06 -.827E-04 0.828E-04
   0.873E-02 0.506E+01 0.146E+02   0.101E-02 -.521E+01 -.144E+02   -.650E-02 0.129E+00 -.256E+00   0.119E-05 -.274E-04 -.722E-04
   -.381E-01 0.136E+02 -.205E+02   0.158E-01 -.135E+02 0.211E+02   0.196E-01 -.958E-01 -.321E+00   -.282E-05 -.868E-04 -.679E-04
   0.165E+00 -.308E+02 0.388E+02   -.144E+00 0.312E+02 -.394E+02   -.215E-01 -.377E+00 0.498E-01   -.375E-05 0.101E-03 -.488E-05
   -.449E-02 -.889E+01 -.493E+01   -.467E-02 0.924E+01 0.505E+01   -.221E-02 -.321E+00 0.726E-01   0.159E-05 0.756E-04 0.906E-04
   -.419E-01 -.149E+02 -.159E+02   0.189E-01 0.147E+02 0.163E+02   0.112E-01 0.559E-01 0.869E-01   -.614E-06 0.883E-04 -.280E-04
   -.108E+01 0.126E+02 -.727E+01   0.120E+01 -.143E+02 0.704E+01   0.177E+00 0.148E+00 0.161E+01   0.163E-05 -.317E-04 0.445E-04
   -.457E-02 0.320E+01 0.192E+01   -.171E-02 -.373E+01 -.180E+01   0.589E-02 0.271E+00 -.657E-01   -.356E-05 -.449E-04 -.454E-05
   0.123E+00 -.266E+01 0.152E+02   -.150E+00 0.232E+01 -.158E+02   0.566E-02 0.178E+00 -.359E+00   0.689E-06 0.528E-05 -.143E-03
   0.113E+00 0.280E+01 -.151E+02   -.149E+00 -.245E+01 0.157E+02   0.219E-01 -.186E+00 0.372E+00   0.966E-07 -.186E-04 0.998E-04
   -.977E-02 -.317E+01 -.185E+01   -.176E-02 0.369E+01 0.174E+01   0.195E-01 -.260E+00 0.617E-01   0.121E-05 0.383E-04 -.616E-04
   -.110E+01 -.125E+02 0.740E+01   0.121E+01 0.142E+02 -.720E+01   0.205E+00 -.134E+00 -.162E+01   0.110E-05 0.191E-04 -.332E-04
   -.452E-01 0.149E+02 0.160E+02   0.188E-01 -.147E+02 -.164E+02   0.299E-01 -.634E-01 -.653E-01   -.135E-05 -.779E-04 -.168E-04
   -.343E-02 0.890E+01 0.488E+01   -.455E-02 -.925E+01 -.500E+01   0.126E-01 0.333E+00 -.791E-01   0.310E-05 -.814E-04 -.125E-03
   0.166E+00 0.304E+02 -.389E+02   -.141E+00 -.308E+02 0.396E+02   -.582E-02 0.389E+00 -.417E-01   0.209E-05 -.920E-04 0.118E-04
   -.335E-01 -.137E+02 0.204E+02   0.160E-01 0.137E+02 -.210E+02   0.211E-01 0.884E-01 0.331E+00   0.105E-05 0.911E-04 0.503E-04
   0.636E-02 -.509E+01 -.147E+02   0.103E-02 0.525E+01 0.144E+02   0.131E-01 -.120E+00 0.250E+00   0.339E-07 0.365E-04 0.328E-04
   0.233E+00 -.309E+02 -.114E+02   -.217E+00 0.320E+02 0.114E+02   -.353E-02 -.697E+00 0.184E+00   0.272E-05 0.852E-04 -.753E-04
   0.110E+01 0.317E+02 -.316E+02   -.116E+01 -.320E+02 0.330E+02   -.205E+00 -.299E+00 0.280E+00   -.462E-05 -.695E-04 0.105E-03
   -.117E+00 -.564E+01 0.139E+02   0.137E+00 0.538E+01 -.140E+02   -.501E-01 -.118E+00 -.544E+00   -.961E-06 0.318E-04 -.155E-04
   -.330E+00 -.560E+02 0.512E+02   0.293E+00 0.563E+02 -.529E+02   0.379E-02 0.120E+01 0.120E+01   0.114E-05 0.149E-03 -.755E-04
   0.110E+01 0.317E+02 -.316E+02   -.116E+01 -.320E+02 0.330E+02   -.205E+00 -.299E+00 0.280E+00   -.238E-05 -.700E-04 0.104E-03
   -.117E+00 -.564E+01 0.139E+02   0.137E+00 0.538E+01 -.140E+02   -.501E-01 -.118E+00 -.544E+00   -.128E-05 0.313E-04 -.150E-04
   -.330E+00 -.560E+02 0.512E+02   0.293E+00 0.563E+02 -.529E+02   0.379E-02 0.120E+01 0.120E+01   0.273E-05 0.149E-03 -.751E-04
   -.337E+00 0.563E+02 -.512E+02   0.293E+00 -.567E+02 0.529E+02   0.603E-02 -.124E+01 -.121E+01   0.137E-05 -.163E-03 0.130E-03
   -.136E+00 0.574E+01 -.140E+02   0.135E+00 -.549E+01 0.141E+02   -.312E-01 0.104E+00 0.580E+00   -.156E-07 -.443E-04 0.106E-03
   0.109E+01 -.318E+02 0.314E+02   -.115E+01 0.322E+02 -.328E+02   -.199E+00 0.306E+00 -.273E+00   -.387E-05 0.550E-04 -.375E-04
   -.337E+00 0.563E+02 -.512E+02   0.293E+00 -.567E+02 0.529E+02   0.603E-02 -.124E+01 -.121E+01   0.254E-05 -.161E-03 0.130E-03
   -.136E+00 0.574E+01 -.140E+02   0.135E+00 -.549E+01 0.141E+02   -.312E-01 0.104E+00 0.580E+00   -.119E-06 -.433E-04 0.105E-03
   0.109E+01 -.318E+02 0.314E+02   -.115E+01 0.322E+02 -.328E+02   -.199E+00 0.306E+00 -.273E+00   -.237E-05 0.541E-04 -.378E-04
 -----------------------------------------------------------------------------------------------
   -.106E+00 -.122E+00 -.220E-01   -.195E-13 -.213E-13 -.156E-12   0.289E-02 0.442E-02 0.967E-01   0.116E-06 -.779E-04 -.142E-04
 
 
 POSITION                                       TOTAL-FORCE (eV/Angst)
 -----------------------------------------------------------------------------------
     11.93366     11.93366      0.00000        -0.007297     -0.394960     -0.281529
      9.93333      9.93333      2.82890         0.005393     -0.022491      0.024029
      7.93299      7.93299      5.65780        -0.000581     -0.065818      0.274715
      3.93232      3.93232      0.00000         0.301890     -1.585263      1.376041
      1.93199      1.93199      2.82890         0.001754     -0.250265      0.049928
     11.93366     11.93366      5.65780        -0.019258     -0.162978     -0.919164
      7.93299      7.93299      0.00000         0.000918      0.004821     -0.620565
      5.93266      5.93266      2.82890        -0.009220      0.026868      0.192992
      3.93232      3.93232      5.65780        -0.009644     -0.124725      0.457288
      5.93266     11.93366      1.41445         0.005637      0.121283     -0.439612
      3.93232      9.93333      4.24335         0.006768     -0.014956     -0.200965
      9.93333      7.93299      7.07225         0.021339      0.009066      0.646797
      5.93266      3.93232      1.41445        -0.012761      0.164652      0.929849
      3.93232      1.93199      4.24335         0.010090      0.264670     -0.058117
      5.93266     11.93366      7.07225         0.309790      1.583886     -1.422999
      9.93333      7.93299      1.41445         0.005689      0.064555     -0.264460
      7.93299      5.93266      4.24335         0.022629      0.040004     -0.032922
      5.93266      3.93232      7.07225         0.014747      0.400831      0.255187
      7.93299     11.93366      0.00000        -0.007297     -0.394960     -0.281529
      5.93266      9.93333      2.82890         0.005393     -0.022491      0.024029
      3.93232      7.93299      5.65780        -0.000581     -0.065818      0.274715
      3.93232      7.93299      0.00000         0.000918      0.004821     -0.620565
      9.93333      5.93266      2.82890        -0.009220      0.026868      0.192992
      7.93299      3.93232      5.65780        -0.009644     -0.124725      0.457288
      7.93299      3.93232      0.00000         0.301890     -1.585263      1.376041
      5.93266      1.93199      2.82890         0.001754     -0.250265      0.049928
      7.93299     11.93366      5.65780        -0.019258     -0.162978     -0.919164
      1.93199      3.93232      1.41445        -0.012761      0.164652      0.929849
      7.93299      1.93199      4.24335         0.010090      0.264670     -0.058117
      9.93333     11.93366      7.07225         0.309790      1.583886     -1.422999
      9.93333     11.93366      1.41445         0.005637      0.121283     -0.439612
      7.93299      9.93333      4.24335         0.006768     -0.014956     -0.200965
      5.93266      7.93299      7.07225         0.021339      0.009066      0.646797
      5.93266      7.93299      1.41445         0.005689      0.064555     -0.264460
      3.93232      5.93266      4.24335         0.022629      0.040004     -0.032922
      1.93199      3.93232      7.07225         0.014747      0.400831      0.255187
      3.96671     11.27272      8.26247        -0.265890     -0.680957      1.678966
      5.96705      2.60461      9.20544        -0.028203     -0.375245     -0.673396
      3.96671      5.93850     10.14841        -0.031733      1.581709     -0.475354
      7.96738     11.27272      8.26247        -0.265890     -0.680957      1.678966
      1.96638      2.60461      9.20544        -0.028203     -0.375245     -0.673396
      7.96738      5.93850     10.14841        -0.031733      1.581709     -0.475354
      9.96771      9.93917      8.73396        -0.035688     -1.635965      0.476890
      3.96671      1.27105      9.67692        -0.029499      0.358507      0.702255
      1.96638      4.60494     10.61989        -0.256872      0.692769     -1.675854
      5.96705      9.93917      8.73396        -0.035688     -1.635965      0.476890
      7.96738      1.27105      9.67692        -0.029499      0.358507      0.702255
      5.96705      4.60494     10.61989        -0.256872      0.692769     -1.675854
 -----------------------------------------------------------------------------------
    total drift:                               -0.103314     -0.117439      0.074676


--------------------------------------------------------------------------------------------------------



  FREE ENERGIE OF THE ION-ELECTRON SYSTEM (eV)
  ---------------------------------------------------
  free  energy   TOTEN  =      -198.29256372 eV

  energy  without entropy=     -198.29156355  energy(sigma->0) =     -198.29206363
 


--------------------------------------------------------------------------------------------------------


    POTLOK:  cpu time      9.2719: real time      9.2991


--------------------------------------------------------------------------------------------------------


     LOOP+:  cpu time    365.7100: real time    368.1639
    4ORBIT:  cpu time      0.0000: real time      0.0000

 total amount of memory used by VASP MPI-rank0   101018. kBytes
=======================================================================

   base      :      30000. kBytes
   nonlr-proj:       3244. kBytes
   fftplans  :       8409. kBytes
   grid      :       6069. kBytes
   one-center:         48. kBytes
   wavefun   :      53248. kBytes
 
  
  
 General timing and accounting informations for this job:
 ========================================================
  
                  Total CPU time used (sec):      396.215
                            User time (sec):      380.299
                          System time (sec):       15.916
                         Elapsed time (sec):      400.180
  
                   Maximum memory used (kb):      387428.
                   Average memory used (kb):          N/A
  
                          Minor page faults:        88781
                          Major page faults:           32
                 Voluntary context switches:         1448
