Si and Ge interface calculation         
           1
     8.001338    0.000000    0.000000
     4.000669   12.002007    0.000000
     0.000000    0.000000   11.810114
   Ge
    48
Direct configuration=     1
   0.99430549  0.99430549  0.00000000
   0.82763886  0.82763886  0.23953195
   0.66097212  0.66097212  0.47906393
   0.32763880  0.32763880  0.00000000
   0.16097215  0.16097215  0.23953195
   0.99430543  0.99430543  0.47906393
   0.66097212  0.66097212  0.00000000
   0.49430543  0.49430543  0.23953195
   0.32763875  0.32763875  0.47906393
   0.24430548  0.99430549  0.11976597
   0.07763879  0.82763886  0.35929796
   0.91097212  0.66097212  0.59882999
   0.57763880  0.32763880  0.11976597
   0.41097212  0.16097213  0.35929796
   0.24430543  0.99430543  0.59882999
   0.91097218  0.66097212  0.11976597
   0.74430549  0.49430546  0.35929796
   0.57763880  0.32763877  0.59882999
   0.49430543  0.99430549  0.00000000
   0.32763877  0.82763886  0.23953195
   0.16097209  0.66097212  0.47906393
   0.16097218  0.66097212  0.00000000
   0.99430549  0.49430546  0.23953195
   0.82763880  0.32763877  0.47906393
   0.82763875  0.32763884  0.00000000
   0.66097212  0.16097216  0.23953195
   0.49430540  0.99430549  0.47906393
   0.07763883  0.32763884  0.11976597
   0.91097212  0.16097215  0.35929796
   0.74430549  0.99430549  0.59882999
   0.74430549  0.99430549  0.11976597
   0.57763880  0.82763880  0.35929796
   0.41097209  0.66097212  0.59882999
   0.41097215  0.66097212  0.11976597
   0.24430545  0.49430540  0.35929796
   0.07763875  0.32763872  0.59882999
   0.02613783  0.93923652  0.69961000
   0.63724881  0.21701431  0.77945399
   0.24835992  0.49479222  0.85929799
   0.52613777  0.93923652  0.69961000
   0.13724883  0.21701431  0.77945399
   0.74835986  0.49479222  0.85929799
   0.83169323  0.82812548  0.73953187
   0.44280440  0.10590315  0.81937599
   0.05391538  0.38368106  0.89921999
   0.33169323  0.82812548  0.73953187
   0.94280440  0.10590315  0.81937599
   0.55391538  0.38368106  0.89921999
