Si and Ge interface calculation         
           1
    13.303180    0.000000    0.000000
     6.651589   14.873406    0.000000
     0.000000    0.000000    8.390059
   Si   C 
    36    84
Direct configuration=     1
   0.98290563  0.65811950  0.00000000
   0.78290558  0.55811930  0.14474380
   0.58290541  0.45811909  0.28948760
   0.98290563  0.32478613  0.00000000
   0.78290558  0.22478597  0.14474380
   0.58290541  0.12478580  0.28948760
   0.98290563  0.99145281  0.00000000
   0.78290558  0.89145267  0.14474380
   0.58290541  0.79145253  0.28948760
   0.63290566  0.69145268  0.07237174
   0.43290559  0.59145248  0.21711555
   0.23290552  0.49145243  0.36185935
   0.63290566  0.35811943  0.07237174
   0.43290559  0.25811928  0.21711555
   0.23290552  0.15811914  0.36185935
   0.63290566  0.02478614  0.07237174
   0.43290559  0.92478597  0.21711555
   0.23290552  0.82478583  0.36185935
   0.48290563  0.65811950  0.00000000
   0.28290555  0.55811930  0.14474380
   0.08290544  0.45811909  0.28948760
   0.48290563  0.32478613  0.00000000
   0.28290555  0.22478595  0.14474380
   0.08290544  0.12478581  0.28948760
   0.48290563  0.99145281  0.00000000
   0.28290555  0.89145267  0.14474380
   0.08290544  0.79145253  0.28948760
   0.13290568  0.69145274  0.07237176
   0.93290555  0.59145248  0.21711555
   0.73290551  0.49145240  0.36185935
   0.13290568  0.35811949  0.07237176
   0.93290555  0.25811928  0.21711555
   0.73290551  0.15811913  0.36185935
   0.13290568  0.02478614  0.07237176
   0.93290555  0.92478597  0.21711555
   0.73290551  0.82478583  0.36185935
   0.93647456  0.04007983  0.56210440
   0.90790296  0.31150845  0.65716469
   0.87933135  0.58293706  0.75222492
   0.07933164  0.18293697  0.56210440
   0.05076015  0.45436558  0.65716469
   0.02218854  0.72579426  0.75222492
   0.22218883  0.32579413  0.56210440
   0.19361722  0.59722275  0.65716469
   0.16504574  0.86865145  0.75222492
   0.36504602  0.46865126  0.56210440
   0.33647442  0.74007994  0.65716469
   0.30790281  0.01150858  0.75222492
   0.50790310  0.61150843  0.56210440
   0.47933149  0.88293701  0.65716469
   0.45075989  0.15436566  0.75222492
   0.65076017  0.75436550  0.56210440
   0.62218869  0.02579416  0.65716469
   0.59361720  0.29722273  0.75222492
   0.79361749  0.89722276  0.56210440
   0.76504588  0.16865134  0.65716469
   0.73647428  0.44007993  0.75222492
   0.02933168  0.78293681  0.60963446
   0.00076020  0.05436540  0.70469469
   0.97218871  0.32579410  0.79975492
   0.17218876  0.92579406  0.60963446
   0.14361727  0.19722271  0.70469469
   0.11504567  0.46865141  0.79975492
   0.31504595  0.06865121  0.60963446
   0.28647447  0.34007990  0.70469469
   0.25790286  0.61150849  0.79975486
   0.45790315  0.21150827  0.60963446
   0.42933154  0.48293692  0.70469469
   0.40075994  0.75436544  0.79975486
   0.60076022  0.35436556  0.60963446
   0.57218862  0.62579417  0.70469469
   0.54361713  0.89722282  0.79975486
   0.74361730  0.49722266  0.60963446
   0.71504581  0.76865131  0.70469469
   0.68647432  0.04007996  0.79975492
   0.88647461  0.64007980  0.60963446
   0.85790300  0.91150844  0.70469469
   0.82933140  0.18293691  0.79975486
   0.00790310  0.61150837  0.56210440
   0.97933155  0.88293701  0.65716469
   0.95075995  0.15436566  0.75222492
   0.15076017  0.75436550  0.56210440
   0.12218869  0.02579416  0.65716469
   0.09361720  0.29722285  0.75222492
   0.29361749  0.89722264  0.56210440
   0.26504588  0.16865134  0.65716469
   0.23647428  0.44007993  0.75222486
   0.43647456  0.04007983  0.56210440
   0.40790296  0.31150845  0.65716469
   0.37933147  0.58293706  0.75222492
   0.57933164  0.18293691  0.56210440
   0.55076015  0.45436555  0.65716469
   0.52218866  0.72579420  0.75222492
   0.72218895  0.32579413  0.56210440
   0.69361734  0.59722275  0.65716469
   0.66504574  0.86865139  0.75222492
   0.86504602  0.46865124  0.56210440
   0.83647442  0.74007988  0.65716469
   0.80790281  0.01150846  0.75222492
   0.95790309  0.21150830  0.60963446
   0.92933154  0.48293692  0.70469469
   0.90075993  0.75436556  0.79975486
   0.10076022  0.35436535  0.60963446
   0.07218873  0.62579399  0.70469469
   0.04361713  0.89722258  0.79975486
   0.24361742  0.49722263  0.60963446
   0.21504581  0.76865125  0.70469469
   0.18647432  0.04007984  0.79975492
   0.38647461  0.64007974  0.60963446
   0.35790300  0.91150832  0.70469469
   0.32933140  0.18293691  0.79975492
   0.52933168  0.78293675  0.60963446
   0.50076008  0.05436540  0.70469469
   0.47218859  0.32579410  0.79975492
   0.67218876  0.92579401  0.60963446
   0.64361715  0.19722271  0.70469469
   0.61504567  0.46865117  0.79975492
   0.81504595  0.06865109  0.60963446
   0.78647435  0.34007966  0.70469469
   0.75790274  0.61150825  0.79975486
