Si and Ge interface calculation         
           1
    13.303180    0.000000    0.000000
     6.651589   14.873406    0.000000
     0.000000    0.000000    7.994752
   Si   C 
    36    84
Direct configuration=     1
   0.28324950  0.64162475  0.00000005
   0.81658280  0.40829128  0.15190083
   0.34991598  0.17495777  0.30380166
   0.61658275  0.30829138  0.00000006
   0.14991605  0.07495793  0.15190083
   0.68324923  0.84162444  0.30380163
   0.94991612  0.97495806  0.00000004
   0.48324949  0.74162459  0.15190083
   0.01658267  0.50829112  0.30380163
   0.79991627  0.77495801  0.07595029
   0.33324951  0.54162455  0.22785109
   0.86658275  0.30829108  0.37975195
   0.13324969  0.44162476  0.07595030
   0.66658294  0.20829128  0.22785109
   0.19991624  0.97495776  0.37975195
   0.46658289  0.10829154  0.07595030
   0.99991614  0.87495804  0.22785109
   0.53324938  0.64162457  0.37975195
   0.78324956  0.64162475  0.00000000
   0.31658283  0.40829128  0.15190081
   0.84991604  0.17495778  0.30380166
   0.11658280  0.30829140  0.00000006
   0.64991605  0.07495795  0.15190086
   0.18324930  0.84162450  0.30380166
   0.44991612  0.97495806  0.00000006
   0.98324943  0.74162459  0.15190086
   0.51658267  0.50829112  0.30380166
   0.29991618  0.77495813  0.07595030
   0.83324945  0.54162467  0.22785115
   0.36658269  0.30829120  0.37975192
   0.63324940  0.44162473  0.07595032
   0.16658264  0.20829126  0.22785115
   0.69991595  0.97495782  0.37975189
   0.96658272  0.10829155  0.07595030
   0.49991596  0.87495804  0.22785115
   0.03324926  0.64162463  0.37975195
   0.25673318  0.88883990  0.76469648
   0.59959024  0.91741157  0.56517530
   0.92816174  0.90312576  0.66493589
   0.54244733  0.74598283  0.76469648
   0.88530457  0.77455443  0.56517530
   0.21387601  0.76026863  0.66493589
   0.82816160  0.60312569  0.76469648
   0.17101872  0.63169730  0.56517530
   0.49959019  0.61741149  0.66493589
   0.11387598  0.46026850  0.76469648
   0.45673311  0.48884010  0.56517523
   0.78530455  0.47455433  0.66493589
   0.39959028  0.31741136  0.76469648
   0.74244738  0.34598297  0.56517523
   0.07101882  0.33169720  0.66493589
   0.68530452  0.17455426  0.76469648
   0.02816164  0.20312586  0.56517523
   0.35673311  0.18884009  0.66493589
   0.97101891  0.03169715  0.76469654
   0.31387597  0.06026864  0.56517523
   0.64244747  0.04598296  0.66493589
   0.70673299  0.98883992  0.81457668
   0.04959011  0.01741147  0.61505550
   0.37816158  0.00312567  0.71481615
   0.99244726  0.84598279  0.81457668
   0.33530441  0.87455440  0.61505550
   0.66387582  0.86026853  0.71481615
   0.27816153  0.70312566  0.81457681
   0.62101871  0.73169726  0.61505544
   0.94959021  0.71741146  0.71481609
   0.56387591  0.56026858  0.81457668
   0.90673304  0.58884013  0.61505544
   0.23530447  0.57455438  0.71481615
   0.84959030  0.41741145  0.81457681
   0.19244742  0.44598302  0.61505544
   0.52101874  0.43169725  0.71481609
   0.13530445  0.27455425  0.81457681
   0.47816163  0.30312586  0.61505550
   0.80673313  0.28884006  0.71481615
   0.42101887  0.13169712  0.81457668
   0.76387596  0.16026872  0.61505550
   0.09244740  0.14598292  0.71481609
   0.75673306  0.88883996  0.76469648
   0.09959018  0.91741145  0.56517523
   0.42816153  0.90312576  0.66493595
   0.04244757  0.74598283  0.76469654
   0.38530457  0.77455443  0.56517523
   0.71387601  0.76026863  0.66493589
   0.32816186  0.60312569  0.76469654
   0.67101884  0.63169730  0.56517523
   0.99959028  0.61741149  0.66493589
   0.61387598  0.46026856  0.76469654
   0.95673311  0.48884013  0.56517523
   0.28530446  0.47455436  0.66493589
   0.89959013  0.31741148  0.76469654
   0.24244738  0.34598300  0.56517523
   0.57101882  0.33169720  0.66493589
   0.18530464  0.17455427  0.76469654
   0.52816164  0.20312583  0.56517530
   0.85673320  0.18884003  0.66493589
   0.47101882  0.03169715  0.76469654
   0.81387591  0.06026876  0.56517530
   0.14244735  0.04598296  0.66493589
   0.20673311  0.98884004  0.81457668
   0.54959023  0.01741159  0.61505550
   0.87816155  0.00312567  0.71481609
   0.49244741  0.84598285  0.81457668
   0.83530450  0.87455446  0.61505550
   0.16387594  0.86026859  0.71481609
   0.77816164  0.70312566  0.81457668
   0.12101889  0.73169726  0.61505550
   0.44959035  0.71741140  0.71481609
   0.06387579  0.56026858  0.81457663
   0.40673307  0.58884007  0.61505544
   0.73530447  0.57455432  0.71481609
   0.34959033  0.41741139  0.81457668
   0.69244748  0.44598296  0.61505544
   0.02101886  0.43169719  0.71481609
   0.63530433  0.27455422  0.81457668
   0.97816157  0.30312583  0.61505544
   0.30673292  0.28884006  0.71481609
   0.92101872  0.13169719  0.81457668
   0.26387596  0.16026869  0.61505550
   0.59244728  0.14598292  0.71481615
