 264 264   0   0
  0.2770664E+02  0.1946760E-08  0.1946760E-08  0.1930025E-08  0.5000000E-15
  1.000000000000000E-004
  CAR 
 Si and Ge interface calculation         
      6.70005821     -8.48232951  301      4.08815268      1.00000000
     -8.482  0.0000E+00  0.0000E+00  0.0000E+00  0.0000E+00
     -8.432  0.0000E+00  0.0000E+00  0.0000E+00  0.0000E+00
     -8.381  0.0000E+00  0.0000E+00  0.0000E+00  0.0000E+00
     -8.331  0.0000E+00  0.0000E+00  0.0000E+00  0.0000E+00
     -8.280  0.0000E+00  0.0000E+00  0.0000E+00  0.0000E+00
     -8.229  0.0000E+00  0.0000E+00  0.0000E+00  0.0000E+00
     -8.179  0.0000E+00  0.0000E+00  0.0000E+00  0.0000E+00
     -8.128  0.0000E+00  0.0000E+00  0.0000E+00  0.0000E+00
     -8.077  0.0000E+00  0.0000E+00  0.0000E+00  0.0000E+00
     -8.027  0.0000E+00  0.0000E+00  0.0000E+00  0.0000E+00
     -7.976  0.0000E+00  0.0000E+00  0.0000E+00  0.0000E+00
     -7.926  0.0000E+00  0.0000E+00  0.0000E+00  0.0000E+00
     -7.875  0.0000E+00  0.0000E+00  0.0000E+00  0.0000E+00
     -7.824  0.2417E-04  0.5690E-05  0.1223E-05  0.2880E-06
     -7.774  0.9832E+01  0.9772E+01  0.4976E+00  0.4945E+00
     -7.723  0.1186E+01  0.6697E+00  0.5576E+00  0.5284E+00
     -7.673  0.3838E+02  0.3896E+02  0.2500E+01  0.2500E+01
     -7.622  0.2908E+02  0.2571E+02  0.3972E+01  0.3801E+01
     -7.571  0.1044E+02  0.1381E+02  0.4500E+01  0.4500E+01
     -7.521  0.5953E-10  0.5222E-11  0.4500E+01  0.4500E+01
     -7.470  0.1302E+02  0.9983E+01  0.5159E+01  0.5005E+01
     -7.420  0.2650E+02  0.2954E+02  0.6500E+01  0.6500E+01
     -7.369  0.7686E+02  0.7509E+02  0.1039E+02  0.1030E+02
     -7.318  0.2183E+01  0.3953E+01  0.1050E+02  0.1050E+02
     -7.268  0.0000E+00  0.0000E+00  0.1050E+02  0.1050E+02
     -7.217  0.1069E-12  0.1453E-13  0.1050E+02  0.1050E+02
     -7.167  0.3149E+01  0.2300E+01  0.1066E+02  0.1062E+02
     -7.116  0.3383E+02  0.3339E+02  0.1237E+02  0.1231E+02
     -7.065  0.2895E+02  0.2813E+02  0.1384E+02  0.1373E+02
     -7.015  0.3235E+02  0.3246E+02  0.1547E+02  0.1537E+02
     -6.964  0.4154E+02  0.4103E+02  0.1758E+02  0.1745E+02
     -6.913  0.1818E+02  0.2057E+02  0.1850E+02  0.1849E+02
     -6.863  0.8803E-01  0.1981E+00  0.1850E+02  0.1850E+02
     -6.812  0.4683E-02  0.9348E-03  0.1850E+02  0.1850E+02
     -6.762  0.2315E+02  0.1917E+02  0.1967E+02  0.1947E+02
     -6.711  0.7700E+02  0.7739E+02  0.2357E+02  0.2339E+02
     -6.660  0.3205E+02  0.3500E+02  0.2519E+02  0.2516E+02
     -6.610  0.3467E+02  0.3396E+02  0.2695E+02  0.2688E+02
     -6.559  0.1497E+02  0.1447E+02  0.2770E+02  0.2761E+02
     -6.509  0.4011E+02  0.3940E+02  0.2973E+02  0.2960E+02
     -6.458  0.8619E+02  0.8369E+02  0.3410E+02  0.3384E+02
     -6.407  0.8023E+02  0.7946E+02  0.3816E+02  0.3786E+02
     -6.357  0.3199E+02  0.3761E+02  0.3977E+02  0.3976E+02
     -6.306  0.8107E+02  0.7936E+02  0.4388E+02  0.4378E+02
     -6.256  0.1751E+02  0.1735E+02  0.4476E+02  0.4466E+02
     -6.205  0.9256E+02  0.9108E+02  0.4945E+02  0.4927E+02
     -6.154  0.7461E+02  0.7455E+02  0.5322E+02  0.5304E+02
     -6.104  0.4586E+02  0.4876E+02  0.5554E+02  0.5551E+02
     -6.053  0.1016E+02  0.1057E+02  0.5606E+02  0.5604E+02
     -6.003  0.6719E+02  0.5997E+02  0.5946E+02  0.5908E+02
     -5.952  0.1042E+03  0.1037E+03  0.6473E+02  0.6432E+02
     -5.901  0.1055E+03  0.1124E+03  0.7007E+02  0.7001E+02
     -5.851  0.6729E+02  0.6522E+02  0.7348E+02  0.7331E+02
     -5.800  0.1103E+03  0.1110E+03  0.7906E+02  0.7893E+02
     -5.749  0.1147E+03  0.1119E+03  0.8487E+02  0.8459E+02
     -5.699  0.8415E+02  0.8171E+02  0.8912E+02  0.8873E+02
     -5.648  0.9031E+02  0.9536E+02  0.9369E+02  0.9355E+02
     -5.598  0.5268E+02  0.5159E+02  0.9636E+02  0.9616E+02
     -5.547  0.9668E+02  0.9522E+02  0.1013E+03  0.1010E+03
     -5.496  0.1065E+03  0.1052E+03  0.1066E+03  0.1063E+03
     -5.446  0.1214E+03  0.1237E+03  0.1128E+03  0.1126E+03
     -5.395  0.7103E+02  0.7143E+02  0.1164E+03  0.1162E+03
     -5.345  0.1189E+03  0.1163E+03  0.1224E+03  0.1221E+03
     -5.294  0.1203E+03  0.1264E+03  0.1285E+03  0.1285E+03
     -5.243  0.4002E+02  0.3697E+02  0.1305E+03  0.1303E+03
     -5.193  0.8718E+02  0.8869E+02  0.1349E+03  0.1348E+03
     -5.142  0.4448E+02  0.4544E+02  0.1372E+03  0.1371E+03
     -5.092  0.1098E+03  0.1061E+03  0.1427E+03  0.1425E+03
     -5.041  0.1025E+03  0.1054E+03  0.1479E+03  0.1478E+03
     -4.990  0.1005E+03  0.9742E+02  0.1530E+03  0.1528E+03
     -4.940  0.1694E+03  0.1727E+03  0.1616E+03  0.1615E+03
     -4.889  0.8608E+02  0.8195E+02  0.1659E+03  0.1656E+03
     -4.839  0.6381E+02  0.6479E+02  0.1692E+03  0.1689E+03
     -4.788  0.7984E+02  0.7977E+02  0.1732E+03  0.1730E+03
     -4.737  0.6382E+02  0.6672E+02  0.1764E+03  0.1763E+03
     -4.687  0.9181E+02  0.8844E+02  0.1811E+03  0.1808E+03
     -4.636  0.1200E+03  0.1204E+03  0.1872E+03  0.1869E+03
     -4.586  0.1115E+03  0.1107E+03  0.1928E+03  0.1925E+03
     -4.535  0.5825E+02  0.6043E+02  0.1957E+03  0.1956E+03
     -4.484  0.7844E+02  0.7549E+02  0.1997E+03  0.1994E+03
     -4.434  0.1246E+03  0.1251E+03  0.2060E+03  0.2057E+03
     -4.383  0.8195E+02  0.8195E+02  0.2102E+03  0.2099E+03
     -4.332  0.1356E+03  0.1328E+03  0.2170E+03  0.2166E+03
     -4.282  0.9942E+02  0.1023E+03  0.2221E+03  0.2218E+03
     -4.231  0.6147E+02  0.6012E+02  0.2252E+03  0.2248E+03
     -4.181  0.9479E+02  0.1013E+03  0.2300E+03  0.2299E+03
     -4.130  0.7127E+02  0.6884E+02  0.2336E+03  0.2334E+03
     -4.079  0.3413E+02  0.3640E+02  0.2353E+03  0.2352E+03
     -4.029  0.3596E+02  0.3155E+02  0.2371E+03  0.2368E+03
     -3.978  0.6118E+02  0.6248E+02  0.2402E+03  0.2400E+03
     -3.928  0.3701E+02  0.3996E+02  0.2421E+03  0.2420E+03
     -3.877  0.6492E+02  0.6211E+02  0.2454E+03  0.2452E+03
     -3.826  0.8038E+02  0.7909E+02  0.2494E+03  0.2492E+03
     -3.776  0.5000E+02  0.5290E+02  0.2520E+03  0.2519E+03
     -3.725  0.3932E+02  0.3940E+02  0.2540E+03  0.2538E+03
     -3.675  0.6207E+02  0.6068E+02  0.2571E+03  0.2569E+03
     -3.624  0.5875E+02  0.5786E+02  0.2601E+03  0.2598E+03
     -3.573  0.3286E+02  0.3083E+02  0.2617E+03  0.2614E+03
     -3.523  0.1059E+03  0.1081E+03  0.2671E+03  0.2669E+03
     -3.472  0.5848E+02  0.5994E+02  0.2701E+03  0.2699E+03
     -3.422  0.2448E+02  0.2637E+02  0.2713E+03  0.2712E+03
     -3.371  0.6236E+02  0.5796E+02  0.2745E+03  0.2742E+03
     -3.320  0.9514E+02  0.9583E+02  0.2793E+03  0.2790E+03
     -3.270  0.7974E+02  0.8092E+02  0.2833E+03  0.2831E+03
     -3.219  0.7687E+02  0.6699E+02  0.2872E+03  0.2865E+03
     -3.168  0.8528E+02  0.9320E+02  0.2915E+03  0.2912E+03
     -3.118  0.6093E+02  0.6243E+02  0.2946E+03  0.2944E+03
     -3.067  0.9060E+02  0.9010E+02  0.2992E+03  0.2989E+03
     -3.017  0.4439E+02  0.4797E+02  0.3014E+03  0.3014E+03
     -2.966  0.4432E+02  0.3756E+02  0.3037E+03  0.3033E+03
     -2.915  0.9833E+02  0.1020E+03  0.3086E+03  0.3084E+03
     -2.865  0.8063E+02  0.7594E+02  0.3127E+03  0.3123E+03
     -2.814  0.9345E+02  0.1001E+03  0.3175E+03  0.3173E+03
     -2.764  0.4880E+02  0.5004E+02  0.3199E+03  0.3199E+03
     -2.713  0.8444E+02  0.7978E+02  0.3242E+03  0.3239E+03
     -2.662  0.8857E+02  0.8862E+02  0.3287E+03  0.3284E+03
     -2.612  0.1423E+03  0.1371E+03  0.3359E+03  0.3353E+03
     -2.561  0.1086E+03  0.1164E+03  0.3414E+03  0.3412E+03
     -2.511  0.1335E+03  0.1284E+03  0.3481E+03  0.3477E+03
     -2.460  0.1426E+03  0.1448E+03  0.3554E+03  0.3551E+03
     -2.409  0.1082E+03  0.1093E+03  0.3608E+03  0.3606E+03
     -2.359  0.8731E+02  0.8519E+02  0.3652E+03  0.3649E+03
     -2.308  0.1051E+03  0.1071E+03  0.3706E+03  0.3703E+03
     -2.258  0.9443E+02  0.9025E+02  0.3753E+03  0.3749E+03
     -2.207  0.6716E+02  0.7130E+02  0.3787E+03  0.3785E+03
     -2.156  0.9842E+02  0.9848E+02  0.3837E+03  0.3835E+03
     -2.106  0.7903E+02  0.8284E+02  0.3877E+03  0.3877E+03
     -2.055  0.8449E+02  0.8227E+02  0.3920E+03  0.3918E+03
     -2.005  0.1043E+03  0.1000E+03  0.3973E+03  0.3969E+03
     -1.954  0.7641E+02  0.8119E+02  0.4011E+03  0.4010E+03
     -1.903  0.5810E+02  0.5596E+02  0.4041E+03  0.4038E+03
     -1.853  0.7081E+02  0.7113E+02  0.4077E+03  0.4074E+03
     -1.802  0.1143E+03  0.1120E+03  0.4135E+03  0.4131E+03
     -1.751  0.9538E+02  0.9805E+02  0.4183E+03  0.4181E+03
     -1.701  0.3028E+02  0.3046E+02  0.4198E+03  0.4196E+03
     -1.650  0.8826E+02  0.8631E+02  0.4243E+03  0.4240E+03
     -1.600  0.8493E+02  0.8743E+02  0.4286E+03  0.4284E+03
     -1.549  0.8403E+02  0.8113E+02  0.4328E+03  0.4325E+03
     -1.498  0.7513E+02  0.7801E+02  0.4366E+03  0.4365E+03
     -1.448  0.6345E+02  0.6330E+02  0.4398E+03  0.4397E+03
     -1.397  0.6005E+02  0.6160E+02  0.4429E+03  0.4428E+03
     -1.347  0.5980E+02  0.5750E+02  0.4459E+03  0.4457E+03
     -1.296  0.5341E+02  0.5353E+02  0.4486E+03  0.4484E+03
     -1.245  0.2742E+02  0.3149E+02  0.4500E+03  0.4500E+03
     -1.195  0.6315E+02  0.6101E+02  0.4532E+03  0.4531E+03
     -1.144  0.4417E+02  0.4466E+02  0.4554E+03  0.4553E+03
     -1.094  0.4383E+02  0.3877E+02  0.4576E+03  0.4573E+03
     -1.043  0.6234E+02  0.6508E+02  0.4608E+03  0.4606E+03
     -0.992  0.6306E+02  0.6241E+02  0.4640E+03  0.4638E+03
     -0.942  0.4655E+02  0.4632E+02  0.4663E+03  0.4661E+03
     -0.891  0.3674E+02  0.3731E+02  0.4682E+03  0.4680E+03
     -0.841  0.9754E+02  0.9406E+02  0.4731E+03  0.4728E+03
     -0.790  0.5504E+02  0.6046E+02  0.4759E+03  0.4758E+03
     -0.739  0.5550E+02  0.5600E+02  0.4787E+03  0.4786E+03
     -0.689  0.3811E+02  0.3563E+02  0.4807E+03  0.4804E+03
     -0.638  0.5943E+02  0.6089E+02  0.4837E+03  0.4835E+03
     -0.587  0.5137E+02  0.5382E+02  0.4863E+03  0.4863E+03
     -0.537  0.3529E+02  0.3336E+02  0.4881E+03  0.4879E+03
     -0.486  0.9303E+01  0.1130E+02  0.4885E+03  0.4885E+03
     -0.436  0.2606E+02  0.2532E+02  0.4899E+03  0.4898E+03
     -0.385  0.4013E+02  0.3719E+02  0.4919E+03  0.4917E+03
     -0.334  0.3783E+02  0.4072E+02  0.4938E+03  0.4937E+03
     -0.284  0.2474E+02  0.2529E+02  0.4950E+03  0.4950E+03
     -0.233  0.4588E+02  0.4335E+02  0.4974E+03  0.4972E+03
     -0.183  0.7561E+02  0.7508E+02  0.5012E+03  0.5010E+03
     -0.132  0.3934E+02  0.4087E+02  0.5032E+03  0.5031E+03
     -0.081  0.5773E+02  0.5727E+02  0.5061E+03  0.5060E+03
     -0.031  0.8279E+02  0.8246E+02  0.5103E+03  0.5102E+03
      0.020  0.4866E+02  0.4811E+02  0.5128E+03  0.5126E+03
      0.070  0.1456E+03  0.1419E+03  0.5201E+03  0.5198E+03
      0.121  0.1155E+03  0.1159E+03  0.5260E+03  0.5256E+03
      0.172  0.1221E+03  0.1193E+03  0.5322E+03  0.5317E+03
      0.222  0.1528E+03  0.1563E+03  0.5399E+03  0.5396E+03
      0.273  0.1224E+03  0.1256E+03  0.5461E+03  0.5459E+03
      0.323  0.1081E+03  0.1046E+03  0.5516E+03  0.5512E+03
      0.374  0.6634E+02  0.6586E+02  0.5549E+03  0.5546E+03
      0.425  0.1401E+03  0.1387E+03  0.5620E+03  0.5616E+03
      0.475  0.1207E+03  0.1201E+03  0.5681E+03  0.5677E+03
      0.526  0.1196E+03  0.1220E+03  0.5742E+03  0.5738E+03
      0.576  0.5484E+02  0.5813E+02  0.5769E+03  0.5768E+03
      0.627  0.7262E+02  0.7293E+02  0.5806E+03  0.5805E+03
      0.678  0.1262E+03  0.1216E+03  0.5870E+03  0.5866E+03
      0.728  0.1755E+03  0.1728E+03  0.5959E+03  0.5954E+03
      0.779  0.1618E+03  0.1627E+03  0.6041E+03  0.6036E+03
      0.830  0.1820E+03  0.1847E+03  0.6133E+03  0.6129E+03
      0.880  0.1797E+03  0.1799E+03  0.6224E+03  0.6221E+03
      0.931  0.1162E+03  0.1155E+03  0.6283E+03  0.6279E+03
      0.981  0.2228E+03  0.2207E+03  0.6395E+03  0.6391E+03
      1.032  0.1588E+03  0.1590E+03  0.6476E+03  0.6471E+03
      1.083  0.1598E+03  0.1594E+03  0.6557E+03  0.6552E+03
      1.133  0.1896E+03  0.1894E+03  0.6652E+03  0.6648E+03
      1.184  0.1623E+03  0.1647E+03  0.6735E+03  0.6731E+03
      1.234  0.2282E+03  0.2254E+03  0.6850E+03  0.6845E+03
      1.285  0.1265E+03  0.1319E+03  0.6914E+03  0.6912E+03
      1.336  0.1287E+03  0.1279E+03  0.6979E+03  0.6977E+03
      1.386  0.1207E+03  0.1149E+03  0.7040E+03  0.7035E+03
      1.437  0.1834E+03  0.1881E+03  0.7133E+03  0.7130E+03
      1.487  0.2587E+03  0.2506E+03  0.7264E+03  0.7257E+03
      1.538  0.2119E+03  0.2165E+03  0.7371E+03  0.7366E+03
      1.589  0.1588E+03  0.1621E+03  0.7452E+03  0.7448E+03
      1.639  0.1631E+03  0.1560E+03  0.7534E+03  0.7527E+03
      1.690  0.1748E+03  0.1757E+03  0.7623E+03  0.7616E+03
      1.740  0.1798E+03  0.1871E+03  0.7714E+03  0.7711E+03
      1.791  0.1488E+03  0.1437E+03  0.7789E+03  0.7784E+03
      1.842  0.2233E+03  0.2249E+03  0.7902E+03  0.7897E+03
      1.892  0.1478E+03  0.1467E+03  0.7977E+03  0.7972E+03
      1.943  0.2023E+03  0.1990E+03  0.8079E+03  0.8072E+03
      1.994  0.1705E+03  0.1757E+03  0.8165E+03  0.8161E+03
      2.044  0.1804E+03  0.1727E+03  0.8257E+03  0.8249E+03
      2.095  0.1977E+03  0.2056E+03  0.8357E+03  0.8353E+03
      2.145  0.1642E+03  0.1632E+03  0.8440E+03  0.8435E+03
      2.196  0.1258E+03  0.1240E+03  0.8504E+03  0.8498E+03
      2.247  0.1685E+03  0.1725E+03  0.8589E+03  0.8585E+03
      2.297  0.1605E+03  0.1592E+03  0.8670E+03  0.8666E+03
      2.348  0.2021E+03  0.1947E+03  0.8772E+03  0.8765E+03
      2.398  0.1849E+03  0.1911E+03  0.8866E+03  0.8861E+03
      2.449  0.1071E+03  0.1035E+03  0.8920E+03  0.8914E+03
      2.500  0.1587E+03  0.1645E+03  0.9000E+03  0.8997E+03
      2.550  0.1149E+03  0.1159E+03  0.9059E+03  0.9056E+03
      2.601  0.1574E+03  0.1470E+03  0.9138E+03  0.9130E+03
      2.651  0.1456E+03  0.1564E+03  0.9212E+03  0.9209E+03
      2.702  0.1659E+03  0.1623E+03  0.9296E+03  0.9291E+03
      2.753  0.1498E+03  0.1446E+03  0.9372E+03  0.9364E+03
      2.803  0.1639E+03  0.1674E+03  0.9455E+03  0.9449E+03
      2.854  0.1574E+03  0.1570E+03  0.9534E+03  0.9529E+03
      2.904  0.8869E+02  0.9598E+02  0.9579E+03  0.9577E+03
      2.955  0.8946E+02  0.7920E+02  0.9624E+03  0.9617E+03
      3.006  0.1545E+03  0.1576E+03  0.9703E+03  0.9697E+03
      3.056  0.1277E+03  0.1298E+03  0.9767E+03  0.9763E+03
      3.107  0.1041E+03  0.1079E+03  0.9820E+03  0.9817E+03
      3.158  0.1336E+03  0.1227E+03  0.9888E+03  0.9879E+03
      3.208  0.1001E+03  0.1066E+03  0.9938E+03  0.9933E+03
      3.259  0.1092E+03  0.1102E+03  0.9994E+03  0.9989E+03
      3.309  0.1056E+03  0.1020E+03  0.1005E+04  0.1004E+04
      3.360  0.9392E+02  0.9981E+02  0.1009E+04  0.1009E+04
      3.411  0.8451E+02  0.7871E+02  0.1014E+04  0.1013E+04
      3.461  0.7852E+02  0.8384E+02  0.1018E+04  0.1017E+04
      3.512  0.8704E+02  0.9016E+02  0.1022E+04  0.1022E+04
      3.562  0.6120E+02  0.5417E+02  0.1025E+04  0.1025E+04
      3.613  0.1067E+03  0.1110E+03  0.1031E+04  0.1030E+04
      3.664  0.4050E+02  0.4435E+02  0.1033E+04  0.1033E+04
      3.714  0.5763E+02  0.4827E+02  0.1036E+04  0.1035E+04
      3.765  0.5262E+02  0.5939E+02  0.1038E+04  0.1038E+04
      3.815  0.3052E+02  0.2892E+02  0.1040E+04  0.1039E+04
      3.866  0.5369E+02  0.5328E+02  0.1042E+04  0.1042E+04
      3.917  0.2922E+02  0.3066E+02  0.1044E+04  0.1044E+04
      3.967  0.7288E+02  0.6409E+02  0.1048E+04  0.1047E+04
      4.018  0.4926E+02  0.5596E+02  0.1050E+04  0.1050E+04
      4.068  0.7144E+02  0.6324E+02  0.1054E+04  0.1053E+04
      4.119  0.1160E+03  0.1166E+03  0.1060E+04  0.1059E+04
      4.170  0.1160E+03  0.1051E+03  0.1066E+04  0.1064E+04
      4.220  0.9676E+02  0.1094E+03  0.1070E+04  0.1070E+04
      4.271  0.1036E+03  0.9859E+02  0.1076E+04  0.1075E+04
      4.321  0.8534E+02  0.1014E+03  0.1080E+04  0.1080E+04
      4.372  0.1102E+03  0.9521E+02  0.1086E+04  0.1085E+04
      4.423  0.1124E+03  0.1137E+03  0.1091E+04  0.1090E+04
      4.473  0.1119E+03  0.1058E+03  0.1097E+04  0.1096E+04
      4.524  0.9274E+02  0.1003E+03  0.1102E+04  0.1101E+04
      4.575  0.1190E+03  0.1253E+03  0.1108E+04  0.1107E+04
      4.625  0.9000E+02  0.8907E+02  0.1112E+04  0.1112E+04
      4.676  0.1323E+03  0.1239E+03  0.1119E+04  0.1118E+04
      4.726  0.1391E+03  0.1328E+03  0.1126E+04  0.1125E+04
      4.777  0.1213E+03  0.1381E+03  0.1132E+04  0.1132E+04
      4.828  0.1064E+03  0.9740E+02  0.1137E+04  0.1137E+04
      4.878  0.1295E+03  0.1324E+03  0.1144E+04  0.1143E+04
      4.929  0.1120E+03  0.1179E+03  0.1150E+04  0.1149E+04
      4.979  0.1320E+03  0.1307E+03  0.1156E+04  0.1156E+04
      5.030  0.1190E+03  0.1123E+03  0.1162E+04  0.1162E+04
      5.081  0.1328E+03  0.1326E+03  0.1169E+04  0.1168E+04
      5.131  0.8253E+02  0.8893E+02  0.1173E+04  0.1173E+04
      5.182  0.1389E+03  0.1336E+03  0.1180E+04  0.1180E+04
      5.232  0.1293E+03  0.1321E+03  0.1187E+04  0.1186E+04
      5.283  0.3838E+02  0.4024E+02  0.1189E+04  0.1188E+04
      5.334  0.1105E+03  0.1125E+03  0.1194E+04  0.1194E+04
      5.384  0.1198E+03  0.1136E+03  0.1200E+04  0.1200E+04
      5.435  0.1377E+03  0.1469E+03  0.1207E+04  0.1207E+04
      5.485  0.1297E+03  0.1263E+03  0.1214E+04  0.1214E+04
      5.536  0.1253E+03  0.1203E+03  0.1220E+04  0.1220E+04
      5.587  0.1706E+03  0.1670E+03  0.1229E+04  0.1228E+04
      5.637  0.1630E+03  0.1678E+03  0.1237E+04  0.1237E+04
      5.688  0.1019E+03  0.1076E+03  0.1242E+04  0.1242E+04
      5.739  0.1040E+03  0.1039E+03  0.1248E+04  0.1247E+04
      5.789  0.1185E+03  0.1115E+03  0.1254E+04  0.1253E+04
      5.840  0.1184E+03  0.1262E+03  0.1260E+04  0.1259E+04
      5.890  0.9513E+02  0.9960E+02  0.1264E+04  0.1264E+04
      5.941  0.1133E+03  0.1043E+03  0.1270E+04  0.1270E+04
      5.992  0.3202E+02  0.3784E+02  0.1272E+04  0.1272E+04
      6.042  0.4788E+01  0.9854E+01  0.1272E+04  0.1272E+04
      6.093  0.0000E+00  0.0000E+00  0.1272E+04  0.1272E+04
      6.143  0.0000E+00  0.0000E+00  0.1272E+04  0.1272E+04
      6.194  0.0000E+00  0.0000E+00  0.1272E+04  0.1272E+04
      6.245  0.0000E+00  0.0000E+00  0.1272E+04  0.1272E+04
      6.295  0.0000E+00  0.0000E+00  0.1272E+04  0.1272E+04
      6.346  0.0000E+00  0.0000E+00  0.1272E+04  0.1272E+04
      6.396  0.0000E+00  0.0000E+00  0.1272E+04  0.1272E+04
      6.447  0.0000E+00  0.0000E+00  0.1272E+04  0.1272E+04
      6.498  0.0000E+00  0.0000E+00  0.1272E+04  0.1272E+04
      6.548  0.0000E+00  0.0000E+00  0.1272E+04  0.1272E+04
      6.599  0.0000E+00  0.0000E+00  0.1272E+04  0.1272E+04
      6.649  0.0000E+00  0.0000E+00  0.1272E+04  0.1272E+04
      6.700  0.0000E+00  0.0000E+00  0.1272E+04  0.1272E+04
