Si and Ge interface calculation         
           1
    16.002676    0.000000    0.000000
     0.000000   16.002676    0.000000
     0.000000    0.000000   13.861000
   Ge   Si
    96   108
Direct configuration=     1
   0.99572915  0.99572915  0.00000000
   0.87072915  0.87072915  0.20409061
   0.74572915  0.74572915  0.40818125
   0.99572915  0.49572909  0.00000000
   0.87072915  0.37072912  0.20409061
   0.74572915  0.24572912  0.40818125
   0.24572912  0.24572912  0.00000000
   0.12072913  0.12072913  0.20409061
   0.99572915  0.99572915  0.40818125
   0.49572909  0.99572915  0.00000000
   0.37072912  0.87072915  0.20409061
   0.24572912  0.74572915  0.40818125
   0.24572912  0.74572909  0.00000000
   0.12072914  0.62072909  0.20409061
   0.99572915  0.49572909  0.40818125
   0.49572909  0.49572912  0.00000000
   0.37072912  0.37072915  0.20409061
   0.24572910  0.24572912  0.40818125
   0.74572915  0.24572915  0.00000000
   0.62072915  0.12072917  0.20409061
   0.49572915  0.99572915  0.40818125
   0.74572915  0.74572909  0.00000000
   0.62072915  0.62072915  0.20409061
   0.49572915  0.49572912  0.40818125
   0.12072914  0.99572915  0.10204530
   0.99572915  0.87072915  0.30613592
   0.87072915  0.74572915  0.51022661
   0.12072912  0.49572909  0.10204530
   0.99572915  0.37072909  0.30613592
   0.87072909  0.24572909  0.51022661
   0.37072915  0.24572915  0.10204530
   0.24572915  0.12072915  0.30613592
   0.12072914  0.99572915  0.51022661
   0.62072915  0.99572915  0.10204530
   0.49572915  0.87072915  0.30613592
   0.37072915  0.74572915  0.51022661
   0.37072915  0.74572909  0.10204530
   0.24572913  0.62072909  0.30613592
   0.12072913  0.49572912  0.51022661
   0.62072909  0.49572909  0.10204530
   0.49572909  0.37072906  0.30613592
   0.37072909  0.24572907  0.51022661
   0.87072915  0.24572913  0.10204530
   0.74572909  0.12072911  0.30613592
   0.62072915  0.99572915  0.51022661
   0.87072909  0.74572909  0.10204530
   0.74572909  0.62072909  0.30613592
   0.62072915  0.49572912  0.51022661
   0.99572915  0.24572913  0.00000000
   0.87072915  0.12072913  0.20409061
   0.74572915  0.99572915  0.40818125
   0.24572913  0.99572915  0.00000000
   0.12072913  0.87072915  0.20409061
   0.99572915  0.74572915  0.40818125
   0.99572915  0.74572915  0.00000000
   0.87072915  0.62072915  0.20409061
   0.74572915  0.49572915  0.40818125
   0.24572913  0.49572912  0.00000000
   0.12072916  0.37072915  0.20409061
   0.99572915  0.24572915  0.40818125
   0.49572912  0.24572913  0.00000000
   0.37072915  0.12072916  0.20409061
   0.24572915  0.99572915  0.40818125
   0.74572915  0.99572915  0.00000000
   0.62072915  0.87072915  0.20409061
   0.49572915  0.74572915  0.40818125
   0.49572912  0.74572909  0.00000000
   0.37072915  0.62072915  0.20409061
   0.24572913  0.49572912  0.40818125
   0.74572909  0.49572912  0.00000000
   0.62072915  0.37072915  0.20409061
   0.49572912  0.24572913  0.40818125
   0.12072914  0.24572912  0.10204530
   0.99572915  0.12072913  0.30613592
   0.87072915  0.99572915  0.51022661
   0.37072912  0.99572915  0.10204530
   0.24572913  0.87072915  0.30613592
   0.12072913  0.74572909  0.51022661
   0.12072914  0.74572909  0.10204530
   0.99572915  0.62072909  0.30613592
   0.87072915  0.49572909  0.51022661
   0.37072912  0.49572909  0.10204530
   0.24572913  0.37072912  0.30613592
   0.12072913  0.24572909  0.51022661
   0.62072909  0.24572912  0.10204530
   0.49572912  0.12072912  0.30613592
   0.37072912  0.99572909  0.51022661
   0.87072909  0.99572915  0.10204530
   0.74572909  0.87072915  0.30613592
   0.62072909  0.74572915  0.51022661
   0.62072915  0.74572915  0.10204530
   0.49572912  0.62072915  0.30613592
   0.37072915  0.49572915  0.51022661
   0.87072903  0.49572906  0.10204530
   0.74572903  0.37072903  0.30613592
   0.62072909  0.24572907  0.51022661
   0.99406773  0.66666669  0.51022661
   0.82740104  0.66666669  0.70613599
   0.66073430  0.66666669  0.90204549
   0.99406773  0.33333334  0.51022661
   0.82740104  0.33333334  0.70613599
   0.66073430  0.33333334  0.90204549
   0.99406773  0.00000000  0.51022661
   0.82740104  0.00000000  0.70613599
   0.66073430  0.00000000  0.90204549
   0.32740104  0.66666669  0.51022661
   0.16073437  0.66666669  0.70613599
   0.99406767  0.66666669  0.90204549
   0.32740104  0.33333334  0.51022661
   0.16073437  0.33333334  0.70613599
   0.99406767  0.33333334  0.90204549
   0.32740104  0.00000000  0.51022661
   0.16073437  0.00000000  0.70613599
   0.99406767  0.00000000  0.90204549
   0.66073442  0.66666669  0.51022661
   0.49406770  0.66666669  0.70613599
   0.32740104  0.66666669  0.90204549
   0.66073442  0.33333334  0.51022661
   0.49406770  0.33333334  0.70613599
   0.32740104  0.33333334  0.90204549
   0.66073442  0.00000000  0.51022661
   0.49406770  0.00000000  0.70613599
   0.32740104  0.00000000  0.90204549
   0.07740105  0.91666669  0.60818130
   0.91073436  0.91666669  0.80409062
   0.74406767  0.91666669  0.00000000
   0.07740105  0.58333337  0.60818130
   0.91073436  0.58333337  0.80409062
   0.74406767  0.58333337  0.00000000
   0.07740105  0.25000000  0.60818130
   0.91073436  0.25000000  0.80409062
   0.74406767  0.25000000  0.00000000
   0.41073436  0.91666669  0.60818130
   0.24406767  0.91666669  0.80409062
   0.07740098  0.91666669  0.00000000
   0.41073436  0.58333337  0.60818130
   0.24406767  0.58333337  0.80409062
   0.07740098  0.58333337  0.00000000
   0.41073436  0.25000000  0.60818130
   0.24406767  0.25000000  0.80409062
   0.07740098  0.25000000  0.00000000
   0.74406773  0.91666669  0.60818130
   0.57740104  0.91666669  0.80409062
   0.41073436  0.91666669  0.00000000
   0.74406773  0.58333337  0.60818130
   0.57740104  0.58333337  0.80409062
   0.41073436  0.58333337  0.00000000
   0.74406773  0.25000000  0.60818130
   0.57740104  0.25000000  0.80409062
   0.41073436  0.25000000  0.00000000
   0.16073438  0.83333331  0.51022661
   0.99406767  0.83333331  0.70613599
   0.82740098  0.83333331  0.90204549
   0.16073438  0.50000000  0.51022661
   0.99406767  0.50000000  0.70613599
   0.82740098  0.50000000  0.90204549
   0.16073438  0.16666667  0.51022661
   0.99406767  0.16666667  0.70613599
   0.82740098  0.16666667  0.90204549
   0.49406770  0.83333331  0.51022661
   0.32740104  0.83333331  0.70613599
   0.16073431  0.83333331  0.90204549
   0.49406770  0.50000000  0.51022661
   0.32740104  0.50000000  0.70613599
   0.16073431  0.50000000  0.90204549
   0.49406770  0.16666667  0.51022661
   0.32740104  0.16666667  0.70613599
   0.16073431  0.16666667  0.90204549
   0.82740104  0.83333331  0.51022661
   0.66073436  0.83333331  0.70613599
   0.49406764  0.83333331  0.90204549
   0.82740104  0.50000000  0.51022661
   0.66073436  0.50000000  0.70613599
   0.49406764  0.50000000  0.90204549
   0.82740104  0.16666667  0.51022661
   0.66073436  0.16666667  0.70613599
   0.49406764  0.16666667  0.90204549
   0.24406771  0.75000000  0.60818130
   0.07740103  0.75000000  0.80409062
   0.91073436  0.75000000  0.00000000
   0.24406771  0.41666669  0.60818130
   0.07740103  0.41666669  0.80409062
   0.91073436  0.41666669  0.00000000
   0.24406771  0.08333334  0.60818130
   0.07740103  0.08333334  0.80409062
   0.91073436  0.08333334  0.00000000
   0.57740116  0.75000000  0.60818130
   0.41073445  0.75000000  0.80409062
   0.24406774  0.75000000  0.00000000
   0.57740116  0.41666669  0.60818130
   0.41073445  0.41666669  0.80409062
   0.24406774  0.41666669  0.00000000
   0.57740116  0.08333334  0.60818130
   0.41073445  0.08333334  0.80409062
   0.24406774  0.08333334  0.00000000
   0.91073436  0.75000000  0.60818130
   0.74406767  0.75000000  0.80409062
   0.57740104  0.75000000  0.00000000
   0.91073436  0.41666669  0.60818130
   0.74406767  0.41666669  0.80409062
   0.57740104  0.41666669  0.00000000
   0.91073436  0.08333334  0.60818130
   0.74406767  0.08333334  0.80409062
   0.57740104  0.08333334  0.00000000
