Si and Ge interface calculation         
           1
    16.293001    0.000000    0.000000
   -10.862000   12.144086    0.000000
     0.000000    0.000000    7.006474
   Si   C 
    36    84
Direct configuration=     1
   0.97435850  0.98290563  0.00000000
   0.67435843  0.78290558  0.17332670
   0.37435842  0.58290553  0.34665340
   0.30769178  0.98290563  0.00000000
   0.00769173  0.78290558  0.17332670
   0.70769167  0.58290553  0.34665340
   0.64102507  0.98290563  0.00000000
   0.34102503  0.78290558  0.17332670
   0.04102499  0.58290553  0.34665340
   0.15769197  0.63290560  0.08666317
   0.85769194  0.43290553  0.25998989
   0.55769193  0.23290551  0.43331653
   0.49102521  0.63290560  0.08666317
   0.19102515  0.43290553  0.25998989
   0.89102519  0.23290551  0.43331653
   0.82435846  0.63290560  0.08666317
   0.52435839  0.43290553  0.25998989
   0.22435850  0.23290551  0.43331653
   0.14102516  0.48290560  0.00000000
   0.84102511  0.28290549  0.17332670
   0.54102510  0.08290543  0.34665340
   0.47435844  0.48290560  0.00000000
   0.17435838  0.28290549  0.17332670
   0.87435836  0.08290543  0.34665340
   0.80769169  0.48290560  0.00000000
   0.50769168  0.28290549  0.17332670
   0.20769163  0.08290543  0.34665340
   0.99102521  0.13290566  0.08666318
   0.69102514  0.93290561  0.25998989
   0.39102519  0.73290557  0.43331653
   0.32435846  0.13290566  0.08666318
   0.02435841  0.93290561  0.25998989
   0.72435844  0.73290557  0.43331653
   0.65769166  0.13290566  0.08666318
   0.35769162  0.93290561  0.25998989
   0.05769165  0.73290557  0.43331653
   0.14209872  0.20695710  0.57436830
   0.38495594  0.17838573  0.68820030
   0.62781316  0.14981413  0.80203235
   0.42781299  0.34981430  0.57436830
   0.67067021  0.32124281  0.68820030
   0.91352743  0.29267132  0.80203235
   0.71352720  0.49267140  0.57436830
   0.95638448  0.46409991  0.68820030
   0.19924176  0.43552846  0.80203235
   0.99924159  0.63552856  0.57436830
   0.24209881  0.60695708  0.68820030
   0.48495614  0.57838565  0.80203235
   0.28495586  0.77838570  0.57436830
   0.52781308  0.74981427  0.68820030
   0.77067030  0.72124279  0.80203235
   0.57067019  0.92124289  0.57436830
   0.81352741  0.89267141  0.68820030
   0.05638468  0.86409992  0.80203235
   0.85638440  0.06410003  0.57436830
   0.09924161  0.03552842  0.68820030
   0.34209883  0.00695705  0.80203235
   0.97781289  0.29981428  0.63128424
   0.22067022  0.27124283  0.74511617
   0.46352744  0.24267131  0.85894823
   0.26352710  0.44267142  0.63128418
   0.50638437  0.41409996  0.74511629
   0.74924159  0.38552844  0.85894823
   0.54924148  0.58552861  0.63128418
   0.79209870  0.55695713  0.74511629
   0.03495598  0.52838564  0.85894823
   0.83495581  0.72838575  0.63128418
   0.07781315  0.69981420  0.74511629
   0.32067037  0.67124283  0.85894823
   0.12066997  0.87124288  0.63128418
   0.36352730  0.84267139  0.74511629
   0.60638440  0.81409991  0.85894823
   0.40638441  0.01410008  0.63128424
   0.64924169  0.98552847  0.74511629
   0.89209890  0.95695704  0.85894823
   0.69209856  0.15695715  0.63128424
   0.93495578  0.12838566  0.74511629
   0.17781305  0.09981418  0.85894823
   0.78495598  0.27838576  0.57436830
   0.02781308  0.24981424  0.68820030
   0.27067041  0.22124281  0.80203235
   0.07067037  0.42124289  0.57436830
   0.31352746  0.39267138  0.68820030
   0.55638456  0.36409989  0.80203235
   0.35638446  0.56410003  0.57436830
   0.59924167  0.53552854  0.68820030
   0.84209889  0.50695705  0.80203235
   0.64209866  0.70695716  0.57436830
   0.88495594  0.67838568  0.68820030
   0.12781322  0.64981425  0.80203235
   0.92781299  0.84981430  0.57436830
   0.17067027  0.82124287  0.68820030
   0.41352737  0.79267132  0.80203235
   0.21352729  0.99267149  0.57436830
   0.45638451  0.96410006  0.68820035
   0.69924182  0.93552858  0.80203235
   0.49924156  0.13552856  0.57436830
   0.74209875  0.10695720  0.68820035
   0.98495609  0.07838571  0.80203235
   0.33495587  0.22838573  0.63128418
   0.57781315  0.19981420  0.74511629
   0.82067043  0.17124271  0.85894823
   0.62067002  0.37124288  0.63128418
   0.86352730  0.34267139  0.74511629
   0.10638452  0.31409994  0.85894823
   0.90638429  0.51409996  0.63128418
   0.14924169  0.48552856  0.74511629
   0.39209890  0.45695710  0.85894823
   0.19209850  0.65695715  0.63128418
   0.43495583  0.62838566  0.74511617
   0.67781305  0.59981418  0.85894823
   0.47781295  0.79981422  0.63128418
   0.72067028  0.77124274  0.74511629
   0.96352750  0.74267131  0.85894823
   0.76352727  0.94267142  0.63128418
   0.00638461  0.91409993  0.74511629
   0.24924183  0.88552856  0.85894823
   0.04924142  0.08552861  0.63128418
   0.29209876  0.05695713  0.74511629
   0.53495598  0.02838564  0.85894823
