  48  48   0   0
  0.2846441E+02  0.1451029E-08  0.1451029E-08  0.1081533E-08  0.5000000E-15
  1.000000000000000E-004
  CAR 
 Si and Ge interface calculation         
      7.85541544     -9.86786248  301      5.30080016      1.00000000
     -9.868  0.0000E+00  0.0000E+00  0.0000E+00  0.0000E+00
     -9.809  0.0000E+00  0.0000E+00  0.0000E+00  0.0000E+00
     -9.750  0.0000E+00  0.0000E+00  0.0000E+00  0.0000E+00
     -9.691  0.0000E+00  0.0000E+00  0.0000E+00  0.0000E+00
     -9.632  0.0000E+00  0.0000E+00  0.0000E+00  0.0000E+00
     -9.572  0.0000E+00  0.0000E+00  0.0000E+00  0.0000E+00
     -9.513  0.0000E+00  0.0000E+00  0.0000E+00  0.0000E+00
     -9.454  0.0000E+00  0.0000E+00  0.0000E+00  0.0000E+00
     -9.395  0.0000E+00  0.0000E+00  0.0000E+00  0.0000E+00
     -9.336  0.0000E+00  0.0000E+00  0.0000E+00  0.0000E+00
     -9.277  0.0000E+00  0.0000E+00  0.0000E+00  0.0000E+00
     -9.218  0.0000E+00  0.0000E+00  0.0000E+00  0.0000E+00
     -9.159  0.0000E+00  0.0000E+00  0.0000E+00  0.0000E+00
     -9.100  0.1859E-06  0.2850E-13  0.1098E-07  0.1684E-14
     -9.041  0.8443E+01  0.5875E+01  0.4988E+00  0.3471E+00
     -8.982  0.1668E+02  0.9929E+01  0.1484E+01  0.9337E+00
     -8.923  0.2671E+00  0.9586E+01  0.1500E+01  0.1500E+01
     -8.864  0.1059E-04  0.6715E-11  0.1500E+01  0.1500E+01
     -8.804  0.1692E+02  0.1485E+02  0.2500E+01  0.2377E+01
     -8.745  0.0000E+00  0.2077E+01  0.2500E+01  0.2500E+01
     -8.686  0.1910E-10  0.0000E+00  0.2500E+01  0.2500E+01
     -8.627  0.1536E+02  0.2745E+01  0.3408E+01  0.2662E+01
     -8.568  0.1578E+01  0.1418E+02  0.3501E+01  0.3500E+01
     -8.509  0.8450E+01  0.8455E+01  0.4000E+01  0.4000E+01
     -8.450  0.0000E+00  0.0000E+00  0.4000E+01  0.4000E+01
     -8.391  0.0000E+00  0.0000E+00  0.4000E+01  0.4000E+01
     -8.332  0.0000E+00  0.0000E+00  0.4000E+01  0.4000E+01
     -8.273  0.0000E+00  0.0000E+00  0.4000E+01  0.4000E+01
     -8.214  0.0000E+00  0.0000E+00  0.4000E+01  0.4000E+01
     -8.155  0.0000E+00  0.0000E+00  0.4000E+01  0.4000E+01
     -8.096  0.0000E+00  0.0000E+00  0.4000E+01  0.4000E+01
     -8.036  0.1698E+01  0.9949E-02  0.4100E+01  0.4001E+01
     -7.977  0.6766E+01  0.8453E+01  0.4500E+01  0.4500E+01
     -7.918  0.1686E+02  0.1166E+02  0.5496E+01  0.5189E+01
     -7.859  0.5475E-01  0.5265E+01  0.5500E+01  0.5500E+01
     -7.800  0.0000E+00  0.0000E+00  0.5500E+01  0.5500E+01
     -7.741  0.0000E+00  0.0000E+00  0.5500E+01  0.5500E+01
     -7.682  0.4006E+01  0.3576E-01  0.5737E+01  0.5502E+01
     -7.623  0.1292E+02  0.1689E+02  0.6500E+01  0.6500E+01
     -7.564  0.0000E+00  0.0000E+00  0.6500E+01  0.6500E+01
     -7.505  0.0000E+00  0.0000E+00  0.6500E+01  0.6500E+01
     -7.446  0.0000E+00  0.0000E+00  0.6500E+01  0.6500E+01
     -7.387  0.9396E-15  0.0000E+00  0.6500E+01  0.6500E+01
     -7.328  0.7985E+01  0.2752E+00  0.6972E+01  0.6516E+01
     -7.268  0.8942E+01  0.1665E+02  0.7500E+01  0.7500E+01
     -7.209  0.0000E+00  0.0000E+00  0.7500E+01  0.7500E+01
     -7.150  0.3506E-01  0.1364E-04  0.7502E+01  0.7500E+01
     -7.091  0.1684E+02  0.1405E+02  0.8497E+01  0.8330E+01
     -7.032  0.9911E+00  0.2880E+01  0.8556E+01  0.8500E+01
     -6.973  0.1598E+02  0.1692E+02  0.9500E+01  0.9500E+01
     -6.914  0.0000E+00  0.0000E+00  0.9500E+01  0.9500E+01
     -6.855  0.0000E+00  0.0000E+00  0.9500E+01  0.9500E+01
     -6.796  0.2354E-05  0.3780E-12  0.9500E+01  0.9500E+01
     -6.737  0.1672E+02  0.9319E+01  0.1049E+02  0.1005E+02
     -6.678  0.2042E+00  0.7608E+01  0.1050E+02  0.1050E+02
     -6.619  0.0000E+00  0.0000E+00  0.1050E+02  0.1050E+02
     -6.560  0.0000E+00  0.0000E+00  0.1050E+02  0.1050E+02
     -6.500  0.0000E+00  0.0000E+00  0.1050E+02  0.1050E+02
     -6.441  0.1529E-09  0.0000E+00  0.1050E+02  0.1050E+02
     -6.382  0.1376E+02  0.2005E+01  0.1131E+02  0.1062E+02
     -6.323  0.3167E+01  0.1492E+02  0.1150E+02  0.1150E+02
     -6.264  0.0000E+00  0.0000E+00  0.1150E+02  0.1150E+02
     -6.205  0.2475E-06  0.2474E-13  0.1150E+02  0.1150E+02
     -6.146  0.8199E+01  0.3583E+01  0.1198E+02  0.1171E+02
     -6.087  0.2624E+00  0.4881E+01  0.1200E+02  0.1200E+02
     -6.028  0.0000E+00  0.0000E+00  0.1200E+02  0.1200E+02
     -5.969  0.0000E+00  0.0000E+00  0.1200E+02  0.1200E+02
     -5.910  0.0000E+00  0.0000E+00  0.1200E+02  0.1200E+02
     -5.851  0.0000E+00  0.0000E+00  0.1200E+02  0.1200E+02
     -5.792  0.7778E-05  0.5477E-10  0.1200E+02  0.1200E+02
     -5.732  0.6509E+01  0.3239E+01  0.1238E+02  0.1219E+02
     -5.673  0.1265E+02  0.1002E+02  0.1313E+02  0.1278E+02
     -5.614  0.6232E+01  0.1213E+02  0.1350E+02  0.1350E+02
     -5.555  0.1188E-04  0.7469E-10  0.1350E+02  0.1350E+02
     -5.496  0.1211E+02  0.5153E+01  0.1422E+02  0.1380E+02
     -5.437  0.4812E+01  0.1177E+02  0.1450E+02  0.1450E+02
     -5.378  0.1114E+01  0.9789E-01  0.1457E+02  0.1451E+02
     -5.319  0.3092E+01  0.3298E+01  0.1475E+02  0.1470E+02
     -5.260  0.2254E+02  0.1647E+02  0.1608E+02  0.1567E+02
     -5.201  0.7019E+01  0.1199E+02  0.1649E+02  0.1638E+02
     -5.142  0.5836E+01  0.4183E+01  0.1684E+02  0.1663E+02
     -5.083  0.2719E+01  0.6274E+01  0.1700E+02  0.1700E+02
     -5.023  0.7252E+01  0.3759E+01  0.1743E+02  0.1722E+02
     -4.964  0.9333E+01  0.8510E+01  0.1798E+02  0.1772E+02
     -4.905  0.1328E+02  0.1131E+02  0.1876E+02  0.1839E+02
     -4.846  0.2633E+01  0.8832E+01  0.1892E+02  0.1891E+02
     -4.787  0.1415E+02  0.1076E+02  0.1976E+02  0.1955E+02
     -4.728  0.1282E+02  0.1291E+02  0.2051E+02  0.2031E+02
     -4.669  0.1152E+02  0.1228E+02  0.2119E+02  0.2104E+02
     -4.610  0.8027E+01  0.1060E+02  0.2167E+02  0.2166E+02
     -4.551  0.9900E+01  0.8455E+01  0.2225E+02  0.2216E+02
     -4.492  0.1105E+02  0.8574E+01  0.2291E+02  0.2267E+02
     -4.433  0.1076E+02  0.1049E+02  0.2354E+02  0.2329E+02
     -4.374  0.1824E+02  0.1665E+02  0.2462E+02  0.2427E+02
     -4.315  0.2279E+02  0.2363E+02  0.2597E+02  0.2567E+02
     -4.255  0.1096E+02  0.1329E+02  0.2661E+02  0.2646E+02
     -4.196  0.1062E+02  0.8731E+01  0.2724E+02  0.2697E+02
     -4.137  0.3321E+02  0.2598E+02  0.2920E+02  0.2851E+02
     -4.078  0.1572E+02  0.2533E+02  0.3013E+02  0.3000E+02
     -4.019  0.1210E+02  0.9606E+01  0.3085E+02  0.3057E+02
     -3.960  0.1836E+02  0.1332E+02  0.3193E+02  0.3136E+02
     -3.901  0.2474E+02  0.3107E+02  0.3339E+02  0.3319E+02
     -3.842  0.9689E+01  0.9704E+01  0.3396E+02  0.3377E+02
     -3.783  0.1490E+02  0.1264E+02  0.3485E+02  0.3451E+02
     -3.724  0.1413E+02  0.1545E+02  0.3568E+02  0.3543E+02
     -3.665  0.1809E+02  0.1889E+02  0.3675E+02  0.3654E+02
     -3.606  0.1146E+02  0.1069E+02  0.3743E+02  0.3717E+02
     -3.547  0.1466E+02  0.1378E+02  0.3829E+02  0.3799E+02
     -3.487  0.1638E+02  0.1896E+02  0.3926E+02  0.3911E+02
     -3.428  0.8533E+01  0.8904E+01  0.3976E+02  0.3963E+02
     -3.369  0.8967E+01  0.1032E+02  0.4029E+02  0.4024E+02
     -3.310  0.1185E+02  0.9421E+01  0.4099E+02  0.4080E+02
     -3.251  0.1458E+02  0.1428E+02  0.4186E+02  0.4164E+02
     -3.192  0.1146E+02  0.1195E+02  0.4253E+02  0.4235E+02
     -3.133  0.2343E+02  0.2129E+02  0.4392E+02  0.4361E+02
     -3.074  0.1996E+02  0.1861E+02  0.4510E+02  0.4471E+02
     -3.015  0.1173E+02  0.1429E+02  0.4579E+02  0.4555E+02
     -2.956  0.1025E+02  0.1146E+02  0.4639E+02  0.4623E+02
     -2.897  0.1408E+02  0.1341E+02  0.4723E+02  0.4702E+02
     -2.838  0.1554E+02  0.1249E+02  0.4814E+02  0.4776E+02
     -2.779  0.1735E+02  0.1853E+02  0.4917E+02  0.4885E+02
     -2.719  0.1337E+02  0.1603E+02  0.4996E+02  0.4980E+02
     -2.660  0.1228E+02  0.1375E+02  0.5069E+02  0.5061E+02
     -2.601  0.2555E+01  0.3124E+01  0.5084E+02  0.5080E+02
     -2.542  0.6420E+01  0.4099E+01  0.5122E+02  0.5104E+02
     -2.483  0.1633E+02  0.1473E+02  0.5218E+02  0.5191E+02
     -2.424  0.1206E+02  0.1243E+02  0.5289E+02  0.5264E+02
     -2.365  0.2505E+02  0.2231E+02  0.5437E+02  0.5396E+02
     -2.306  0.1191E+02  0.1748E+02  0.5508E+02  0.5499E+02
     -2.247  0.1820E+02  0.1501E+02  0.5615E+02  0.5588E+02
     -2.188  0.1585E+02  0.1689E+02  0.5709E+02  0.5688E+02
     -2.129  0.1810E+02  0.1868E+02  0.5816E+02  0.5798E+02
     -2.070  0.1503E+02  0.1529E+02  0.5905E+02  0.5889E+02
     -2.011  0.1043E+02  0.8719E+01  0.5966E+02  0.5940E+02
     -1.951  0.1654E+02  0.1906E+02  0.6064E+02  0.6053E+02
     -1.892  0.5341E+01  0.6237E+01  0.6095E+02  0.6090E+02
     -1.833  0.1131E+02  0.1028E+02  0.6162E+02  0.6150E+02
     -1.774  0.8466E+01  0.7410E+01  0.6212E+02  0.6194E+02
     -1.715  0.1291E+02  0.1176E+02  0.6289E+02  0.6264E+02
     -1.656  0.1231E+02  0.1404E+02  0.6361E+02  0.6347E+02
     -1.597  0.1105E+02  0.1044E+02  0.6427E+02  0.6408E+02
     -1.538  0.9239E+01  0.1100E+02  0.6481E+02  0.6473E+02
     -1.479  0.5416E+01  0.5426E+01  0.6513E+02  0.6505E+02
     -1.420  0.1610E+02  0.1148E+02  0.6608E+02  0.6573E+02
     -1.361  0.1911E+02  0.1750E+02  0.6721E+02  0.6676E+02
     -1.302  0.2314E+02  0.2375E+02  0.6858E+02  0.6817E+02
     -1.243  0.1127E+02  0.1437E+02  0.6925E+02  0.6902E+02
     -1.183  0.1846E+02  0.1644E+02  0.7034E+02  0.6999E+02
     -1.124  0.9442E+01  0.1494E+02  0.7089E+02  0.7087E+02
     -1.065  0.1252E+02  0.8696E+01  0.7163E+02  0.7138E+02
     -1.006  0.1806E+02  0.1863E+02  0.7270E+02  0.7248E+02
     -0.947  0.2058E+02  0.1919E+02  0.7392E+02  0.7362E+02
     -0.888  0.9843E+01  0.1151E+02  0.7450E+02  0.7430E+02
     -0.829  0.1293E+02  0.1278E+02  0.7526E+02  0.7505E+02
     -0.770  0.2579E+02  0.2536E+02  0.7679E+02  0.7655E+02
     -0.711  0.3614E+01  0.6669E+01  0.7700E+02  0.7695E+02
     -0.652  0.3661E+01  0.2302E+01  0.7722E+02  0.7708E+02
     -0.593  0.1208E+02  0.1139E+02  0.7793E+02  0.7775E+02
     -0.534  0.1678E+02  0.1366E+02  0.7892E+02  0.7856E+02
     -0.475  0.1402E+02  0.1685E+02  0.7975E+02  0.7956E+02
     -0.415  0.2352E+02  0.1896E+02  0.8114E+02  0.8068E+02
     -0.356  0.1619E+02  0.1944E+02  0.8209E+02  0.8183E+02
     -0.297  0.2033E+02  0.1943E+02  0.8330E+02  0.8297E+02
     -0.238  0.2337E+02  0.2648E+02  0.8468E+02  0.8454E+02
     -0.179  0.1295E+02  0.1234E+02  0.8544E+02  0.8527E+02
     -0.120  0.1054E+02  0.7308E+01  0.8606E+02  0.8570E+02
     -0.061  0.2546E+02  0.2629E+02  0.8757E+02  0.8725E+02
     -0.002  0.8210E+01  0.1212E+02  0.8805E+02  0.8797E+02
      0.057  0.1897E+02  0.1576E+02  0.8917E+02  0.8890E+02
      0.116  0.1309E+02  0.1544E+02  0.8995E+02  0.8981E+02
      0.175  0.1189E+02  0.1154E+02  0.9065E+02  0.9049E+02
      0.234  0.1437E+02  0.1383E+02  0.9150E+02  0.9131E+02
      0.293  0.1905E+02  0.1771E+02  0.9262E+02  0.9236E+02
      0.353  0.1411E+02  0.1633E+02  0.9346E+02  0.9332E+02
      0.412  0.1479E+02  0.1375E+02  0.9433E+02  0.9413E+02
      0.471  0.1322E+02  0.1230E+02  0.9511E+02  0.9486E+02
      0.530  0.2234E+02  0.2027E+02  0.9643E+02  0.9606E+02
      0.589  0.2118E+02  0.2020E+02  0.9768E+02  0.9725E+02
      0.648  0.2211E+02  0.2309E+02  0.9899E+02  0.9862E+02
      0.707  0.1181E+02  0.1610E+02  0.9969E+02  0.9957E+02
      0.766  0.1187E+02  0.8579E+01  0.1004E+03  0.1001E+03
      0.825  0.1753E+02  0.1961E+02  0.1014E+03  0.1012E+03
      0.884  0.1491E+02  0.1295E+02  0.1023E+03  0.1020E+03
      0.943  0.1673E+02  0.1665E+02  0.1033E+03  0.1030E+03
      1.002  0.1497E+02  0.1590E+02  0.1042E+03  0.1039E+03
      1.061  0.1764E+02  0.1391E+02  0.1052E+03  0.1047E+03
      1.121  0.1790E+02  0.2230E+02  0.1063E+03  0.1061E+03
      1.180  0.1570E+02  0.1324E+02  0.1072E+03  0.1068E+03
      1.239  0.1073E+02  0.1519E+02  0.1078E+03  0.1077E+03
      1.298  0.1773E+02  0.1120E+02  0.1089E+03  0.1084E+03
      1.357  0.2511E+02  0.2402E+02  0.1104E+03  0.1098E+03
      1.416  0.2152E+02  0.2424E+02  0.1116E+03  0.1113E+03
      1.475  0.9912E+01  0.1446E+02  0.1122E+03  0.1121E+03
      1.534  0.9951E+01  0.9941E+01  0.1128E+03  0.1127E+03
      1.593  0.2083E+02  0.1829E+02  0.1140E+03  0.1138E+03
      1.652  0.1286E+02  0.1496E+02  0.1148E+03  0.1147E+03
      1.711  0.1685E+02  0.1236E+02  0.1158E+03  0.1154E+03
      1.770  0.1335E+02  0.1788E+02  0.1166E+03  0.1164E+03
      1.830  0.1834E+02  0.1786E+02  0.1177E+03  0.1175E+03
      1.889  0.1206E+02  0.1169E+02  0.1184E+03  0.1182E+03
      1.948  0.9397E+01  0.9011E+01  0.1189E+03  0.1187E+03
      2.007  0.1652E+02  0.1630E+02  0.1199E+03  0.1197E+03
      2.066  0.2456E+02  0.2323E+02  0.1214E+03  0.1211E+03
      2.125  0.1655E+02  0.1772E+02  0.1223E+03  0.1221E+03
      2.184  0.1470E+02  0.1464E+02  0.1232E+03  0.1230E+03
      2.243  0.1784E+02  0.1807E+02  0.1243E+03  0.1240E+03
      2.302  0.2177E+02  0.1886E+02  0.1256E+03  0.1252E+03
      2.361  0.2730E+02  0.2486E+02  0.1272E+03  0.1266E+03
      2.420  0.2682E+02  0.3091E+02  0.1288E+03  0.1284E+03
      2.479  0.2163E+02  0.2035E+02  0.1300E+03  0.1297E+03
      2.538  0.2987E+02  0.2407E+02  0.1318E+03  0.1311E+03
      2.598  0.2602E+02  0.3136E+02  0.1333E+03  0.1329E+03
      2.657  0.3367E+02  0.3281E+02  0.1353E+03  0.1349E+03
      2.716  0.2199E+02  0.2641E+02  0.1366E+03  0.1364E+03
      2.775  0.2893E+02  0.2137E+02  0.1383E+03  0.1377E+03
      2.834  0.1984E+02  0.2620E+02  0.1395E+03  0.1392E+03
      2.893  0.3651E+02  0.3294E+02  0.1417E+03  0.1412E+03
      2.952  0.2311E+02  0.2809E+02  0.1430E+03  0.1428E+03
      3.011  0.1780E+02  0.1333E+02  0.1441E+03  0.1436E+03
      3.070  0.2958E+02  0.2840E+02  0.1458E+03  0.1453E+03
      3.129  0.2297E+02  0.2356E+02  0.1472E+03  0.1467E+03
      3.188  0.3332E+02  0.3097E+02  0.1491E+03  0.1485E+03
      3.247  0.3185E+02  0.3222E+02  0.1510E+03  0.1504E+03
      3.306  0.1626E+02  0.1995E+02  0.1520E+03  0.1516E+03
      3.366  0.2686E+02  0.2701E+02  0.1536E+03  0.1532E+03
      3.425  0.2284E+02  0.2187E+02  0.1549E+03  0.1545E+03
      3.484  0.3132E+02  0.3218E+02  0.1568E+03  0.1564E+03
      3.543  0.3261E+02  0.3029E+02  0.1587E+03  0.1582E+03
      3.602  0.2787E+02  0.3099E+02  0.1603E+03  0.1600E+03
      3.661  0.1711E+02  0.1650E+02  0.1614E+03  0.1610E+03
      3.720  0.2330E+02  0.2008E+02  0.1627E+03  0.1622E+03
      3.779  0.2480E+02  0.2819E+02  0.1642E+03  0.1638E+03
      3.838  0.2093E+02  0.1793E+02  0.1654E+03  0.1649E+03
      3.897  0.2614E+02  0.2672E+02  0.1670E+03  0.1665E+03
      3.956  0.2536E+02  0.3130E+02  0.1685E+03  0.1683E+03
      4.015  0.1281E+02  0.1169E+02  0.1692E+03  0.1690E+03
      4.074  0.2065E+02  0.1763E+02  0.1705E+03  0.1701E+03
      4.134  0.2627E+02  0.2414E+02  0.1720E+03  0.1715E+03
      4.193  0.1662E+02  0.2029E+02  0.1730E+03  0.1727E+03
      4.252  0.1314E+02  0.1432E+02  0.1738E+03  0.1735E+03
      4.311  0.8373E+01  0.9915E+01  0.1743E+03  0.1741E+03
      4.370  0.2030E+02  0.1709E+02  0.1755E+03  0.1751E+03
      4.429  0.1777E+02  0.1825E+02  0.1765E+03  0.1762E+03
      4.488  0.1768E+02  0.1698E+02  0.1776E+03  0.1772E+03
      4.547  0.1129E+02  0.1401E+02  0.1782E+03  0.1780E+03
      4.606  0.8281E+01  0.7834E+01  0.1787E+03  0.1785E+03
      4.665  0.2158E+02  0.1644E+02  0.1800E+03  0.1795E+03
      4.724  0.2022E+02  0.2154E+02  0.1812E+03  0.1807E+03
      4.783  0.2159E+02  0.1850E+02  0.1825E+03  0.1818E+03
      4.842  0.1210E+02  0.1767E+02  0.1832E+03  0.1829E+03
      4.902  0.1502E+02  0.1477E+02  0.1841E+03  0.1838E+03
      4.961  0.1318E+02  0.1535E+02  0.1848E+03  0.1847E+03
      5.020  0.1911E+02  0.1572E+02  0.1860E+03  0.1856E+03
      5.079  0.1708E+02  0.1646E+02  0.1870E+03  0.1866E+03
      5.138  0.1993E+02  0.2009E+02  0.1882E+03  0.1878E+03
      5.197  0.1460E+02  0.1542E+02  0.1890E+03  0.1887E+03
      5.256  0.2005E+02  0.1834E+02  0.1902E+03  0.1897E+03
      5.315  0.2633E+02  0.2810E+02  0.1918E+03  0.1914E+03
      5.374  0.9642E+01  0.1077E+02  0.1923E+03  0.1920E+03
      5.433  0.2259E+02  0.1734E+02  0.1937E+03  0.1931E+03
      5.492  0.2147E+02  0.2584E+02  0.1949E+03  0.1946E+03
      5.551  0.2450E+02  0.2413E+02  0.1964E+03  0.1960E+03
      5.610  0.1580E+02  0.1753E+02  0.1973E+03  0.1971E+03
      5.670  0.2426E+02  0.1898E+02  0.1987E+03  0.1982E+03
      5.729  0.2229E+02  0.2314E+02  0.2001E+03  0.1995E+03
      5.788  0.2677E+02  0.2263E+02  0.2016E+03  0.2009E+03
      5.847  0.2790E+02  0.3643E+02  0.2033E+03  0.2030E+03
      5.906  0.2733E+02  0.2148E+02  0.2049E+03  0.2043E+03
      5.965  0.2798E+02  0.3162E+02  0.2066E+03  0.2062E+03
      6.024  0.2858E+02  0.2983E+02  0.2082E+03  0.2079E+03
      6.083  0.2140E+02  0.1943E+02  0.2095E+03  0.2091E+03
      6.142  0.2894E+02  0.2902E+02  0.2112E+03  0.2108E+03
      6.201  0.2557E+02  0.2127E+02  0.2127E+03  0.2121E+03
      6.260  0.2754E+02  0.2750E+02  0.2144E+03  0.2137E+03
      6.319  0.3238E+02  0.3338E+02  0.2163E+03  0.2156E+03
      6.378  0.2194E+02  0.2645E+02  0.2176E+03  0.2172E+03
      6.438  0.2014E+02  0.1998E+02  0.2188E+03  0.2184E+03
      6.497  0.3582E+02  0.3041E+02  0.2209E+03  0.2202E+03
      6.556  0.2350E+02  0.2804E+02  0.2223E+03  0.2218E+03
      6.615  0.2826E+02  0.2207E+02  0.2239E+03  0.2231E+03
      6.674  0.2296E+02  0.3091E+02  0.2253E+03  0.2250E+03
      6.733  0.3161E+02  0.2291E+02  0.2272E+03  0.2263E+03
      6.792  0.1866E+02  0.2614E+02  0.2283E+03  0.2279E+03
      6.851  0.2120E+02  0.2100E+02  0.2295E+03  0.2291E+03
      6.910  0.2209E+02  0.1936E+02  0.2308E+03  0.2303E+03
      6.969  0.1410E+02  0.2140E+02  0.2316E+03  0.2315E+03
      7.028  0.4437E+01  0.5376E+01  0.2319E+03  0.2318E+03
      7.087  0.1513E+01  0.2688E+01  0.2320E+03  0.2320E+03
      7.146  0.0000E+00  0.0000E+00  0.2320E+03  0.2320E+03
      7.206  0.0000E+00  0.0000E+00  0.2320E+03  0.2320E+03
      7.265  0.0000E+00  0.0000E+00  0.2320E+03  0.2320E+03
      7.324  0.0000E+00  0.0000E+00  0.2320E+03  0.2320E+03
      7.383  0.0000E+00  0.0000E+00  0.2320E+03  0.2320E+03
      7.442  0.0000E+00  0.0000E+00  0.2320E+03  0.2320E+03
      7.501  0.0000E+00  0.0000E+00  0.2320E+03  0.2320E+03
      7.560  0.0000E+00  0.0000E+00  0.2320E+03  0.2320E+03
      7.619  0.0000E+00  0.0000E+00  0.2320E+03  0.2320E+03
      7.678  0.0000E+00  0.0000E+00  0.2320E+03  0.2320E+03
      7.737  0.0000E+00  0.0000E+00  0.2320E+03  0.2320E+03
      7.796  0.0000E+00  0.0000E+00  0.2320E+03  0.2320E+03
      7.855  0.0000E+00  0.0000E+00  0.2320E+03  0.2320E+03
