 vasp.6.4.3 19Mar24 (build Oct 22 2024 11:23:12) complex                        
  
 executed on             LinuxIFC date 2025.06.04  00:54:39
 running   64 mpi-ranks, on    4 nodes
 distrk:  each k-point on   64 cores,    1 groups
 distr:  one band on NCORE=  16 cores,    4 groups


--------------------------------------------------------------------------------------------------------


 INCAR:
   SYSTEM = Si and Ge interface calculation
   ISTART = 0
   ICHARG = 2
   LWAVE = .FALSE.
   LREAL = AUTO
   ENCUT = 700
   ENAUG = 900
   ADDGRID = .TRUE.
   LMAXMIX = 6
   LASPH = .TRUE.
   LMIXTAU = .TRUE.
   NCORE = 16
   NELM = 100
   NBANDS = 116
   EDIFF = 1d-7
   AMIX = 0.6
   ISMEAR = 0
   SIGMA = 0.01
   NELECT = 192
   ISPIN = 2
   NUPDOWN = 1
   LVTOT = .FALSE.
   LVHAR = .TRUE.

 POTCAR:    PAW_PBE Sn 08Apr2002                  
 -----------------------------------------------------------------------------
|                                                                             |
|           W    W    AA    RRRRR   N    N  II  N    N   GGGG   !!!           |
|           W    W   A  A   R    R  NN   N  II  NN   N  G    G  !!!           |
|           W    W  A    A  R    R  N N  N  II  N N  N  G       !!!           |
|           W WW W  AAAAAA  RRRRR   N  N N  II  N  N N  G  GGG   !            |
|           WW  WW  A    A  R   R   N   NN  II  N   NN  G    G                |
|           W    W  A    A  R    R  N    N  II  N    N   GGGG   !!!           |
|                                                                             |
|     You use a magnetic or noncollinear calculation, but did not specify     |
|     the initial magnetic moment with the MAGMOM tag. Note that a            |
|     default of 0.021 will be used for all atoms. This ferromagnetic         |
|     setup may break the symmetry of the crystal, in particular it may       |
|     rule out finding an antiferromagnetic solution. Thence, we              |
|     recommend setting the initial magnetic moment manually or verifying     |
|     carefully that this magnetic setup is desired.                          |
|                                                                             |
 -----------------------------------------------------------------------------

 POTCAR:    PAW_PBE Sn 08Apr2002                  
   VRHFIN =Sn: s2p2                                                                                 
   LEXCH  = PE                                                                                      
   EATOM  =    94.0860 eV,    6.9151 Ry                                                             
                                                                                                    
   TITEL  = PAW_PBE Sn 08Apr2002                                                                    
   LULTRA =        F    use ultrasoft PP ?                                                          
   IUNSCR =        1    unscreen: 0-lin 1-nonlin 2-no                                               
   RPACOR =    2.000    partial core radius                                                         
   POMASS =  118.710; ZVAL   =    4.000    mass and valenz                                          
   RCORE  =    3.000    outmost cutoff radius                                                       
   RWIGS  =    2.960; RWIGS  =    1.566    wigner-seitz radius (au A)                               
   ENMAX  =  103.236; ENMIN  =   77.427 eV                                                          
   ICORE  =        3    local potential                                                             
   LCOR   =        T    correct aug charges                                                         
   LPAW   =        T    paw PP                                                                      
   EAUG   =  263.585                                                                                
   DEXC   =    0.000                                                                                
   RMAX   =    3.078    core radius for proj-oper                                                   
   RAUG   =    1.300    factor for augmentation sphere                                              
   RDEP   =    3.022    radius for radial grids                                                     
   RDEPT  =    2.655    core radius for aug-charge                                                  
                                                                                                    
   Atomic configuration                                                                             
   13 entries                                                                                       
     n  l   j            E        occ.                                                              
     1  0  0.50    -29007.2859   2.0000                                                             
     2  0  0.50     -4378.8056   2.0000                                                             
     2  1  1.50     -3930.4293   6.0000                                                             
     3  0  0.50      -845.0264   2.0000                                                             
     3  1  1.50      -698.5725   6.0000                                                             
     3  2  2.50      -473.2839  10.0000                                                             
     4  0  0.50      -133.9036   2.0000                                                             
     4  1  1.50       -89.6752   6.0000                                                             
     4  2  2.50       -25.8375  10.0000                                                             
     5  0  0.50       -10.5484   2.0000                                                             
     5  1  0.50        -3.6940   2.0000                                                             
     5  2  1.50        -1.3606   0.0000                                                             
     4  3  2.50        -4.0817   0.0000                                                             
   Description                                                                                      
     l       E           TYP  RCUT    TYP  RCUT                                                     
     0    -10.5483727     23  3.000                                                                 
     0     27.2116520     23  3.000                                                                 
     1     -3.6939829     23  3.000                                                                 
     1      1.9821976     23  3.000                                                                 
     2     -1.3605826     23  3.000                                                                 
     3     -2.7211652     23  3.000                                                                 
  local pseudopotential read in
  partial core-charges read in
  partial kinetic energy density read in
  atomic valenz-charges read in
  non local Contribution for L=           0  read in
    real space projection operators read in
  non local Contribution for L=           0  read in
    real space projection operators read in
  non local Contribution for L=           1  read in
    real space projection operators read in
  non local Contribution for L=           1  read in
    real space projection operators read in
  non local Contribution for L=           2  read in
    real space projection operators read in
    PAW grid and wavefunctions read in
 
   number of l-projection  operators is LMAX  =           5
   number of lm-projection operators is LMMAX =          13
 
 Optimization of the real space projectors (new method)

 maximal supplied QI-value         = 12.47
 optimisation between [QCUT,QGAM] = [ 12.47, 27.06] = [ 43.56,205.12] Ry 
 Optimized for a Real-space Cutoff    1.58 Angstroem

   l    n(q)    QCUT    max X(q) W(low)/X(q) W(high)/X(q)  e(spline) 
   0     13    12.472    14.688    0.45E-04    0.45E-04    0.25E-05
   0     13    12.472     7.308    0.94E-04    0.11E-03    0.61E-05
   1     12    12.472    45.102    0.34E-03    0.14E-03    0.21E-05
   1     12    12.472    30.691    0.31E-03    0.13E-03    0.20E-05
   2     12    12.472     7.156    0.86E-04    0.11E-03    0.17E-05
 WARNING: PSMAXN for non-local potential too small
          PSMAXN should be >   13.5545592237991       NTYP=           1
  PAW_PBE Sn 08Apr2002                  :
 energy of atom  1       EATOM=  -94.0860
 kinetic energy error for atom=    0.0000 (will be added to EATOM!!)
 
 
 POSCAR: Sn+Sn
  positions in direct lattice
  No initial velocities read in


 exchange-correlation table for PE
   RHO(1)=    0.500       N(1)  =     2000
   RHO(2)=  100.500       N(2)  =     4000
 


--------------------------------------------------------------------------------------------------------


 ion  position               nearest neighbor table
   1  0.343  0.672  0.000-  44 2.17  38 2.60  48 2.81  13 2.81  28 2.81  41 3.07  45 3.24  39 3.55
                            18 3.55  33 3.55
   2  0.677  0.838  0.300-  14 2.81  34 2.81  29 2.81  13 2.81
   3  0.010  0.005  0.600-  37 1.70  35 2.81  30 2.81  14 2.81  15 2.81  46 3.15  43 3.54
   4  0.010  0.005  0.000-  37 2.75  10 2.81  34 2.81  47 2.95  46 3.15  43 3.54  15 3.55  30 3.55

   5  0.343  0.172  0.300-  11 2.81  31 2.81  10 2.81  35 2.81
   6  0.677  0.338  0.600-  32 2.81  11 2.81  36 2.81  12 2.81
   7  0.677  0.338  0.000-  42 1.26  16 2.81  31 2.81  45 3.30  12 3.55  36 3.55  48 3.68
   8  0.010  0.505  0.300-  17 2.81  28 2.81  32 2.81  16 2.81  45 3.27
   9  0.343  0.672  0.600-  29 2.81  18 2.81  17 2.81  33 2.81  38 3.38  44 3.75  41 3.75
  10  0.093  0.922  0.150-   4 2.81  23 2.81  19 2.81   5 2.81
  11  0.427  0.088  0.450-   5 2.81  24 2.81   6 2.81  20 2.81
  12  0.760  0.255  0.750-  42 2.49   6 2.81  21 2.81  45 3.38  41 3.48   7 3.55  25 3.55  48 3.75

  13  0.427  0.588  0.150-  44 2.75   1 2.81  26 2.81  22 2.81   2 2.81
  14  0.760  0.755  0.450-   2 2.81  27 2.81   3 2.81  23 2.81
  15  0.093  0.922  0.750-  46 2.40  37 2.74  24 2.81   3 2.81  43 2.90   4 3.55  19 3.55
  16  0.760  0.255  0.150-  42 2.49  45 2.60   7 2.81  20 2.81   8 2.81  25 2.81  48 3.07
  17  0.093  0.422  0.450-   8 2.81  21 2.81   9 2.81  26 2.81
  18  0.427  0.588  0.750-  44 1.70  40 1.88   9 2.81  27 2.81  38 3.01  41 3.42   1 3.55  22 3.55

  19  0.177  0.838  0.000-  39 1.26  28 2.81  10 2.81  48 3.30  33 3.55  15 3.55  45 3.68
  20  0.510  0.005  0.300-  29 2.81  16 2.81  11 2.81  28 2.81  48 3.27
  21  0.843  0.172  0.600-  30 2.81  17 2.81  29 2.81  12 2.81  41 3.38  47 3.75  38 3.75
  22  0.510  0.505  0.000-  40 2.75  13 2.81  31 2.81  44 2.95  43 3.15  46 3.54  36 3.55  18 3.55

  23  0.843  0.672  0.300-  32 2.81  10 2.81  31 2.81  14 2.81
  24  0.177  0.838  0.600-  11 2.81  32 2.81  15 2.81  33 2.81
  25  0.843  0.172  0.000-  47 2.17  41 2.60  45 2.81  34 2.81  16 2.81  38 3.07  48 3.24  42 3.55
                            30 3.55  12 3.55
  26  0.177  0.338  0.300-  35 2.81  13 2.81  34 2.81  17 2.81
  27  0.510  0.505  0.600-  40 1.70  14 2.81  36 2.81  35 2.81  18 2.81  43 3.15  46 3.54
  28  0.260  0.755  0.150-  39 2.49  48 2.60   8 2.81  19 2.81   1 2.81  20 2.81  45 3.07
  29  0.593  0.922  0.450-   9 2.81   2 2.81  20 2.81  21 2.81
  30  0.927  0.088  0.750-  47 1.70  37 1.88  21 2.81   3 2.81  41 3.01  38 3.42  25 3.55   4 3.55

  31  0.593  0.422  0.150-   5 2.81  22 2.81   7 2.81  23 2.81
  32  0.927  0.588  0.450-   6 2.81  23 2.81  24 2.81   8 2.81
  33  0.260  0.755  0.750-  39 2.49   9 2.81  24 2.81  48 3.38  38 3.48  19 3.55   1 3.55  45 3.75

  34  0.927  0.088  0.150-  47 2.75  25 2.81   2 2.81   4 2.81  26 2.81
  35  0.260  0.255  0.450-  26 2.81   3 2.81  27 2.81   5 2.81
  36  0.593  0.422  0.750-  43 2.40  40 2.74  27 2.81   6 2.81  46 2.90  22 3.55   7 3.55
  37  0.963  0.989  0.750-   3 1.70  30 1.88  15 2.74   4 2.75  46 2.81  47 2.81  43 2.81
  38  0.574  0.878  0.850-   1 2.60  47 2.81  48 2.81  44 2.81  18 3.01  25 3.07   9 3.38  30 3.42
                            33 3.48  21 3.75
  39  0.185  0.767  0.950-  19 1.26  28 2.49  33 2.49  48 2.81  45 2.81   1 3.55
  40  0.463  0.489  0.750-  27 1.70  18 1.88  36 2.74  22 2.75  44 2.81  46 2.81  43 2.81
  41  0.074  0.378  0.850-  25 2.60  45 2.81  47 2.81  44 2.81  30 3.01   1 3.07  21 3.38  18 3.42
                            12 3.48   9 3.75
  42  0.685  0.267  0.950-   7 1.26  16 2.49  12 2.49  48 2.81  45 2.81  25 3.55
  43  0.768  0.684  0.800-  36 2.40  40 2.81  37 2.81  15 2.90  22 3.15  27 3.15   4 3.54   3 3.54

  44  0.380  0.573  0.900-  18 1.70   1 2.17  13 2.75  40 2.81  41 2.81  38 2.81  22 2.95   9 3.75

  45  0.991  0.462  0.000-  16 2.60  25 2.81  41 2.81  42 2.81  39 2.81  28 3.07   1 3.24   8 3.27
                             7 3.30  12 3.38  19 3.68  33 3.75
  46  0.268  0.184  0.800-  15 2.40  37 2.81  40 2.81  36 2.90   4 3.15   3 3.15  22 3.54  27 3.54

  47  0.880  0.073  0.900-  30 1.70  25 2.17  34 2.75  38 2.81  41 2.81  37 2.81   4 2.95  21 3.75

  48  0.491  0.962  0.000-  28 2.60   1 2.81  39 2.81  42 2.81  38 2.81  16 3.07  25 3.24  20 3.27
                            19 3.30  33 3.38   7 3.68  12 3.75
 
 -----------------------------------------------------------------------------
|                                                                             |
|           W    W    AA    RRRRR   N    N  II  N    N   GGGG   !!!           |
|           W    W   A  A   R    R  NN   N  II  NN   N  G    G  !!!           |
|           W    W  A    A  R    R  N N  N  II  N N  N  G       !!!           |
|           W WW W  AAAAAA  RRRRR   N  N N  II  N  N N  G  GGG   !            |
|           WW  WW  A    A  R   R   N   NN  II  N   NN  G    G                |
|           W    W  A    A  R    R  N    N  II  N    N   GGGG   !!!           |
|                                                                             |
|     The distance between some ions is very small. Please check the          |
|     nearest-neighbor list in the OUTCAR file.                               |
|     I HOPE YOU KNOW WHAT YOU ARE DOING!                                     |
|                                                                             |
 -----------------------------------------------------------------------------

  LATTYP: Found a base centered orthorhombic cell.
 ALAT       =     9.1771147817
 B/A-ratio  =     3.0000000001
 C/A-ratio  =     1.1785112885
  
  Lattice vectors:
  
 A1 = (  14.5102920530,   0.0000000000,   0.0000000000)
 A2 = ( -11.6082344060,   8.7061758040,   0.0000000000)
 A3 = (   0.0000000000,   0.0000000000,  10.8153333660)


Analysis of symmetry for initial positions (statically):
=====================================================================
 Subroutine PRICEL returns following result:
 
  LATTYP: Found a simple orthorhombic cell.
 ALAT       =     4.5885571614
 B/A-ratio  =     2.3570226948
 C/A-ratio  =     3.0000001081
  
  Lattice vectors:
  
 A1 = (  -1.4510285681,  -4.3530877453,   0.0000000000)
 A2 = (   0.0000000000,   0.0000000000,  10.8153333660)
 A3 = ( -13.0592629741,   4.3530880587,   0.0000000000)
 
   2 primitive cells build up your supercell.
 

 Routine SETGRP: Setting up the symmetry group for a 
 base centered orthorhombic supercell.


 Subroutine GETGRP returns: Found  1 space group operations
 (whereof  1 operations were pure point group operations)
 out of a pool of  8 trial point group operations.


The static configuration has the point symmetry C_1 .


Analysis of symmetry for dynamics (positions and initial velocities):
=====================================================================
 Subroutine PRICEL returns following result:
 
  LATTYP: Found a simple orthorhombic cell.
 ALAT       =     4.5885571614
 B/A-ratio  =     2.3570226948
 C/A-ratio  =     3.0000001081
  
  Lattice vectors:
  
 A1 = (  -1.4510285681,  -4.3530877453,   0.0000000000)
 A2 = (   0.0000000000,   0.0000000000,  10.8153333660)
 A3 = ( -13.0592629741,   4.3530880587,   0.0000000000)
 
   2 primitive cells build up your supercell.
 

 Routine SETGRP: Setting up the symmetry group for a 
 base centered orthorhombic supercell.


 Subroutine GETGRP returns: Found  1 space group operations
 (whereof  1 operations were pure point group operations)
 out of a pool of  8 trial point group operations.


The dynamic configuration has the point symmetry C_1 .


Analysis of structural, dynamic, and magnetic symmetry:
=====================================================================
 Subroutine PRICEL returns following result:
 
  LATTYP: Found a simple orthorhombic cell.
 ALAT       =     4.5885571614
 B/A-ratio  =     2.3570226948
 C/A-ratio  =     3.0000001081
  
  Lattice vectors:
  
 A1 = (  -1.4510285681,  -4.3530877453,   0.0000000000)
 A2 = (   0.0000000000,   0.0000000000,  10.8153333660)
 A3 = ( -13.0592629741,   4.3530880587,   0.0000000000)
 
   2 primitive cells build up your supercell.
 

 Routine SETGRP: Setting up the symmetry group for a 
 base centered orthorhombic supercell.


 Subroutine GETGRP returns: Found  1 space group operations
 (whereof  1 operations were pure point group operations)
 out of a pool of  8 trial point group operations.


The overall configuration has the point symmetry C_1 .


 Subroutine INISYM returns: Found  1 space group operations
 (whereof  1 operations are pure point group operations),
 and found     2 'primitive' translations


----------------------------------------------------------------------------------------

                                     Primitive cell                                     

  volume of cell :     683.1459

  direct lattice vectors                    reciprocal lattice vectors
    -1.451028568 -4.353087745  0.000000000    -0.068916607 -0.206749803  0.000000000
     0.000000000  0.000000000 10.815333366     0.000000000  0.000000000  0.092461320
   -13.059262974  4.353088059  0.000000000    -0.068916602  0.022972190  0.000000000

  length of vectors
     4.588557161 10.815333366 13.765671980     0.217933430  0.092461320  0.072644474

  position of ions in fractional coordinates (direct lattice)
     0.985105302  0.000000000  0.328368356
     0.485105139  0.300000042  0.161701794
     0.985105166  0.599999964  0.995035217
     0.985105285  0.000000000  0.995035098
     0.485105168  0.300000042  0.828368490
     0.985105258  0.599999964  0.661701913
     0.985105317  0.000000000  0.661701734
     0.485105275  0.300000042  0.495035172
     0.985105123  0.599999964  0.328368535
     0.985105217  0.149999991  0.828368409
     0.485105243  0.450000018  0.661701832
     0.985105191  0.750000060  0.495035224
     0.985105322  0.149999991  0.161701757
     0.485105339  0.450000018  0.995035314
     0.985105039  0.750000060  0.828368587
     0.985105400  0.149999991  0.495035075
     0.485105396  0.450000018  0.328368468
     0.985105233  0.750000060  0.161701906
     0.047768666  0.750000060  0.026538121
     0.547768655  0.850000143  0.304315908
     0.047768753  0.950000167  0.582093651
     0.547768635  0.800000072  0.915426948
     0.047768733  0.900000215  0.193204690
     0.547768961  0.000000238  0.470982598

  ion indices of the primitive-cell ions
   primitive index   ion index
                 1           1
                 2          26
                 3          27
                 4          22
                 5           5
                 6          24
                 7          19
                 8           8
                 9           9
                10          31
                11          32
                12          33
                13          13
                14          35
                15          36
                16          28
                17          29
                18          18
                19          40
                20          38
                21          39
                22          43
                23          44
                24          48

----------------------------------------------------------------------------------------

 
 
 KPOINTS: Automatic KPOINTS generated             

Automatic generation of k-mesh.
 Grid dimensions read from file:
 generate k-points for:    4    4    3

 Generating k-lattice:

  Cartesian coordinates                     Fractional coordinates (reciprocal lattice)
     0.017229150  0.022972200  0.000000000     0.250000000 -0.000000000  0.000000000
     0.000000000  0.028715248  0.000000000     0.000000000  0.250000000  0.000000000
     0.000000000  0.000000000  0.030820440     0.000000000  0.000000000  0.333333333

  Length of vectors
     0.028715250  0.028715248  0.030820440

  Shift w.r.t. Gamma in fractional coordinates (k-lattice)
     0.000000000  0.000000000  0.000000000

 
 Subroutine IBZKPT returns following result:
 ===========================================
 
 Found     26 irreducible k-points:
 
 Following reciprocal coordinates:
            Coordinates               Weight
  0.000000  0.000000  0.000000      1.000000
  0.250000 -0.000000  0.000000      2.000000
  0.000000  0.250000  0.000000      2.000000
  0.500000 -0.000000  0.000000      1.000000
  0.000000  0.500000  0.000000      1.000000
  0.250000  0.250000  0.000000      2.000000
  0.500000  0.250000  0.000000      2.000000
  0.250000  0.500000  0.000000      2.000000
 -0.250000  0.250000  0.000000      2.000000
  0.500000  0.500000  0.000000      1.000000
  0.000000  0.000000  0.333333      2.000000
  0.250000 -0.000000  0.333333      2.000000
 -0.250000  0.000000  0.333333      2.000000
  0.000000  0.250000 -0.333333      2.000000
  0.000000 -0.250000 -0.333333      2.000000
  0.500000 -0.000000  0.333333      2.000000
  0.000000  0.500000 -0.333333      2.000000
  0.250000  0.250000  0.333333      2.000000
 -0.250000 -0.250000  0.333333      2.000000
  0.500000  0.250000  0.333333      2.000000
  0.500000 -0.250000  0.333333      2.000000
  0.250000  0.500000 -0.333333      2.000000
 -0.250000  0.500000 -0.333333      2.000000
 -0.250000  0.250000  0.333333      2.000000
  0.250000 -0.250000  0.333333      2.000000
  0.500000  0.500000  0.333333      2.000000
 
 Following cartesian coordinates:
            Coordinates               Weight
  0.000000  0.000000  0.000000      1.000000
  0.017229  0.022972  0.000000      2.000000
  0.000000  0.028715  0.000000      2.000000
  0.034458  0.045944  0.000000      1.000000
  0.000000  0.057430  0.000000      1.000000
  0.017229  0.051687  0.000000      2.000000
  0.034458  0.074660  0.000000      2.000000
  0.017229  0.080403  0.000000      2.000000
 -0.017229  0.005743  0.000000      2.000000
  0.034458  0.103375  0.000000      1.000000
  0.000000  0.000000  0.030820      2.000000
  0.017229  0.022972  0.030820      2.000000
 -0.017229 -0.022972  0.030820      2.000000
  0.000000  0.028715 -0.030820      2.000000
  0.000000 -0.028715 -0.030820      2.000000
  0.034458  0.045944  0.030820      2.000000
  0.000000  0.057430 -0.030820      2.000000
  0.017229  0.051687  0.030820      2.000000
 -0.017229 -0.051687  0.030820      2.000000
  0.034458  0.074660  0.030820      2.000000
  0.034458  0.017229  0.030820      2.000000
  0.017229  0.080403 -0.030820      2.000000
 -0.017229  0.034458 -0.030820      2.000000
 -0.017229  0.005743  0.030820      2.000000
  0.017229 -0.005743  0.030820      2.000000
  0.034458  0.103375  0.030820      2.000000
 


--------------------------------------------------------------------------------------------------------




 Dimension of arrays:
   k-points           NKPTS =     26   k-points in BZ     NKDIM =     26   number of bands    NBANDS=    116
   number of dos      NEDOS =    301   number of ions     NIONS =     48
   non local maximal  LDIM  =      5   non local SUM 2l+1 LMDIM =     13
   total plane-waves  NPLWV = 645120
   max r-space proj   IRMAX =   7829   max aug-charges    IRDMAX= 363757
   dimension x,y,z NGX =    96 NGY =   96 NGZ =   70
   dimension x,y,z NGXF=   192 NGYF=  192 NGZF=  140
   support grid    NGXF=   384 NGYF=  384 NGZF=  280
   ions per type =              48
   NGX,Y,Z   is equivalent  to a cutoff of  11.00, 11.00, 10.76 a.u.
   NGXF,Y,Z  is equivalent  to a cutoff of  22.00, 22.00, 21.52 a.u.

 SYSTEM =  Si and Ge interface calculation         
 POSCAR =  Sn+Sn                                   

 Startparameter for this run:
   NWRITE =      2    write-flag & timer
   PREC   = normal    normal or accurate (medium, high low for compatibility)
   ISTART =      0    job   : 0-new  1-cont  2-samecut
   ICHARG =      2    charge: 1-file 2-atom 10-const
   ISPIN  =      2    spin polarized calculation?
   LNONCOLLINEAR =      F non collinear calculations
   LSORBIT =      F    spin-orbit coupling
   INIWAV =      1    electr: 0-lowe 1-rand  2-diag
   LASPH  =      T    aspherical Exc in radial PAW
 Electronic Relaxation 1
   ENCUT  =  700.0 eV  51.45 Ry    7.17 a.u.  31.30 31.30 23.33*2*pi/ulx,y,z
   ENINI  =  700.0     initial cutoff
   ENAUG  =  900.0 eV  augmentation charge cutoff
   NELM   =    100;   NELMIN=  2; NELMDL= -5     # of ELM steps 
   EDIFF  = 0.1E-06   stopping-criterion for ELM
   LREAL  =      T    real-space projection
   NLSPLINE    = F    spline interpolate recip. space projectors
   LCOMPAT=      F    compatible to vasp.4.4
   GGA_COMPAT  = T    GGA compatible to vasp.4.4-vasp.4.6
   LMAXPAW     = -100 max onsite density
   LMAXMIX     =    6 max onsite mixed and CHGCAR
   VOSKOWN=      0    Vosko Wilk Nusair interpolation
   ROPT   =   -0.00050
 Ionic relaxation
   EDIFFG = 0.1E-05   stopping-criterion for IOM
   NSW    =      0    number of steps for IOM
   NBLOCK =      1;   KBLOCK =      1    inner block; outer block 
   IBRION =     -1    ionic relax: 0-MD 1-quasi-New 2-CG
   NFREE  =      0    steps in history (QN), initial steepest desc. (CG)
   ISIF   =      2    stress and relaxation
   IWAVPR =     10    prediction:  0-non 1-charg 2-wave 3-comb
   ISYM   =      2    0-nonsym 1-usesym 2-fastsym
   LCORR  =      T    Harris-Foulkes like correction to forces

   POTIM  = 0.5000    time-step for ionic-motion
   TEIN   =    0.0    initial temperature
   TEBEG  =    0.0;   TEEND  =   0.0 temperature during run
   SMASS  =  -3.00    Nose mass-parameter (am)
   estimated Nose-frequenzy (Omega)   =  0.10E-29 period in steps = 0.13E+47 mass=  -0.481E-26a.u.
   SCALEE = 1.0000    scale energy and forces
   NPACO  =    256;   APACO  = 10.0  distance and # of slots for P.C.
   PSTRESS=    0.0 pullay stress

  Mass of Ions in am
   POMASS = 118.71
  Ionic Valenz
   ZVAL   =   4.00
  Atomic Wigner-Seitz radii
   RWIGS  =  -1.00
  virtual crystal weights 
   VCA    =   1.00
   NELECT =     192.0000    total number of electrons
   NUPDOWN=       1.0000    fix difference up-down

 DOS related values:
   EMIN   =  10.00;   EMAX   =-10.00  energy-range for DOS
   EFERMI =   0.00;   METHOD = LEGACY      
   ISMEAR =     0;   SIGMA  =   0.01  broadening in eV -4-tet -1-fermi 0-gaus

 Electronic relaxation 2 (details)
   IALGO  =     38    algorithm
   LDIAG  =      T    sub-space diagonalisation (order eigenvalues)
   LSUBROT=      F    optimize rotation matrix (better conditioning)
   TURBO    =      0    0=normal 1=particle mesh
   IRESTART =      0    0=no restart 2=restart with 2 vectors
   NREBOOT  =      0    no. of reboots
   NMIN     =      0    reboot dimension
   EREF     =   0.00    reference energy to select bands
   IMIX   =      4    mixing-type and parameters
     AMIX     =   0.60;   BMIX     =  1.00
     AMIX_MAG =   2.40;   BMIX_MAG =  1.00
     AMIN     =   0.10
     WC   =   100.;   INIMIX=   1;  MIXPRE=   1;  MAXMIX= -45

 Intra band minimization:
   WEIMIN = 0.0000     energy-eigenvalue tresh-hold
   EBREAK =  0.22E-09  absolut break condition
   DEPER  =   0.30     relativ break condition  

   TIME   =   0.40     timestep for ELM

  volume/ion in A,a.u.               =      28.46       192.09
  Fermi-wavevector in a.u.,A,eV,Ry     =   0.851126  1.608396  9.856281  0.724416
  Thomas-Fermi vector in A             =   1.967211
 
 Write flags
   LWAVE        =      F    write WAVECAR
   LDOWNSAMPLE  =      F    k-point downsampling of WAVECAR
   LCHARG       =      T    write CHGCAR
   LVTOT        =      F    write LOCPOT, total local potential
   LVHAR        =      T    write LOCPOT, Hartree potential only
   WRT_POTENTIAL=  hartree ionic  ! write potential to hdf5 file
   LELF         =      F    write electronic localiz. function (ELF)
   LORBIT       =      0    0 simple, 1 ext, 2 COOP (PROOUT), +10 PAW based schemes


 Dipole corrections
   LMONO      =      F    monopole corrections only (constant potential shift)
   LDIPOL     =      F    correct potential (dipole corrections)
   IDIPOL     =      0    1-x, 2-y, 3-z, 4-all directions 
   EPSILON    =  1.0000000 bulk dielectric constant
   LVACPOTAV  =      F  vacuum potentials using an averaging scheme for the charge density
   VACPOTFLAT =  0.1000000 required flatness to determine vacuum potential
 Exchange correlation treatment:
   GGA     = PE    functional components
   XC_C    = 1    coefficients multiplying the functional components
   LIBXC   =     F    Libxc                    
   VOSKOWN =     0    Vosko Wilk Nusair interpolation
   LHFCALC =     F    Hartree Fock is set to
   LHFONE  =     F    Hartree Fock one center treatment
   AEXX    =    0.0000 exact exchange contribution

 Parameters of functionals:
   PE:
     No parameter
 
 Van der Waals corrections
   IVDW    =     0    specifies the selected vdW correction

 Linear response parameters
   LEPSILON=     F    determine dielectric tensor
   LRPA    =     F    only Hartree local field effects (RPA)
   LNABLA  =     F    use nabla operator in PAW spheres
   LVEL    =     F    velocity operator in full k-point grid
   CSHIFT  =0.1000    complex shift for real part using Kramers Kronig
   OMEGAMAX=  -1.0    maximum frequency
   DEG_THRESHOLD= 0.2000000E-02 threshold for treating states as degnerate
   RTIME   =   -0.100 relaxation time in fs
  (WPLASMAI=    0.000 imaginary part of plasma frequency in eV, 0.658/RTIME)
   DFIELD  = 0.0000000 0.0000000 0.0000000 field for delta impulse in time
 
  Optional k-point grid parameters
   LKPOINTS_OPT  =     F    use optional k-point grid
   KPOINTS_OPT_MODE=     1    mode for optional k-point grid
 
 Orbital magnetization related:
   ORBITALMAG=     F  switch on orbital magnetization
   LCHIMAG   =     F  perturbation theory with respect to B field
   DQ        =  0.001000  dq finite difference perturbation B field
   LLRAUG    =     F  two centre corrections for induced B field
   LBONE     =     F  B-component reconstruction in AE one-centre
   LVGVCALC  =     T  calculate vGv susceptibility
   LVGVAPPL  =     F  apply vGv susceptibility instead of pGv for G=0

 Random number generation:
   RANDOM_GENERATOR = DEFAULT
   PCG_SEED         = not used


--------------------------------------------------------------------------------------------------------


 Static calculation
 charge density and potential will be updated during run
 spin polarized calculation
 Variant of blocked Davidson
 Davidson routine will perform the subspace rotation
 perform sub-space diagonalisation
    after iterative eigenvector-optimisation
 modified Broyden-mixing scheme, WC =      100.0
 initial mixing is a Kerker type mixing with AMIX =  0.6000 and BMIX =      1.0000
 Hartree-type preconditioning will be used
 using additional bands           20
 real space projection scheme for non local part
 use partial core corrections
 calculate Harris-corrections to forces 
   (improved forces if not selfconsistent)
 use gradient corrections 
 use of overlap-Matrix (Vanderbilt PP)
 Gauss-broadening in eV      SIGMA  =   0.01


--------------------------------------------------------------------------------------------------------


  energy-cutoff  :      700.00
  volume of cell :     1366.29
      direct lattice vectors                 reciprocal lattice vectors
    14.510292053  0.000000000  0.000000000     0.068916600  0.091888801  0.000000000
   -11.608234406  8.706175804  0.000000000     0.000000000  0.114860993  0.000000000
     0.000000000  0.000000000 10.815333366     0.000000000  0.000000000  0.092461320

  length of vectors
    14.510292053 14.510293007 10.815333366     0.114861001  0.114860993  0.092461320


 
 k-points in units of 2pi/SCALE and weight: Automatic KPOINTS generated             
   0.00000000  0.00000000  0.00000000       0.021
   0.01722915  0.02297220  0.00000000       0.042
   0.00000000  0.02871525  0.00000000       0.042
   0.03445830  0.04594440  0.00000000       0.021
   0.00000000  0.05743050  0.00000000       0.021
   0.01722915  0.05168745  0.00000000       0.042
   0.03445830  0.07465965  0.00000000       0.042
   0.01722915  0.08040270  0.00000000       0.042
  -0.01722915  0.00574305  0.00000000       0.042
   0.03445830  0.10337490  0.00000000       0.021
   0.00000000  0.00000000  0.03082044       0.042
   0.01722915  0.02297220  0.03082044       0.042
  -0.01722915 -0.02297220  0.03082044       0.042
   0.00000000  0.02871525 -0.03082044       0.042
   0.00000000 -0.02871525 -0.03082044       0.042
   0.03445830  0.04594440  0.03082044       0.042
   0.00000000  0.05743050 -0.03082044       0.042
   0.01722915  0.05168745  0.03082044       0.042
  -0.01722915 -0.05168745  0.03082044       0.042
   0.03445830  0.07465965  0.03082044       0.042
   0.03445830  0.01722915  0.03082044       0.042
   0.01722915  0.08040270 -0.03082044       0.042
  -0.01722915  0.03445830 -0.03082044       0.042
  -0.01722915  0.00574305  0.03082044       0.042
   0.01722915 -0.00574305  0.03082044       0.042
   0.03445830  0.10337490  0.03082044       0.042
 
 k-points in reciprocal lattice and weights: Automatic KPOINTS generated             
   0.00000000  0.00000000  0.00000000       0.021
   0.25000000 -0.00000000  0.00000000       0.042
   0.00000000  0.25000000  0.00000000       0.042
   0.50000000 -0.00000000  0.00000000       0.021
   0.00000000  0.50000000  0.00000000       0.021
   0.25000000  0.25000000  0.00000000       0.042
   0.50000000  0.25000000  0.00000000       0.042
   0.25000000  0.50000000  0.00000000       0.042
  -0.25000000  0.25000000  0.00000000       0.042
   0.50000000  0.50000000  0.00000000       0.021
   0.00000000  0.00000000  0.33333333       0.042
   0.25000000 -0.00000000  0.33333333       0.042
  -0.25000000  0.00000000  0.33333333       0.042
   0.00000000  0.25000000 -0.33333333       0.042
   0.00000000 -0.25000000 -0.33333333       0.042
   0.50000000 -0.00000000  0.33333333       0.042
   0.00000000  0.50000000 -0.33333333       0.042
   0.25000000  0.25000000  0.33333333       0.042
  -0.25000000 -0.25000000  0.33333333       0.042
   0.50000000  0.25000000  0.33333333       0.042
   0.50000000 -0.25000000  0.33333333       0.042
   0.25000000  0.50000000 -0.33333333       0.042
  -0.25000000  0.50000000 -0.33333333       0.042
  -0.25000000  0.25000000  0.33333333       0.042
   0.25000000 -0.25000000  0.33333333       0.042
   0.50000000  0.50000000  0.33333333       0.042
 
 position of ions in fractional coordinates (direct lattice) 
   0.34326315  0.67163152  0.00000000
   0.67659652  0.83829832  0.30000004
   0.00992978  0.00496507  0.59999996
   0.00992981  0.00496491  0.00000000
   0.34326315  0.17163165  0.30000004
   0.67659640  0.33829835  0.59999996
   0.67659652  0.33829823  0.00000000
   0.00992978  0.50496495  0.30000004
   0.34326315  0.67163169  0.59999996
   0.09326315  0.92163157  0.14999999
   0.42659640  0.08829832  0.45000002
   0.75992978  0.25496507  0.75000006
   0.42659643  0.58829820  0.14999999
   0.75992972  0.75496495  0.45000002
   0.09326315  0.92163175  0.75000006
   0.75992978  0.25496489  0.14999999
   0.09326303  0.42163160  0.45000002
   0.42659640  0.58829832  0.75000006
   0.17659646  0.83829820  0.00000000
   0.50992978  0.00496495  0.30000004
   0.84326309  0.17163157  0.59999996
   0.50992978  0.50496489  0.00000000
   0.84326315  0.67163163  0.30000004
   0.17659640  0.83829832  0.59999996
   0.84326321  0.17163159  0.00000000
   0.17659652  0.33829832  0.30000004
   0.50992978  0.50496501  0.59999996
   0.25992975  0.75496483  0.14999999
   0.59326303  0.92163152  0.45000002
   0.92659640  0.08829832  0.75000006
   0.59326315  0.42163157  0.14999999
   0.92659640  0.58829826  0.45000002
   0.25992978  0.75496501  0.75000006
   0.92659646  0.08829828  0.14999999
   0.25992966  0.25496498  0.45000002
   0.59326315  0.42163175  0.75000006
   0.96284664  0.98938477  0.75000006
   0.57395768  0.87827361  0.85000014
   0.18506879  0.76716244  0.95000017
   0.46284658  0.48938471  0.75000006
   0.07395765  0.37827355  0.85000014
   0.68506873  0.26716238  0.95000017
   0.76840216  0.68382913  0.80000007
   0.37951326  0.57271797  0.90000021
   0.99062431  0.46160674  0.00000024
   0.26840213  0.18382916  0.80000007
   0.87951320  0.07271800  0.90000010
   0.49062419  0.96160680  0.00000024
 
 position of ions in cartesian coordinates  (Angst):
  -2.81560752  5.84734205  0.00000000
   0.08644972  7.29837256  3.24460046
   0.08644829  0.04322675  6.48919963
   0.08645062  0.04322534  0.00000000
   2.98850813  1.49425531  3.24460046
   5.89056485  2.94528492  6.48919963
   5.89056797  2.94528387  0.00000000
  -5.71766753  4.39631361  3.24460046
  -2.81560960  5.84734360  6.48919963
  -9.34523983  8.02388652  1.62229991
   5.16505079  0.76874071  4.86690021
   8.06710873  2.21977070  8.11150067
  -0.63906460  5.12182757  1.62229991
   2.26299205  6.57285756  4.86690021
  -9.34524190  8.02388807  8.11150067
   8.06711080  2.21976914  1.62229991
  -3.54112469  3.67079887  4.86690021
  -0.63906641  5.12182861  8.11150067
  -7.16869578  7.29837152  0.00000000
   7.34159570  0.04322571  3.24460046
  10.24365416  1.49425467  6.48919963
   1.53747919  4.39631309  0.00000000
   4.43953713  5.84734308  3.24460046
  -7.16869803  7.29837256  6.48919963
  10.24365571  1.49425480  0.00000000
  -1.36457910  2.94528466  3.24460046
   1.53747781  4.39631413  6.48919963
  -4.99215216  6.57285652  1.62229991
  -2.09009483  8.02388600  4.86690021
  12.42019681  0.76874071  8.11150067
   3.71402340  3.67079862  1.62229991
   6.61608031  5.12182809  4.86690021
  -4.99215381  6.57285808  8.11150067
  12.42019812  0.76874038  1.62229991
   0.81196201  2.21976992  4.86690021
   3.71402133  3.67080017  8.11150067
   2.48617558  8.61375775  8.11150067
  -1.86691230  7.64640442  9.19303491
  -6.21999932  6.67905109 10.27456850
   1.03514657  4.26066933  8.11150067
  -3.31794087  3.29331600  9.19303491
   6.83926374  2.32596267 10.27456850
   3.21169092  5.95353662  8.65226747
  -1.14139609  4.98618329  9.73380235
   9.01580879  4.01882944  0.00000257
   1.76066131  1.60044898  8.65226747
  11.91786584  0.63309571  9.73380106
  -4.04345688  8.37191786  0.00000257
 


--------------------------------------------------------------------------------------------------------


 k-point     1 :   0.0000 0.0000 0.0000  plane waves:   57395
 k-point     2 :   0.2500-0.0000 0.0000  plane waves:   57492
 k-point     3 :   0.0000 0.2500 0.0000  plane waves:   57492
 k-point     4 :   0.5000-0.0000 0.0000  plane waves:   57446
 k-point     5 :   0.0000 0.5000 0.0000  plane waves:   57446
 k-point     6 :   0.2500 0.2500 0.0000  plane waves:   57424
 k-point     7 :   0.5000 0.2500 0.0000  plane waves:   57461
 k-point     8 :   0.2500 0.5000 0.0000  plane waves:   57461
 k-point     9 :  -0.2500 0.2500 0.0000  plane waves:   57473
 k-point    10 :   0.5000 0.5000 0.0000  plane waves:   57520
 k-point    11 :   0.0000 0.0000 0.3333  plane waves:   57466
 k-point    12 :   0.2500-0.0000 0.3333  plane waves:   57433
 k-point    13 :  -0.2500 0.0000 0.3333  plane waves:   57433
 k-point    14 :   0.0000 0.2500-0.3333  plane waves:   57433
 k-point    15 :   0.0000-0.2500-0.3333  plane waves:   57433
 k-point    16 :   0.5000-0.0000 0.3333  plane waves:   57472
 k-point    17 :   0.0000 0.5000-0.3333  plane waves:   57472
 k-point    18 :   0.2500 0.2500 0.3333  plane waves:   57452
 k-point    19 :  -0.2500-0.2500 0.3333  plane waves:   57452
 k-point    20 :   0.5000 0.2500 0.3333  plane waves:   57430
 k-point    21 :   0.5000-0.2500 0.3333  plane waves:   57430
 k-point    22 :   0.2500 0.5000-0.3333  plane waves:   57430
 k-point    23 :  -0.2500 0.5000-0.3333  plane waves:   57430
 k-point    24 :  -0.2500 0.2500 0.3333  plane waves:   57431
 k-point    25 :   0.2500-0.2500 0.3333  plane waves:   57431
 k-point    26 :   0.5000 0.5000 0.3333  plane waves:   57416

 maximum and minimum number of plane-waves per node :      3620     3532

 maximum number of plane-waves:     57520
 maximum index in each direction: 
   IXMAX=   31   IYMAX=   31   IZMAX=   23
   IXMIN=  -31   IYMIN=  -31   IZMIN=  -23


 real space projection operators:
  total allocation   :      36822.91 KBytes
  max/ min on nodes  :       2341.62       2275.41


 parallel 3D FFT for wavefunctions:
    minimum data exchange during FFTs selected (reduces bandwidth)
 parallel 3D FFT for charge:
    minimum data exchange during FFTs selected (reduces bandwidth)


 total amount of memory used by VASP MPI-rank0   149284. kBytes
=======================================================================

   base      :      30000. kBytes
   nonlr-proj:       9197. kBytes
   fftplans  :      13100. kBytes
   grid      :       9114. kBytes
   one-center:         48. kBytes
   wavefun   :      87825. kBytes
 
     INWAV:  cpu time      0.0000: real time      0.0002
 Broyden mixing: mesh for mixing (old mesh)
   NGX = 63   NGY = 63   NGZ = 47
  (NGX  =192   NGY  =192   NGZ  =140)
  gives a total of 186543 points

 initial charge density was supplied:
 charge density of overlapping atoms calculated
 number of electron     192.0000000 magnetization       1.0000000
 keeping initial charge density in first step


--------------------------------------------------------------------------------------------------------


 Maximum index for non-local projection operator          518
 Maximum index for augmentation-charges         6233 (set IRDMAX)


--------------------------------------------------------------------------------------------------------


 First call to EWALD:  gamma=   0.160
 Maximum number of real-space cells 3x 3x 3
 Maximum number of reciprocal cells 3x 3x 3

    FEWALD:  cpu time      0.0023: real time      0.0023


--------------------------------------- Ionic step        1  -------------------------------------------




--------------------------------------- Iteration      1(   1)  ---------------------------------------


    POTLOK:  cpu time      0.1587: real time      0.1599
    SETDIJ:  cpu time      0.8664: real time      0.8712
     EDDAV:  cpu time     19.8388: real time     20.0065
       DOS:  cpu time      0.0039: real time      0.0039
    --------------------------------------------
      LOOP:  cpu time     20.8679: real time     21.0416

 eigenvalue-minimisations  : 12064
 total energy-change (2. order) : 0.1297669E+04  (-0.7877404E+04)
 number of electron     192.0000000 magnetization       1.0000000
 augmentation part      192.0000000 magnetization       1.0000000

 Free energy of the ion-electron system (eV)
  ---------------------------------------------------
  alpha Z        PSCENC =       210.94477089
  Ewald energy   TEWEN  =     -4183.10974681
  -Hartree energ DENC   =      -669.59081691
  -exchange      EXHF   =         0.00000000
  -V(xc)+E(xc)   XCENC  =     -5688.46281410
  PAW double counting   =      9091.93393999    -3146.95201293
  entropy T*S    EENTRO =        -0.00063079
  eigenvalues    EBANDS =      1166.77882864
  atomic energy  EATOM  =      4516.12718286
  Solvation  Ediel_sol  =         0.00000000
  ---------------------------------------------------
  free energy    TOTEN  =      1297.66870084 eV

  energy without entropy =     1297.66933163  energy(sigma->0) =     1297.66901624


--------------------------------------------------------------------------------------------------------




--------------------------------------- Iteration      1(   2)  ---------------------------------------


     EDDAV:  cpu time     22.5198: real time     22.7163
       DOS:  cpu time      0.0030: real time      0.0030
    --------------------------------------------
      LOOP:  cpu time     22.5227: real time     22.7192

 eigenvalue-minimisations  : 14372
 total energy-change (2. order) :-0.1106926E+04  (-0.1072475E+04)
 number of electron     192.0000000 magnetization       1.0000000
 augmentation part      192.0000000 magnetization       1.0000000

 Free energy of the ion-electron system (eV)
  ---------------------------------------------------
  alpha Z        PSCENC =       210.94477089
  Ewald energy   TEWEN  =     -4183.10974681
  -Hartree energ DENC   =      -669.59081691
  -exchange      EXHF   =         0.00000000
  -V(xc)+E(xc)   XCENC  =     -5688.46281410
  PAW double counting   =      9091.93393999    -3146.95201293
  entropy T*S    EENTRO =        -0.00091237
  eigenvalues    EBANDS =        59.85330631
  atomic energy  EATOM  =      4516.12718286
  Solvation  Ediel_sol  =         0.00000000
  ---------------------------------------------------
  free energy    TOTEN  =       190.74289693 eV

  energy without entropy =      190.74380930  energy(sigma->0) =      190.74335311


--------------------------------------------------------------------------------------------------------




--------------------------------------- Iteration      1(   3)  ---------------------------------------


     EDDAV:  cpu time     23.9207: real time     24.1250
       DOS:  cpu time      0.0027: real time      0.0027
    --------------------------------------------
      LOOP:  cpu time     23.9234: real time     24.1277

 eigenvalue-minimisations  : 15520
 total energy-change (2. order) :-0.1243044E+03  (-0.1194949E+03)
 number of electron     192.0000000 magnetization       1.0000000
 augmentation part      192.0000000 magnetization       1.0000000

 Free energy of the ion-electron system (eV)
  ---------------------------------------------------
  alpha Z        PSCENC =       210.94477089
  Ewald energy   TEWEN  =     -4183.10974681
  -Hartree energ DENC   =      -669.59081691
  -exchange      EXHF   =         0.00000000
  -V(xc)+E(xc)   XCENC  =     -5688.46281410
  PAW double counting   =      9091.93393999    -3146.95201293
  entropy T*S    EENTRO =        -0.00097921
  eigenvalues    EBANDS =       -64.45101966
  atomic energy  EATOM  =      4516.12718286
  Solvation  Ediel_sol  =         0.00000000
  ---------------------------------------------------
  free energy    TOTEN  =        66.43850413 eV

  energy without entropy =       66.43948334  energy(sigma->0) =       66.43899373


--------------------------------------------------------------------------------------------------------




--------------------------------------- Iteration      1(   4)  ---------------------------------------


     EDDAV:  cpu time     23.2634: real time     23.4592
       DOS:  cpu time      0.0026: real time      0.0026
    --------------------------------------------
      LOOP:  cpu time     23.2660: real time     23.4619

 eigenvalue-minimisations  : 14968
 total energy-change (2. order) :-0.5749813E+01  (-0.5513893E+01)
 number of electron     192.0000000 magnetization       1.0000000
 augmentation part      192.0000000 magnetization       1.0000000

 Free energy of the ion-electron system (eV)
  ---------------------------------------------------
  alpha Z        PSCENC =       210.94477089
  Ewald energy   TEWEN  =     -4183.10974681
  -Hartree energ DENC   =      -669.59081691
  -exchange      EXHF   =         0.00000000
  -V(xc)+E(xc)   XCENC  =     -5688.46281410
  PAW double counting   =      9091.93393999    -3146.95201293
  entropy T*S    EENTRO =        -0.00093219
  eigenvalues    EBANDS =       -70.20087942
  atomic energy  EATOM  =      4516.12718286
  Solvation  Ediel_sol  =         0.00000000
  ---------------------------------------------------
  free energy    TOTEN  =        60.68869139 eV

  energy without entropy =       60.68962358  energy(sigma->0) =       60.68915748


--------------------------------------------------------------------------------------------------------




--------------------------------------- Iteration      1(   5)  ---------------------------------------


     EDDAV:  cpu time     23.9974: real time     24.2040
       DOS:  cpu time      0.0033: real time      0.0033
    CHARGE:  cpu time      1.2600: real time      1.2679
    MIXING:  cpu time      0.0082: real time      0.0083
    --------------------------------------------
      LOOP:  cpu time     25.2690: real time     25.4836

 eigenvalue-minimisations  : 15688
 total energy-change (2. order) :-0.2493188E+00  (-0.2448019E+00)
 number of electron     191.9999997 magnetization       1.0000000
 augmentation part      -55.6174895 magnetization      -0.1786295

 Broyden mixing:
  rms(total) = 0.30793E+01    rms(broyden)= 0.30793E+01
  rms(prec ) = 0.32963E+01
  weight for this iteration     100.00

 Free energy of the ion-electron system (eV)
  ---------------------------------------------------
  alpha Z        PSCENC =       210.94477089
  Ewald energy   TEWEN  =     -4183.10974681
  -Hartree energ DENC   =      -669.59081691
  -exchange      EXHF   =         0.00000000
  -V(xc)+E(xc)   XCENC  =     -5688.46281410
  PAW double counting   =      9091.93393999    -3146.95201293
  entropy T*S    EENTRO =        -0.00099308
  eigenvalues    EBANDS =       -70.45013736
  atomic energy  EATOM  =      4516.12718286
  Solvation  Ediel_sol  =         0.00000000
  ---------------------------------------------------
  free energy    TOTEN  =        60.43937255 eV

  energy without entropy =       60.44036563  energy(sigma->0) =       60.43986909


--------------------------------------------------------------------------------------------------------




--------------------------------------- Iteration      1(   6)  ---------------------------------------


    POTLOK:  cpu time      0.1439: real time      0.1465
    SETDIJ:  cpu time      0.8584: real time      0.8639
     EDDAV:  cpu time     23.0713: real time     23.2602
       DOS:  cpu time      0.0027: real time      0.0027
    CHARGE:  cpu time      1.2828: real time      1.2920
    MIXING:  cpu time      0.0043: real time      0.0043
    --------------------------------------------
      LOOP:  cpu time     25.3635: real time     25.5696

 eigenvalue-minimisations  : 14824
 total energy-change (2. order) : 0.1730240E+02  (-0.2142065E+01)
 number of electron     191.9999997 magnetization       1.0000000
 augmentation part      -55.3790061 magnetization      -0.1762873

 Broyden mixing:
  rms(total) = 0.16697E+01    rms(broyden)= 0.16697E+01
  rms(prec ) = 0.17953E+01
  weight for this iteration     100.00

 eigenvalues of (default mixing * dielectric matrix)
  average eigenvalue GAMMA=   1.8907
  1.8907

 Free energy of the ion-electron system (eV)
  ---------------------------------------------------
  alpha Z        PSCENC =       210.94477089
  Ewald energy   TEWEN  =     -4183.10974681
  -Hartree energ DENC   =      -689.00499019
  -exchange      EXHF   =         0.00000000
  -V(xc)+E(xc)   XCENC  =     -5677.12680503
  PAW double counting   =     13865.17520929    -7937.14627127
  entropy T*S    EENTRO =        -0.00129732
  eigenvalues    EBANDS =       -28.11627497
  atomic energy  EATOM  =      4516.12718286
  Solvation  Ediel_sol  =         0.00000000
  ---------------------------------------------------
  free energy    TOTEN  =        77.74177745 eV

  energy without entropy =       77.74307477  energy(sigma->0) =       77.74242611


--------------------------------------------------------------------------------------------------------




--------------------------------------- Iteration      1(   7)  ---------------------------------------


    POTLOK:  cpu time      0.1449: real time      0.1463
    SETDIJ:  cpu time      0.8588: real time      0.8635
     EDDAV:  cpu time     22.9633: real time     23.1547
       DOS:  cpu time      0.0028: real time      0.0028
    CHARGE:  cpu time      1.2567: real time      1.2650
    MIXING:  cpu time      0.0043: real time      0.0043
    --------------------------------------------
      LOOP:  cpu time     25.2307: real time     25.4365

 eigenvalue-minimisations  : 14792
 total energy-change (2. order) : 0.2965839E+01  (-0.1583580E+01)
 number of electron     191.9999997 magnetization       1.0000000
 augmentation part      -55.5977579 magnetization      -0.1695859

 Broyden mixing:
  rms(total) = 0.58431E+00    rms(broyden)= 0.58431E+00
  rms(prec ) = 0.91999E+00
  weight for this iteration     100.00

 eigenvalues of (default mixing * dielectric matrix)
  average eigenvalue GAMMA=   1.3553
  0.7006  2.0099

 Free energy of the ion-electron system (eV)
  ---------------------------------------------------
  alpha Z        PSCENC =       210.94477089
  Ewald energy   TEWEN  =     -4183.10974681
  -Hartree energ DENC   =      -693.04121193
  -exchange      EXHF   =         0.00000000
  -V(xc)+E(xc)   XCENC  =     -5669.38376601
  PAW double counting   =     19129.00544495   -13214.61629656
  entropy T*S    EENTRO =        -0.00101397
  eigenvalues    EBANDS =       -15.21774746
  atomic energy  EATOM  =      4516.12718286
  Solvation  Ediel_sol  =         0.00000000
  ---------------------------------------------------
  free energy    TOTEN  =        80.70761596 eV

  energy without entropy =       80.70862993  energy(sigma->0) =       80.70812295


--------------------------------------------------------------------------------------------------------




--------------------------------------- Iteration      1(   8)  ---------------------------------------


    POTLOK:  cpu time      0.1448: real time      0.1467
    SETDIJ:  cpu time      0.8616: real time      0.8662
     EDDAV:  cpu time     23.0254: real time     23.2196
       DOS:  cpu time      0.0025: real time      0.0025
    CHARGE:  cpu time      1.2463: real time      1.2542
    MIXING:  cpu time      0.0039: real time      0.0039
    --------------------------------------------
      LOOP:  cpu time     25.2844: real time     25.4932

 eigenvalue-minimisations  : 14776
 total energy-change (2. order) : 0.1038677E+01  (-0.3562692E+00)
 number of electron     191.9999997 magnetization       1.0000000
 augmentation part      -55.5637238 magnetization      -0.1758472

 Broyden mixing:
  rms(total) = 0.15992E+00    rms(broyden)= 0.15992E+00
  rms(prec ) = 0.21754E+00
  weight for this iteration     100.00

 eigenvalues of (default mixing * dielectric matrix)
  average eigenvalue GAMMA=   1.2320
  1.9478  1.1290  0.6193

 Free energy of the ion-electron system (eV)
  ---------------------------------------------------
  alpha Z        PSCENC =       210.94477089
  Ewald energy   TEWEN  =     -4183.10974681
  -Hartree energ DENC   =      -696.81691441
  -exchange      EXHF   =         0.00000000
  -V(xc)+E(xc)   XCENC  =     -5667.03413232
  PAW double counting   =     21365.40742782   -15456.20067469
  entropy T*S    EENTRO =        -0.00161216
  eigenvalues    EBANDS =        -7.57000851
  atomic energy  EATOM  =      4516.12718286
  Solvation  Ediel_sol  =         0.00000000
  ---------------------------------------------------
  free energy    TOTEN  =        81.74629267 eV

  energy without entropy =       81.74790483  energy(sigma->0) =       81.74709875


--------------------------------------------------------------------------------------------------------




--------------------------------------- Iteration      1(   9)  ---------------------------------------


    POTLOK:  cpu time      0.1456: real time      0.1466
    SETDIJ:  cpu time      0.8631: real time      0.8678
     EDDAV:  cpu time     24.1071: real time     24.3083
       DOS:  cpu time      0.0021: real time      0.0146
    CHARGE:  cpu time      1.2614: real time      1.3163
    MIXING:  cpu time      0.0041: real time      0.0041
    --------------------------------------------
      LOOP:  cpu time     26.3833: real time     26.6577

 eigenvalue-minimisations  : 15656
 total energy-change (2. order) : 0.6735121E-02  (-0.1054545E+00)
 number of electron     191.9999997 magnetization       1.0000000
 augmentation part      -55.5787783 magnetization      -0.1745445

 Broyden mixing:
  rms(total) = 0.14888E+00    rms(broyden)= 0.14888E+00
  rms(prec ) = 0.15841E+00
  weight for this iteration     100.00

 eigenvalues of (default mixing * dielectric matrix)
  average eigenvalue GAMMA=   1.2477
  1.9709  1.8577  0.6598  0.5025

 Free energy of the ion-electron system (eV)
  ---------------------------------------------------
  alpha Z        PSCENC =       210.94477089
  Ewald energy   TEWEN  =     -4183.10974681
  -Hartree energ DENC   =      -697.47411776
  -exchange      EXHF   =         0.00000000
  -V(xc)+E(xc)   XCENC  =     -5667.41438424
  PAW double counting   =     21432.64367073   -15523.62764178
  entropy T*S    EENTRO =        -0.00152086
  eigenvalues    EBANDS =        -6.33518524
  atomic energy  EATOM  =      4516.12718286
  Solvation  Ediel_sol  =         0.00000000
  ---------------------------------------------------
  free energy    TOTEN  =        81.75302779 eV

  energy without entropy =       81.75454865  energy(sigma->0) =       81.75378822


--------------------------------------------------------------------------------------------------------




--------------------------------------- Iteration      1(  10)  ---------------------------------------


    POTLOK:  cpu time      0.1432: real time      0.1457
    SETDIJ:  cpu time      0.8588: real time      0.8634
     EDDAV:  cpu time     22.6822: real time     22.8718
       DOS:  cpu time      0.0027: real time      0.0027
    CHARGE:  cpu time      1.2499: real time      1.2575
    MIXING:  cpu time      0.0084: real time      0.0084
    --------------------------------------------
      LOOP:  cpu time     24.9452: real time     25.1496

 eigenvalue-minimisations  : 14256
 total energy-change (2. order) : 0.1432913E-01  (-0.1439406E-01)
 number of electron     191.9999997 magnetization       1.0000000
 augmentation part      -55.5695087 magnetization      -0.1734831

 Broyden mixing:
  rms(total) = 0.53071E-01    rms(broyden)= 0.53071E-01
  rms(prec ) = 0.63038E-01
  weight for this iteration     100.00

 eigenvalues of (default mixing * dielectric matrix)
  average eigenvalue GAMMA=   1.2470
  2.4047  1.8335  0.8085  0.5941  0.5941

 Free energy of the ion-electron system (eV)
  ---------------------------------------------------
  alpha Z        PSCENC =       210.94477089
  Ewald energy   TEWEN  =     -4183.10974681
  -Hartree energ DENC   =      -696.45521871
  -exchange      EXHF   =         0.00000000
  -V(xc)+E(xc)   XCENC  =     -5667.92399112
  PAW double counting   =     21462.10817159   -15553.11849045
  entropy T*S    EENTRO =        -0.00143926
  eigenvalues    EBANDS =        -6.80388205
  atomic energy  EATOM  =      4516.12718286
  Solvation  Ediel_sol  =         0.00000000
  ---------------------------------------------------
  free energy    TOTEN  =        81.76735693 eV

  energy without entropy =       81.76879619  energy(sigma->0) =       81.76807656


--------------------------------------------------------------------------------------------------------




--------------------------------------- Iteration      1(  11)  ---------------------------------------


    POTLOK:  cpu time      0.1448: real time      0.1457
    SETDIJ:  cpu time      0.8675: real time      0.8723
     EDDAV:  cpu time     23.0727: real time     23.2703
       DOS:  cpu time      0.0026: real time      0.0026
    CHARGE:  cpu time      1.2544: real time      1.2620
    MIXING:  cpu time      0.0075: real time      0.0075
    --------------------------------------------
      LOOP:  cpu time     25.3495: real time     25.5603

 eigenvalue-minimisations  : 14840
 total energy-change (2. order) : 0.3164961E-02  (-0.2839773E-02)
 number of electron     191.9999997 magnetization       1.0000000
 augmentation part      -55.5648443 magnetization      -0.1737160

 Broyden mixing:
  rms(total) = 0.23495E-01    rms(broyden)= 0.23495E-01
  rms(prec ) = 0.24460E-01
  weight for this iteration     100.00

 eigenvalues of (default mixing * dielectric matrix)
  average eigenvalue GAMMA=   1.1232
  2.2611  1.7699  0.9456  0.6190  0.6190  0.5249

 Free energy of the ion-electron system (eV)
  ---------------------------------------------------
  alpha Z        PSCENC =       210.94477089
  Ewald energy   TEWEN  =     -4183.10974681
  -Hartree energ DENC   =      -696.00140599
  -exchange      EXHF   =         0.00000000
  -V(xc)+E(xc)   XCENC  =     -5668.07035110
  PAW double counting   =     21473.12298826   -15564.09832360
  entropy T*S    EENTRO =        -0.00156410
  eigenvalues    EBANDS =        -7.14302853
  atomic energy  EATOM  =      4516.12718286
  Solvation  Ediel_sol  =         0.00000000
  ---------------------------------------------------
  free energy    TOTEN  =        81.77052189 eV

  energy without entropy =       81.77208598  energy(sigma->0) =       81.77130393


--------------------------------------------------------------------------------------------------------




--------------------------------------- Iteration      1(  12)  ---------------------------------------


    POTLOK:  cpu time      0.1443: real time      0.1455
    SETDIJ:  cpu time      0.8655: real time      0.8700
     EDDAV:  cpu time     21.9863: real time     22.1697
       DOS:  cpu time      0.0027: real time      0.0027
    CHARGE:  cpu time      1.2500: real time      1.2575
    MIXING:  cpu time      0.0046: real time      0.0046
    --------------------------------------------
      LOOP:  cpu time     24.2534: real time     24.4500

 eigenvalue-minimisations  : 13920
 total energy-change (2. order) :-0.6497527E-03  (-0.4927808E-03)
 number of electron     191.9999997 magnetization       1.0000000
 augmentation part      -55.5654673 magnetization      -0.1745420

 Broyden mixing:
  rms(total) = 0.12726E-01    rms(broyden)= 0.12726E-01
  rms(prec ) = 0.13150E-01
  weight for this iteration     100.00

 eigenvalues of (default mixing * dielectric matrix)
  average eigenvalue GAMMA=   1.1012
  2.1602  1.7201  1.2869  0.7405  0.6638  0.6638  0.4729

 Free energy of the ion-electron system (eV)
  ---------------------------------------------------
  alpha Z        PSCENC =       210.94477089
  Ewald energy   TEWEN  =     -4183.10974681
  -Hartree energ DENC   =      -696.10071065
  -exchange      EXHF   =         0.00000000
  -V(xc)+E(xc)   XCENC  =     -5668.05230258
  PAW double counting   =     21463.20665471   -15554.14570306
  entropy T*S    EENTRO =        -0.00154276
  eigenvalues    EBANDS =        -7.09873045
  atomic energy  EATOM  =      4516.12718286
  Solvation  Ediel_sol  =         0.00000000
  ---------------------------------------------------
  free energy    TOTEN  =        81.76987213 eV

  energy without entropy =       81.77141490  energy(sigma->0) =       81.77064352


--------------------------------------------------------------------------------------------------------




--------------------------------------- Iteration      1(  13)  ---------------------------------------


    POTLOK:  cpu time      0.1441: real time      0.1458
    SETDIJ:  cpu time      0.8654: real time      0.8701
     EDDAV:  cpu time     22.7813: real time     22.9691
       DOS:  cpu time      0.0025: real time      0.0025
    CHARGE:  cpu time      1.2493: real time      1.2568
    MIXING:  cpu time      0.0068: real time      0.0068
    --------------------------------------------
      LOOP:  cpu time     25.0494: real time     25.2511

 eigenvalue-minimisations  : 14592
 total energy-change (2. order) :-0.1823258E-03  (-0.5756784E-04)
 number of electron     191.9999997 magnetization       1.0000000
 augmentation part      -55.5658784 magnetization      -0.1734529

 Broyden mixing:
  rms(total) = 0.31862E-02    rms(broyden)= 0.31862E-02
  rms(prec ) = 0.37860E-02
  weight for this iteration     100.00

 eigenvalues of (default mixing * dielectric matrix)
  average eigenvalue GAMMA=   1.0584
  2.1471  1.7559  1.3988  0.6888  0.6888  0.6622  0.6622  0.4635

 Free energy of the ion-electron system (eV)
  ---------------------------------------------------
  alpha Z        PSCENC =       210.94477089
  Ewald energy   TEWEN  =     -4183.10974681
  -Hartree energ DENC   =      -696.15797331
  -exchange      EXHF   =         0.00000000
  -V(xc)+E(xc)   XCENC  =     -5668.04880119
  PAW double counting   =     21453.68302173   -15544.58977807
  entropy T*S    EENTRO =        -0.00152803
  eigenvalues    EBANDS =        -7.07745827
  atomic energy  EATOM  =      4516.12718286
  Solvation  Ediel_sol  =         0.00000000
  ---------------------------------------------------
  free energy    TOTEN  =        81.76968981 eV

  energy without entropy =       81.77121784  energy(sigma->0) =       81.77045382


--------------------------------------------------------------------------------------------------------




--------------------------------------- Iteration      1(  14)  ---------------------------------------


    POTLOK:  cpu time      0.1441: real time      0.1456
    SETDIJ:  cpu time      0.8660: real time      0.8707
     EDDAV:  cpu time     22.6586: real time     22.8418
       DOS:  cpu time      0.0026: real time      0.0026
    CHARGE:  cpu time      1.2480: real time      1.2556
    MIXING:  cpu time      0.0084: real time      0.0085
    --------------------------------------------
      LOOP:  cpu time     24.9277: real time     25.1248

 eigenvalue-minimisations  : 14424
 total energy-change (2. order) : 0.1585130E-04  (-0.1439460E-04)
 number of electron     191.9999997 magnetization       1.0000000
 augmentation part      -55.5659616 magnetization      -0.1740727

 Broyden mixing:
  rms(total) = 0.17020E-02    rms(broyden)= 0.17020E-02
  rms(prec ) = 0.17875E-02
  weight for this iteration     100.00

 eigenvalues of (default mixing * dielectric matrix)
  average eigenvalue GAMMA=   1.0522
  2.1320  1.8231  1.4439  0.8645  0.8645  0.6762  0.6762  0.5329  0.4564

 Free energy of the ion-electron system (eV)
  ---------------------------------------------------
  alpha Z        PSCENC =       210.94477089
  Ewald energy   TEWEN  =     -4183.10974681
  -Hartree energ DENC   =      -696.15966395
  -exchange      EXHF   =         0.00000000
  -V(xc)+E(xc)   XCENC  =     -5668.05019852
  PAW double counting   =     21448.29289149   -15539.18222597
  entropy T*S    EENTRO =        -0.00153448
  eigenvalues    EBANDS =        -7.09176987
  atomic energy  EATOM  =      4516.12718286
  Solvation  Ediel_sol  =         0.00000000
  ---------------------------------------------------
  free energy    TOTEN  =        81.76970566 eV

  energy without entropy =       81.77124013  energy(sigma->0) =       81.77047290


--------------------------------------------------------------------------------------------------------




--------------------------------------- Iteration      1(  15)  ---------------------------------------


    POTLOK:  cpu time      0.1439: real time      0.1452
    SETDIJ:  cpu time      0.8608: real time      0.8656
     EDDAV:  cpu time     23.2757: real time     23.4703
       DOS:  cpu time      0.0027: real time      0.0027
    CHARGE:  cpu time      1.2530: real time      1.2608
    MIXING:  cpu time      0.0051: real time      0.0052
    --------------------------------------------
      LOOP:  cpu time     25.5412: real time     25.7497

 eigenvalue-minimisations  : 14856
 total energy-change (2. order) :-0.2611625E-05  (-0.4554305E-05)
 number of electron     191.9999997 magnetization       1.0000000
 augmentation part      -55.5661354 magnetization      -0.1738832

 Broyden mixing:
  rms(total) = 0.94260E-03    rms(broyden)= 0.94260E-03
  rms(prec ) = 0.10802E-02
  weight for this iteration     100.00

 eigenvalues of (default mixing * dielectric matrix)
  average eigenvalue GAMMA=   1.0339
  2.1633  1.8681  1.5007  1.1259  0.7737  0.7737  0.5976  0.5976  0.4845  0.4543

 Free energy of the ion-electron system (eV)
  ---------------------------------------------------
  alpha Z        PSCENC =       210.94477089
  Ewald energy   TEWEN  =     -4183.10974681
  -Hartree energ DENC   =      -696.17170050
  -exchange      EXHF   =         0.00000000
  -V(xc)+E(xc)   XCENC  =     -5668.04889195
  PAW double counting   =     21445.89102741   -15536.77214347
  entropy T*S    EENTRO =        -0.00153593
  eigenvalues    EBANDS =        -7.08925946
  atomic energy  EATOM  =      4516.12718286
  Solvation  Ediel_sol  =         0.00000000
  ---------------------------------------------------
  free energy    TOTEN  =        81.76970305 eV

  energy without entropy =       81.77123898  energy(sigma->0) =       81.77047101


--------------------------------------------------------------------------------------------------------




--------------------------------------- Iteration      1(  16)  ---------------------------------------


    POTLOK:  cpu time      0.1450: real time      0.1460
    SETDIJ:  cpu time      0.8646: real time      0.8693
     EDDAV:  cpu time     22.4109: real time     22.5939
       DOS:  cpu time      0.0027: real time      0.0027
    CHARGE:  cpu time      1.2504: real time      1.2580
    MIXING:  cpu time      0.0054: real time      0.0054
    --------------------------------------------
      LOOP:  cpu time     24.6791: real time     24.8754

 eigenvalue-minimisations  : 14224
 total energy-change (2. order) : 0.1085906E-05  (-0.4949133E-06)
 number of electron     191.9999997 magnetization       1.0000000
 augmentation part      -55.5661479 magnetization      -0.1738835

 Broyden mixing:
  rms(total) = 0.40813E-03    rms(broyden)= 0.40812E-03
  rms(prec ) = 0.47710E-03
  weight for this iteration     100.00

 eigenvalues of (default mixing * dielectric matrix)
  average eigenvalue GAMMA=   1.0350
  2.2522  1.9091  1.5447  1.2552  0.8382  0.8382  0.6403  0.6403  0.5388  0.4824
  0.4450

 Free energy of the ion-electron system (eV)
  ---------------------------------------------------
  alpha Z        PSCENC =       210.94477089
  Ewald energy   TEWEN  =     -4183.10974681
  -Hartree energ DENC   =      -696.18198506
  -exchange      EXHF   =         0.00000000
  -V(xc)+E(xc)   XCENC  =     -5668.04816350
  PAW double counting   =     21445.45421981   -15536.33284096
  entropy T*S    EENTRO =        -0.00153486
  eigenvalues    EBANDS =        -7.08219823
  atomic energy  EATOM  =      4516.12718286
  Solvation  Ediel_sol  =         0.00000000
  ---------------------------------------------------
  free energy    TOTEN  =        81.76970413 eV

  energy without entropy =       81.77123899  energy(sigma->0) =       81.77047156


--------------------------------------------------------------------------------------------------------




--------------------------------------- Iteration      1(  17)  ---------------------------------------


    POTLOK:  cpu time      0.1441: real time      0.1460
    SETDIJ:  cpu time      0.8602: real time      0.8648
     EDDAV:  cpu time     23.1303: real time     23.3217
       DOS:  cpu time      0.0026: real time      0.0026
    CHARGE:  cpu time      1.2474: real time      1.2551
    MIXING:  cpu time      0.0062: real time      0.0062
    --------------------------------------------
      LOOP:  cpu time     25.3908: real time     25.5966

 eigenvalue-minimisations  : 14840
 total energy-change (2. order) : 0.9597734E-06  (-0.2108142E-06)
 number of electron     191.9999997 magnetization       1.0000000
 augmentation part      -55.5661267 magnetization      -0.1739115

 Broyden mixing:
  rms(total) = 0.17116E-03    rms(broyden)= 0.17115E-03
  rms(prec ) = 0.19035E-03
  weight for this iteration     100.00

 eigenvalues of (default mixing * dielectric matrix)
  average eigenvalue GAMMA=   1.0385
  2.2653  1.9634  1.5561  1.3482  0.8695  0.8695  0.8469  0.6402  0.6402  0.5440
  0.4776  0.4405

 Free energy of the ion-electron system (eV)
  ---------------------------------------------------
  alpha Z        PSCENC =       210.94477089
  Ewald energy   TEWEN  =     -4183.10974681
  -Hartree energ DENC   =      -696.18644444
  -exchange      EXHF   =         0.00000000
  -V(xc)+E(xc)   XCENC  =     -5668.04785479
  PAW double counting   =     21445.22390274   -15536.10113561
  entropy T*S    EENTRO =        -0.00153452
  eigenvalues    EBANDS =        -7.07943524
  atomic energy  EATOM  =      4516.12718286
  Solvation  Ediel_sol  =         0.00000000
  ---------------------------------------------------
  free energy    TOTEN  =        81.76970509 eV

  energy without entropy =       81.77123961  energy(sigma->0) =       81.77047235


--------------------------------------------------------------------------------------------------------




--------------------------------------- Iteration      1(  18)  ---------------------------------------


    POTLOK:  cpu time      0.1441: real time      0.1465
    SETDIJ:  cpu time      0.8624: real time      0.8671
     EDDAV:  cpu time     19.8930: real time     20.0610
       DOS:  cpu time      0.0028: real time      0.0028
    CHARGE:  cpu time      1.2427: real time      1.2507
    MIXING:  cpu time      0.0059: real time      0.0059
    --------------------------------------------
      LOOP:  cpu time     22.1508: real time     22.3339

 eigenvalue-minimisations  : 12128
 total energy-change (2. order) : 0.5196925E-06  (-0.3897888E-07)
 number of electron     191.9999997 magnetization       1.0000000
 augmentation part      -55.5661238 magnetization      -0.1738880

 Broyden mixing:
  rms(total) = 0.93694E-04    rms(broyden)= 0.93678E-04
  rms(prec ) = 0.10333E-03
  weight for this iteration     100.00

 eigenvalues of (default mixing * dielectric matrix)
  average eigenvalue GAMMA=   1.0216
  2.2194  2.0158  1.6042  1.4290  1.0008  0.8732  0.8732  0.6360  0.6360  0.5392
  0.5392  0.4761  0.4388

 Free energy of the ion-electron system (eV)
  ---------------------------------------------------
  alpha Z        PSCENC =       210.94477089
  Ewald energy   TEWEN  =     -4183.10974681
  -Hartree energ DENC   =      -696.18769246
  -exchange      EXHF   =         0.00000000
  -V(xc)+E(xc)   XCENC  =     -5668.04753732
  PAW double counting   =     21445.00975551   -15535.88626010
  entropy T*S    EENTRO =        -0.00153476
  eigenvalues    EBANDS =        -7.07923218
  atomic energy  EATOM  =      4516.12718286
  Solvation  Ediel_sol  =         0.00000000
  ---------------------------------------------------
  free energy    TOTEN  =        81.76970561 eV

  energy without entropy =       81.77124038  energy(sigma->0) =       81.77047300


--------------------------------------------------------------------------------------------------------




--------------------------------------- Iteration      1(  19)  ---------------------------------------


    POTLOK:  cpu time      0.1437: real time      0.1447
    SETDIJ:  cpu time      0.8648: real time      0.8696
     EDDAV:  cpu time     14.9526: real time     15.0729
       DOS:  cpu time      0.0026: real time      0.0026
    CHARGE:  cpu time      1.2476: real time      1.2550
    MIXING:  cpu time      0.0064: real time      0.0064
    --------------------------------------------
      LOOP:  cpu time     17.2177: real time     17.3511

 eigenvalue-minimisations  :  7904
 total energy-change (2. order) : 0.1003427E-06  (-0.6948392E-08)
 number of electron     191.9999997 magnetization       1.0000000
 augmentation part      -55.5661149 magnetization      -0.1738965

 Broyden mixing:
  rms(total) = 0.38341E-04    rms(broyden)= 0.38302E-04
  rms(prec ) = 0.43575E-04
  weight for this iteration     100.00

 eigenvalues of (default mixing * dielectric matrix)
  average eigenvalue GAMMA=   1.0167
  2.1752  2.0748  1.6949  1.4876  0.8737  0.8737  0.8999  0.8999  0.6485  0.6485
  0.5548  0.4914  0.4733  0.4372

 Free energy of the ion-electron system (eV)
  ---------------------------------------------------
  alpha Z        PSCENC =       210.94477089
  Ewald energy   TEWEN  =     -4183.10974681
  -Hartree energ DENC   =      -696.18895746
  -exchange      EXHF   =         0.00000000
  -V(xc)+E(xc)   XCENC  =     -5668.04732393
  PAW double counting   =     21444.94835914   -15535.82474327
  entropy T*S    EENTRO =        -0.00153479
  eigenvalues    EBANDS =        -7.07830092
  atomic energy  EATOM  =      4516.12718286
  Solvation  Ediel_sol  =         0.00000000
  ---------------------------------------------------
  free energy    TOTEN  =        81.76970571 eV

  energy without entropy =       81.77124050  energy(sigma->0) =       81.77047311


--------------------------------------------------------------------------------------------------------




--------------------------------------- Iteration      1(  20)  ---------------------------------------


    POTLOK:  cpu time      0.1433: real time      0.1449
    SETDIJ:  cpu time      0.8607: real time      0.8654
     EDDAV:  cpu time     14.9310: real time     15.0598
       DOS:  cpu time      0.0027: real time      0.0027
    --------------------------------------------
      LOOP:  cpu time     15.9378: real time     16.0729

 eigenvalue-minimisations  :  7888
 total energy-change (2. order) :-0.4160029E-08  (-0.1670425E-08)
 number of electron     191.9999997 magnetization       1.0000000
 augmentation part      -55.5661149 magnetization      -0.1738965

 Free energy of the ion-electron system (eV)
  ---------------------------------------------------
  alpha Z        PSCENC =       210.94477089
  Ewald energy   TEWEN  =     -4183.10974681
  -Hartree energ DENC   =      -696.18962776
  -exchange      EXHF   =         0.00000000
  -V(xc)+E(xc)   XCENC  =     -5668.04728642
  PAW double counting   =     21444.95104731   -15535.82743385
  entropy T*S    EENTRO =        -0.00153478
  eigenvalues    EBANDS =        -7.07766574
  atomic energy  EATOM  =      4516.12718286
  Solvation  Ediel_sol  =         0.00000000
  ---------------------------------------------------
  free energy    TOTEN  =        81.76970571 eV

  energy without entropy =       81.77124049  energy(sigma->0) =       81.77047310


--------------------------------------------------------------------------------------------------------




 average (electrostatic) potential at core
  the test charge radii are     1.4072
  (the norm of the test charge is              1.0000)
       1 -44.8493       2 -44.2065       3 -48.3048       4 -44.2440       5 -44.0209
       6 -44.0364       7 -59.3560       8 -44.2690       9 -44.3201      10 -44.0511
      11 -44.0433      12 -44.2473      13 -44.3990      14 -44.1896      15 -44.3462
      16 -44.6229      17 -44.1425      18 -49.8756      19 -59.3560      20 -44.2690
      21 -44.3201      22 -44.2440      23 -44.0209      24 -44.0364      25 -44.8493
      26 -44.2065      27 -48.3048      28 -44.6229      29 -44.1425      30 -49.8757
      31 -44.0511      32 -44.0433      33 -44.2473      34 -44.3990      35 -44.1896
      36 -44.3462      37 -50.1339      38 -44.3482      39 -59.7943      40 -50.1339
      41 -44.3482      42 -59.7944      43 -44.3066      44 -48.7798      45 -44.4705
[...]
 total charge-density along one line
 
 pseudopotential strength for first ion, spin component:           1
 27.775 -22.064  -0.019  -0.132   0.200  -0.028  -0.203   0.308
-22.064  27.437   0.001   0.042  -0.070   0.002   0.071  -0.119
 -0.019   0.001   5.929   0.012  -0.035   9.169   0.018  -0.052
 -0.132   0.042   0.012   5.929  -0.046   0.018   9.169  -0.067
  0.200  -0.070  -0.035  -0.046   5.971  -0.052  -0.067   9.231
 -0.028   0.002   9.169   0.018  -0.052  14.247   0.027  -0.078
 -0.203   0.071   0.018   9.169  -0.067   0.027  14.248  -0.100
  0.308  -0.119  -0.052  -0.067   9.231  -0.078  -0.100  14.339
 -0.066   0.017   0.063   0.013  -0.029   0.094   0.019  -0.042
  0.024  -0.006  -0.052  -0.010   0.013  -0.077  -0.015   0.019
 -0.021   0.007   0.004  -0.036  -0.032   0.006  -0.054  -0.049
 -0.086   0.021   0.013   0.077  -0.066   0.019   0.114  -0.099
  0.039  -0.011  -0.012  -0.007   0.070  -0.017  -0.011   0.105
 pseudopotential strength for first ion, spin component:           2
 27.772 -22.064  -0.019  -0.133   0.200  -0.028  -0.204   0.309
-22.064  27.437   0.001   0.042  -0.070   0.001   0.071  -0.119
 -0.019   0.001   5.928   0.012  -0.035   9.167   0.018  -0.052
 -0.133   0.042   0.012   5.928  -0.046   0.018   9.168  -0.067
  0.200  -0.070  -0.035  -0.046   5.970  -0.052  -0.067   9.229
 -0.028   0.001   9.167   0.018  -0.052  14.245   0.027  -0.078
 -0.204   0.071   0.018   9.168  -0.067   0.027  14.245  -0.100
  0.309  -0.119  -0.052  -0.067   9.229  -0.078  -0.100  14.337
 -0.066   0.017   0.063   0.013  -0.029   0.095   0.019  -0.042
  0.024  -0.006  -0.052  -0.010   0.013  -0.077  -0.015   0.019
 -0.021   0.007   0.004  -0.036  -0.032   0.006  -0.054  -0.049
 -0.086   0.021   0.013   0.077  -0.067   0.019   0.115  -0.099
  0.040  -0.011  -0.012  -0.007   0.070  -0.017  -0.011   0.105
 total augmentation occupancy for first ion, spin component:           1
  1.923   0.058  -0.074  -0.193   0.207   0.015   0.059  -0.075  -0.070   0.015  -0.003  -0.093   0.035
  0.058   0.016   0.007  -0.053   0.079  -0.001   0.024  -0.029  -0.014   0.003  -0.010  -0.017   0.009
 -0.074   0.007   3.551   0.109  -0.606  -1.025  -0.031   0.250   0.177  -0.282  -0.015  -0.013  -0.140
 -0.193  -0.053   0.109   3.518  -0.816  -0.034  -0.979   0.321  -0.032  -0.015  -0.109   0.320   0.070
  0.207   0.079  -0.606  -0.816   4.192   0.258   0.331  -1.299  -0.117  -0.030  -0.076  -0.146   0.244
  0.015  -0.001  -1.025  -0.034   0.258   0.339   0.013  -0.101  -0.046   0.091   0.000   0.006   0.043
  0.059   0.024  -0.031  -0.979   0.331   0.013   0.317  -0.131   0.013   0.001   0.032  -0.092  -0.020
 -0.075  -0.029   0.250   0.321  -1.299  -0.101  -0.131   0.446   0.038   0.009   0.019   0.051  -0.075
 -0.070  -0.014   0.177  -0.032  -0.117  -0.046   0.013   0.038   0.154  -0.051   0.023   0.017  -0.013
  0.015   0.003  -0.282  -0.015  -0.030   0.091   0.001   0.009  -0.051   0.099  -0.004  -0.036   0.005
 -0.003  -0.010  -0.015  -0.109  -0.076   0.000   0.032   0.019   0.023  -0.004   0.079  -0.012   0.000
 -0.093  -0.017  -0.013   0.320  -0.146   0.006  -0.092   0.051   0.017  -0.036  -0.012   0.168  -0.040
  0.035   0.009  -0.140   0.070   0.244   0.043  -0.020  -0.075  -0.013   0.005   0.000  -0.040   0.137
 total augmentation occupancy for first ion, spin component:           2
  0.004  -0.001  -0.000   0.002  -0.003  -0.000  -0.000   0.000  -0.000   0.000   0.000   0.000  -0.001
 -0.001   0.000   0.000  -0.000   0.001  -0.000   0.000  -0.000   0.000   0.000  -0.000  -0.000   0.000
 -0.000   0.000   0.007   0.002   0.001  -0.001  -0.000  -0.000   0.000   0.001  -0.000  -0.000  -0.001
  0.002  -0.000   0.002   0.007  -0.000  -0.000  -0.001   0.000   0.000   0.001   0.002  -0.001  -0.001
 -0.003   0.001   0.001  -0.000   0.007  -0.000   0.000  -0.001   0.000   0.000   0.000  -0.000   0.001
 -0.000  -0.000  -0.001  -0.000  -0.000   0.000   0.000  -0.000   0.000  -0.000   0.000   0.000   0.000
 -0.000   0.000  -0.000  -0.001   0.000   0.000   0.000  -0.000   0.000  -0.000  -0.000   0.000   0.000
  0.000  -0.000  -0.000   0.000  -0.001  -0.000  -0.000   0.000  -0.000   0.000  -0.000  -0.000  -0.000
 -0.000   0.000   0.000   0.000   0.000   0.000   0.000  -0.000   0.001  -0.000  -0.000  -0.000   0.000
  0.000   0.000   0.001   0.001   0.000  -0.000  -0.000   0.000  -0.000   0.001   0.000  -0.001  -0.000
  0.000  -0.000  -0.000   0.002   0.000   0.000  -0.000  -0.000  -0.000   0.000   0.001  -0.000   0.000
  0.000  -0.000  -0.000  -0.001  -0.000   0.000   0.000  -0.000  -0.000  -0.001  -0.000   0.002  -0.001
 -0.001   0.000  -0.001  -0.001   0.001   0.000   0.000  -0.000   0.000  -0.000   0.000  -0.001   0.001


------------------------ aborting loop because EDIFF is reached ----------------------------------------


    CHARGE:  cpu time      1.2529: real time      1.2604
    FORLOC:  cpu time      0.0131: real time      0.0131
    FORNL :  cpu time      7.0898: real time      7.1448
    STRESS:  cpu time     21.6624: real time     21.8450
    FORCOR:  cpu time      0.1474: real time      0.1483
    FORHAR:  cpu time      0.0255: real time      0.0257
    MIXING:  cpu time      0.0061: real time      0.0061
    OFIELD:  cpu time      0.0000: real time      0.0000

  FORCE on cell =-STRESS in cart. coord.  units (eV):
  Direction    XX          YY          ZZ          XY          YZ          ZX
  --------------------------------------------------------------------------------------
  Alpha Z   210.94477   210.94477   210.94477
  Ewald   -1145.05336 -1469.56346 -1568.51922  -226.75141   119.10425  -415.21621
  Hartree   312.18280   390.85408    -6.84604    28.72504    35.94973  -103.64490
  E(xc)    -947.34270  -922.73035  -944.23325    23.14338    -8.11314    26.33260
  Local   -1182.58023 -1161.81228  -415.74303    23.93076   -94.81624   304.70711
  n-local  2487.36417  2413.11566  2510.62273   -54.04203     0.43986   -58.54928
  augment  -578.12473  -613.53394  -553.05338   -24.49895     5.60075   -34.07291
  Kinetic  1379.93856  1421.74143  1372.74809    19.21051     2.14804    11.72473
  Fock        0.00000     0.00000     0.00000     0.00000     0.00000     0.00000
  -------------------------------------------------------------------------------------
  Total     537.32927   269.01590   605.92068  -210.28269    60.31326  -268.71886
  in kB     630.09726   315.46053   710.53072  -246.58725    70.72613  -315.11222
  external pressure =      552.03 kB  Pullay stress =        0.00 kB


 VOLUME and BASIS-vectors are now :
 -----------------------------------------------------------------------------
  energy-cutoff  :      700.00
  volume of cell :     1366.29
      direct lattice vectors                 reciprocal lattice vectors
    14.510292053  0.000000000  0.000000000     0.068916600  0.091888801  0.000000000
   -11.608234406  8.706175804  0.000000000     0.000000000  0.114860993  0.000000000
     0.000000000  0.000000000 10.815333366     0.000000000  0.000000000  0.092461320

  length of vectors
    14.510292053 14.510293007 10.815333366     0.114861001  0.114860993  0.092461320


 FORCES acting on ions
    electron-ion (+dipol)            ewald-force                    non-local-force                 convergence-correction
 -----------------------------------------------------------------------------------------------
   0.115E+02 0.172E+01 -.452E+02   -.147E+02 -.146E+01 0.467E+02   -.703E+01 0.223E+01 0.663E+01   -.422E-04 0.123E-04 0.515E-04
   -.757E+01 0.209E+01 -.867E+01   0.742E+01 -.258E+01 0.888E+01   0.119E+00 0.453E+00 -.212E-01   0.390E-04 -.213E-04 0.884E-05
   -.187E+02 0.227E+01 0.735E+02   0.290E+02 -.382E+00 -.105E+03   0.918E+01 0.272E+01 -.305E+02   0.819E-04 -.252E-04 -.260E-04
   -.288E+02 0.884E+01 -.504E+02   0.295E+02 -.933E+01 0.503E+02   0.108E+01 0.159E+00 0.135E+01   0.108E-03 -.333E-04 0.303E-04
   -.212E+01 0.701E+00 -.229E+01   0.224E+01 -.764E+00 0.213E+01   -.997E-01 0.399E-01 0.206E+00   0.207E-04 -.366E-05 -.282E-04
   0.182E+00 -.274E-01 0.190E+02   -.164E+00 0.846E-01 -.184E+02   0.825E-01 0.185E-01 -.899E+00   -.551E-04 0.198E-04 0.251E-04
   0.479E+02 -.188E+02 -.890E+01   -.133E+03 0.748E+02 0.565E+02   -.251E+02 0.152E+02 0.132E+02   -.631E-04 0.248E-04 -.553E-05
   0.929E+01 -.374E+01 -.329E+02   -.941E+01 0.366E+01 0.331E+02   -.250E-01 0.153E+00 0.676E+00   -.590E-04 0.224E-04 -.912E-05
   0.172E+02 -.474E+01 0.416E+02   -.176E+02 0.471E+01 -.421E+02   0.276E+00 -.279E-01 -.168E-01   -.265E-04 0.647E-05 -.498E-04
   0.194E+01 -.575E+00 -.183E+02   -.191E+01 0.646E+00 0.179E+02   0.370E+00 -.258E+00 0.339E+00   0.426E-04 -.136E-04 -.246E-04
   0.263E+01 -.104E+01 0.200E+01   -.280E+01 0.950E+00 -.177E+01   0.944E-01 0.932E-01 -.237E+00   -.349E-04 0.114E-04 0.270E-05
   0.175E+02 -.580E+01 0.509E+02   -.177E+02 0.582E+01 -.515E+02   0.189E+01 -.169E+00 -.200E+01   -.117E-03 0.387E-04 0.809E-06
   -.170E+02 0.466E+01 -.469E+02   0.179E+02 -.460E+01 0.482E+02   -.410E+00 0.208E-02 0.646E+00   0.514E-04 -.172E-04 0.428E-04
   -.889E+01 0.409E+01 0.306E+02   0.921E+01 -.352E+01 -.305E+02   -.266E+00 -.754E+00 -.660E+00   0.441E-04 -.212E-04 -.276E-04
   -.493E+02 0.237E+02 0.741E+01   0.499E+02 -.252E+02 -.686E+01   0.423E+01 -.445E+01 -.910E+00   0.689E-04 -.225E-04 0.293E-04
   0.754E+01 0.144E+01 -.681E+02   -.766E+01 -.186E+01 0.695E+02   0.187E+01 -.158E+01 0.613E+01   -.905E-04 0.308E-04 0.556E-05
   0.722E+01 -.208E+01 0.101E+02   -.700E+01 0.244E+01 -.978E+01   -.222E+00 -.363E+00 -.436E+00   -.108E-04 0.899E-05 -.329E-04
   0.154E+02 -.129E+02 0.512E+02   -.202E+02 0.227E+02 -.806E+02   -.110E+02 0.121E+02 -.292E+02   0.530E-04 -.181E-04 -.193E-04
   0.479E+02 -.188E+02 -.890E+01   -.133E+03 0.748E+02 0.565E+02   -.251E+02 0.152E+02 0.132E+02   -.554E-04 0.222E-04 -.695E-05
   0.929E+01 -.374E+01 -.329E+02   -.941E+01 0.366E+01 0.331E+02   -.250E-01 0.153E+00 0.676E+00   -.607E-04 0.171E-04 -.101E-04
   0.172E+02 -.474E+01 0.416E+02   -.176E+02 0.471E+01 -.421E+02   0.276E+00 -.279E-01 -.168E-01   -.311E-04 0.998E-05 -.566E-04
   -.288E+02 0.884E+01 -.504E+02   0.295E+02 -.933E+01 0.503E+02   0.108E+01 0.159E+00 0.135E+01   0.973E-04 -.317E-04 0.243E-04
   -.212E+01 0.701E+00 -.229E+01   0.224E+01 -.764E+00 0.213E+01   -.997E-01 0.399E-01 0.206E+00   0.197E-04 -.111E-04 -.281E-04
   0.182E+00 -.274E-01 0.190E+02   -.164E+00 0.846E-01 -.184E+02   0.825E-01 0.185E-01 -.899E+00   -.509E-04 0.167E-04 0.264E-04
   0.115E+02 0.172E+01 -.452E+02   -.147E+02 -.146E+01 0.467E+02   -.703E+01 0.223E+01 0.663E+01   -.509E-04 0.166E-04 0.572E-04
   -.757E+01 0.209E+01 -.867E+01   0.742E+01 -.258E+01 0.888E+01   0.119E+00 0.453E+00 -.212E-01   0.439E-04 -.658E-05 0.936E-05
   -.187E+02 0.227E+01 0.735E+02   0.290E+02 -.382E+00 -.105E+03   0.918E+01 0.272E+01 -.305E+02   0.768E-04 -.258E-04 -.157E-04
   0.754E+01 0.144E+01 -.681E+02   -.766E+01 -.186E+01 0.695E+02   0.187E+01 -.158E+01 0.613E+01   -.863E-04 0.285E-04 0.505E-06
   0.722E+01 -.208E+01 0.101E+02   -.700E+01 0.244E+01 -.978E+01   -.222E+00 -.363E+00 -.436E+00   -.135E-04 -.473E-06 -.329E-04
   0.154E+02 -.129E+02 0.512E+02   -.202E+02 0.227E+02 -.806E+02   -.110E+02 0.121E+02 -.292E+02   0.504E-04 -.149E-04 -.304E-04
   0.194E+01 -.575E+00 -.183E+02   -.191E+01 0.646E+00 0.179E+02   0.370E+00 -.258E+00 0.339E+00   0.348E-04 -.112E-04 -.273E-04
   0.263E+01 -.104E+01 0.200E+01   -.280E+01 0.950E+00 -.177E+01   0.944E-01 0.932E-01 -.237E+00   -.344E-04 0.109E-04 0.249E-05
   0.175E+02 -.580E+01 0.509E+02   -.177E+02 0.582E+01 -.514E+02   0.189E+01 -.169E+00 -.200E+01   -.112E-03 0.364E-04 0.468E-05
   -.170E+02 0.466E+01 -.469E+02   0.179E+02 -.460E+01 0.482E+02   -.410E+00 0.208E-02 0.646E+00   0.492E-04 -.152E-04 0.548E-04
   -.889E+01 0.409E+01 0.306E+02   0.921E+01 -.352E+01 -.305E+02   -.266E+00 -.754E+00 -.660E+00   0.479E-04 -.916E-05 -.272E-04
   -.493E+02 0.237E+02 0.741E+01   0.499E+02 -.252E+02 -.686E+01   0.423E+01 -.445E+01 -.910E+00   0.569E-04 -.192E-04 0.301E-04
   -.182E+02 0.199E+02 0.379E+01   0.219E+02 -.301E+02 0.267E+02   0.915E+01 -.120E+02 0.257E+02   0.110E-03 -.444E-04 -.893E-06
   0.771E+01 -.149E+02 0.255E+02   -.753E+01 0.161E+02 -.279E+02   -.400E+00 0.170E+01 -.403E+00   -.307E-04 -.451E-06 0.827E-05
   0.443E+02 -.343E+01 0.186E+02   0.381E+02 -.515E+02 -.665E+02   0.199E+02 -.152E+02 -.154E+02   -.116E-03 0.419E-04 0.162E-04
   -.182E+02 0.199E+02 0.379E+01   0.219E+02 -.301E+02 0.267E+02   0.915E+01 -.120E+02 0.257E+02   0.106E-03 -.371E-04 0.683E-05
   0.771E+01 -.149E+02 0.255E+02   -.753E+01 0.161E+02 -.279E+02   -.400E+00 0.170E+01 -.403E+00   -.221E-04 0.281E-04 0.773E-05
   0.443E+02 -.343E+01 0.186E+02   0.381E+02 -.515E+02 -.665E+02   0.199E+02 -.152E+02 -.154E+02   -.123E-03 0.423E-04 0.166E-04
   -.400E+02 -.201E+01 -.191E+02   0.396E+02 0.323E+01 0.186E+02   0.106E+01 0.387E+01 0.331E+01   0.993E-04 -.430E-04 0.178E-04
   -.134E+02 0.175E+02 -.272E+02   0.596E+01 -.219E+02 0.555E+02   -.298E+01 -.575E+01 0.250E+02   0.524E-04 -.181E-04 0.281E-04
   0.100E+02 -.169E+02 -.764E+01   -.105E+02 0.180E+02 0.704E+01   0.199E+01 0.190E+01 -.116E+01   -.106E-03 0.434E-04 0.299E-04
   -.400E+02 -.201E+01 -.191E+02   0.396E+02 0.323E+01 0.186E+02   0.106E+01 0.387E+01 0.331E+01   0.109E-03 -.212E-04 0.175E-04
   -.134E+02 0.175E+02 -.272E+02   0.596E+01 -.219E+02 0.555E+02   -.298E+01 -.575E+01 0.250E+02   0.454E-04 -.214E-04 0.286E-04
   0.100E+02 -.169E+02 -.764E+01   -.105E+02 0.180E+02 0.704E+01   0.199E+01 0.190E+01 -.116E+01   -.110E-03 0.280E-04 0.293E-04
 -----------------------------------------------------------------------------------------------
   -.738E+01 -.266E+00 -.281E+01   0.179E-12 0.114E-12 -.409E-13   0.748E+01 0.292E+00 0.280E+01   0.596E-05 0.108E-04 0.154E-03
 
 
 POSITION                                       TOTAL-FORCE (eV/Angst)
 -----------------------------------------------------------------------------------
     -2.81561      5.84734      0.00000       -10.253778      2.484090      8.223894
      0.08645      7.29837      3.24460        -0.031882     -0.036549      0.194033
      0.08645      0.04323      6.48920        19.470453      4.606176    -62.315047
      0.08645      0.04323      0.00000         1.797850     -0.331873      1.314377
      2.98851      1.49426      3.24460         0.014190     -0.023355      0.038574
      5.89056      2.94528      6.48920         0.098243      0.075156     -0.280203
      5.89057      2.94528      0.00000      -110.695916     71.229461     60.781668
     -5.71767      4.39631      3.24460        -0.149139      0.070817      0.865571
     -2.81561      5.84734      6.48920        -0.098487     -0.053845     -0.539996
     -9.34524      8.02389      1.62230         0.397545     -0.187044     -0.104637
      5.16505      0.76874      4.86690        -0.072868      0.006472     -0.003365
      8.06711      2.21977      8.11150         1.641905     -0.149838     -2.582580
     -0.63906      5.12183      1.62230         0.521368      0.062278      2.024157
      2.26299      6.57286      4.86690         0.056201     -0.180751     -0.513154
     -9.34524      8.02389      8.11150         4.882277     -6.005903     -0.364430
      8.06711      2.21977      1.62230         1.744283     -1.995370      7.453252
     -3.54112      3.67080      4.86690        -0.007294     -0.006462     -0.101352
     -0.63907      5.12183      8.11150       -15.884264     21.897005    -58.583877
     -7.16870      7.29837      0.00000      -110.695916     71.229461     60.781668
      7.34160      0.04323      3.24460        -0.149139      0.070817      0.865571
     10.24365      1.49425      6.48920        -0.098487     -0.053845     -0.539996
      1.53748      4.39631      0.00000         1.797850     -0.331873      1.314377
      4.43954      5.84734      3.24460         0.014190     -0.023355      0.038574
     -7.16870      7.29837      6.48920         0.098243      0.075156     -0.280203
     10.24366      1.49425      0.00000       -10.253778      2.484090      8.223894
     -1.36458      2.94528      3.24460        -0.031882     -0.036549      0.194033
      1.53748      4.39631      6.48920        19.470453      4.606176    -62.315047
     -4.99215      6.57286      1.62230         1.744283     -1.995370      7.453252
     -2.09009      8.02389      4.86690        -0.007294     -0.006462     -0.101352
     12.42020      0.76874      8.11150       -15.884264     21.897005    -58.583877
      3.71402      3.67080      1.62230         0.397545     -0.187044     -0.104637
      6.61608      5.12183      4.86690        -0.072868      0.006472     -0.003365
     -4.99215      6.57286      8.11150         1.641905     -0.149838     -2.582580
     12.42020      0.76874      1.62230         0.521368      0.062278      2.024157
      0.81196      2.21977      4.86690         0.056201     -0.180751     -0.513154
      3.71402      3.67080      8.11150         4.882277     -6.005903     -0.364430
      2.48618      8.61376      8.11150        12.875642    -22.186079     56.195838
     -1.86691      7.64640      9.19303        -0.229189      2.828742     -2.802659
     -6.22000      6.67905     10.27457       102.326758    -70.094940    -63.299135
      1.03515      4.26067      8.11150        12.875642    -22.186079     56.195838
     -3.31794      3.29332      9.19303        -0.229189      2.828742     -2.802659
      6.83926      2.32596     10.27457       102.326758    -70.094940    -63.299135
      3.21169      5.95354      8.65227         0.598278      5.088422      2.837948
     -1.14140      4.98618      9.73380       -10.451726    -10.144241     53.321310
      9.01581      4.01883      0.00000         1.449552      3.047630     -1.760186
      1.76066      1.60045      8.65227         0.598278      5.088422      2.837948
     11.91787      0.63310      9.73380       -10.451726    -10.144241     53.321310
     -4.04346      8.37192      0.00000         1.449552      3.047630     -1.760186
 -----------------------------------------------------------------------------------
    total drift:                                0.097197      0.026768     -0.013172


--------------------------------------------------------------------------------------------------------



  FREE ENERGIE OF THE ION-ELECTRON SYSTEM (eV)
  ---------------------------------------------------
  free  energy   TOTEN  =        81.76970571 eV

  energy  without entropy=       81.77124049  energy(sigma->0) =       81.77047310
 


--------------------------------------------------------------------------------------------------------


    POTLOK:  cpu time      1.0073: real time      1.0127


--------------------------------------------------------------------------------------------------------


     LOOP+:  cpu time    515.3113: real time    519.8214
    4ORBIT:  cpu time      0.0000: real time      0.0000

 total amount of memory used by VASP MPI-rank0   149284. kBytes
=======================================================================

   base      :      30000. kBytes
   nonlr-proj:       9197. kBytes
   fftplans  :      13100. kBytes
   grid      :       9114. kBytes
   one-center:         48. kBytes
   wavefun   :      87825. kBytes
 
  
  
 General timing and accounting informations for this job:
 ========================================================
  
                  Total CPU time used (sec):      561.066
                            User time (sec):      518.090
                          System time (sec):       42.976
                         Elapsed time (sec):      567.088
  
                   Maximum memory used (kb):      452548.
                   Average memory used (kb):          N/A
  
                          Minor page faults:       207646
                          Major page faults:           30
                 Voluntary context switches:         1500
