 228 228   0   0
  0.2256881E+02  0.1697340E-08  0.1697340E-08  0.1786100E-08  0.5000000E-15
  1.000000000000000E-004
  CAR 
 Si and Ge interface calculation         
      7.15834811     -8.86550320  301      4.30537039      1.00000000
     -8.866  0.0000E+00  0.0000E+00  0.0000E+00  0.0000E+00
     -8.812  0.0000E+00  0.0000E+00  0.0000E+00  0.0000E+00
     -8.759  0.0000E+00  0.0000E+00  0.0000E+00  0.0000E+00
     -8.705  0.0000E+00  0.0000E+00  0.0000E+00  0.0000E+00
     -8.652  0.0000E+00  0.0000E+00  0.0000E+00  0.0000E+00
     -8.598  0.0000E+00  0.0000E+00  0.0000E+00  0.0000E+00
     -8.545  0.0000E+00  0.0000E+00  0.0000E+00  0.0000E+00
     -8.492  0.0000E+00  0.0000E+00  0.0000E+00  0.0000E+00
     -8.438  0.0000E+00  0.0000E+00  0.0000E+00  0.0000E+00
     -8.385  0.0000E+00  0.0000E+00  0.0000E+00  0.0000E+00
     -8.331  0.0000E+00  0.0000E+00  0.0000E+00  0.0000E+00
     -8.278  0.0000E+00  0.0000E+00  0.0000E+00  0.0000E+00
     -8.225  0.0000E+00  0.0000E+00  0.0000E+00  0.0000E+00
     -8.171  0.3590E-05  0.6629E-06  0.1918E-06  0.3541E-07
     -8.118  0.9028E+01  0.8760E+01  0.4822E+00  0.4679E+00
     -8.064  0.3332E+00  0.6013E+00  0.5000E+00  0.5000E+00
     -8.011  0.3595E+02  0.3482E+02  0.2420E+01  0.2360E+01
     -7.957  0.5968E+01  0.6485E+01  0.2739E+01  0.2706E+01
     -7.904  0.1814E+02  0.1758E+02  0.3708E+01  0.3645E+01
     -7.851  0.1484E+02  0.1600E+02  0.4500E+01  0.4500E+01
     -7.797  0.6217E-08  0.1519E-08  0.4500E+01  0.4500E+01
     -7.744  0.8441E+01  0.7089E+01  0.4951E+01  0.4879E+01
     -7.690  0.1680E+02  0.1722E+02  0.5848E+01  0.5798E+01
     -7.637  0.3578E+02  0.3288E+02  0.7759E+01  0.7555E+01
     -7.584  0.7836E+02  0.8007E+02  0.1194E+02  0.1183E+02
     -7.530  0.2982E+02  0.3154E+02  0.1354E+02  0.1352E+02
     -7.477  0.8934E+01  0.9165E+01  0.1402E+02  0.1401E+02
     -7.423  0.1735E+02  0.1682E+02  0.1494E+02  0.1490E+02
     -7.370  0.7079E+01  0.7018E+01  0.1532E+02  0.1528E+02
     -7.317  0.1813E+02  0.1849E+02  0.1629E+02  0.1627E+02
     -7.263  0.5988E+02  0.5973E+02  0.1949E+02  0.1946E+02
     -7.210  0.3344E+02  0.3130E+02  0.2127E+02  0.2113E+02
     -7.156  0.8015E+02  0.8037E+02  0.2555E+02  0.2542E+02
     -7.103  0.5262E+02  0.5280E+02  0.2836E+02  0.2824E+02
     -7.049  0.5712E+02  0.5379E+02  0.3142E+02  0.3111E+02
     -6.996  0.3398E+02  0.3934E+02  0.3323E+02  0.3322E+02
     -6.943  0.9748E+01  0.9901E+01  0.3375E+02  0.3374E+02
     -6.889  0.6141E+02  0.5715E+02  0.3703E+02  0.3680E+02
     -6.836  0.6568E+02  0.6302E+02  0.4054E+02  0.4016E+02
     -6.782  0.6893E+02  0.7416E+02  0.4422E+02  0.4412E+02
     -6.729  0.3119E+02  0.3102E+02  0.4589E+02  0.4578E+02
     -6.676  0.8281E+02  0.8032E+02  0.5031E+02  0.5007E+02
     -6.622  0.4368E+02  0.4688E+02  0.5264E+02  0.5258E+02
     -6.569  0.5210E+02  0.4957E+02  0.5543E+02  0.5522E+02
     -6.515  0.6240E+02  0.6182E+02  0.5876E+02  0.5853E+02
     -6.462  0.8463E+02  0.7970E+02  0.6328E+02  0.6278E+02
     -6.409  0.8639E+02  0.9204E+02  0.6789E+02  0.6770E+02
     -6.355  0.8562E+02  0.8661E+02  0.7247E+02  0.7232E+02
     -6.302  0.1001E+03  0.9952E+02  0.7781E+02  0.7764E+02
     -6.248  0.8182E+02  0.8231E+02  0.8218E+02  0.8204E+02
     -6.195  0.8264E+02  0.8068E+02  0.8660E+02  0.8635E+02
     -6.141  0.7094E+02  0.7307E+02  0.9039E+02  0.9025E+02
     -6.088  0.3882E+02  0.3980E+02  0.9246E+02  0.9237E+02
     -6.035  0.6924E+02  0.6662E+02  0.9616E+02  0.9593E+02
     -5.981  0.8996E+02  0.8751E+02  0.1010E+03  0.1006E+03
     -5.928  0.6488E+02  0.6855E+02  0.1044E+03  0.1043E+03
     -5.874  0.4944E+02  0.4904E+02  0.1071E+03  0.1069E+03
     -5.821  0.7124E+02  0.6930E+02  0.1109E+03  0.1106E+03
     -5.768  0.7879E+02  0.8007E+02  0.1151E+03  0.1149E+03
     -5.714  0.7752E+02  0.7620E+02  0.1192E+03  0.1189E+03
     -5.661  0.9858E+02  0.9975E+02  0.1245E+03  0.1243E+03
     -5.607  0.4025E+02  0.4266E+02  0.1266E+03  0.1265E+03
     -5.554  0.1003E+03  0.9298E+02  0.1320E+03  0.1315E+03
     -5.500  0.1099E+03  0.1145E+03  0.1379E+03  0.1376E+03
     -5.447  0.8216E+02  0.8028E+02  0.1423E+03  0.1419E+03
     -5.394  0.4582E+02  0.4986E+02  0.1447E+03  0.1446E+03
     -5.340  0.5290E+02  0.5287E+02  0.1475E+03  0.1474E+03
     -5.287  0.8943E+02  0.8776E+02  0.1523E+03  0.1521E+03
     -5.233  0.8900E+02  0.8531E+02  0.1571E+03  0.1566E+03
     -5.180  0.9518E+02  0.9573E+02  0.1621E+03  0.1618E+03
     -5.127  0.5527E+02  0.5724E+02  0.1651E+03  0.1648E+03
     -5.073  0.6471E+02  0.6643E+02  0.1686E+03  0.1684E+03
     -5.020  0.6131E+02  0.5966E+02  0.1718E+03  0.1715E+03
     -4.966  0.6822E+02  0.6716E+02  0.1755E+03  0.1751E+03
     -4.913  0.8040E+02  0.7856E+02  0.1798E+03  0.1793E+03
     -4.860  0.6612E+02  0.7198E+02  0.1833E+03  0.1832E+03
     -4.806  0.4756E+02  0.4522E+02  0.1858E+03  0.1856E+03
     -4.753  0.4793E+02  0.4984E+02  0.1884E+03  0.1883E+03
     -4.699  0.6206E+02  0.5909E+02  0.1917E+03  0.1914E+03
     -4.646  0.6193E+02  0.6618E+02  0.1950E+03  0.1949E+03
     -4.592  0.4865E+02  0.4593E+02  0.1976E+03  0.1974E+03
     -4.539  0.5968E+02  0.6100E+02  0.2008E+03  0.2007E+03
     -4.486  0.6840E+02  0.6736E+02  0.2045E+03  0.2043E+03
     -4.432  0.6168E+02  0.6186E+02  0.2078E+03  0.2076E+03
     -4.379  0.6149E+02  0.6148E+02  0.2110E+03  0.2108E+03
     -4.325  0.5799E+02  0.5790E+02  0.2141E+03  0.2139E+03
     -4.272  0.1639E+02  0.1995E+02  0.2150E+03  0.2150E+03
     -4.219  0.3762E+02  0.3612E+02  0.2170E+03  0.2169E+03
     -4.165  0.5134E+02  0.5020E+02  0.2198E+03  0.2196E+03
     -4.112  0.4069E+02  0.4182E+02  0.2219E+03  0.2218E+03
     -4.058  0.1989E+02  0.2151E+02  0.2230E+03  0.2230E+03
     -4.005  0.4846E+02  0.4276E+02  0.2256E+03  0.2253E+03
     -3.952  0.6949E+02  0.7077E+02  0.2293E+03  0.2291E+03
     -3.898  0.2322E+02  0.2725E+02  0.2305E+03  0.2305E+03
     -3.845  0.3886E+02  0.3530E+02  0.2326E+03  0.2324E+03
     -3.791  0.3328E+02  0.3255E+02  0.2344E+03  0.2341E+03
     -3.738  0.4371E+02  0.4780E+02  0.2367E+03  0.2367E+03
     -3.684  0.1924E+02  0.1917E+02  0.2378E+03  0.2377E+03
     -3.631  0.3642E+02  0.3367E+02  0.2397E+03  0.2395E+03
     -3.578  0.4595E+02  0.4599E+02  0.2422E+03  0.2420E+03
     -3.524  0.1976E+02  0.2081E+02  0.2432E+03  0.2431E+03
     -3.471  0.7256E+02  0.6426E+02  0.2471E+03  0.2465E+03
     -3.417  0.1117E+03  0.1163E+03  0.2531E+03  0.2527E+03
     -3.364  0.8964E+02  0.8865E+02  0.2578E+03  0.2575E+03
     -3.311  0.5354E+02  0.5642E+02  0.2607E+03  0.2605E+03
     -3.257  0.9891E+02  0.9727E+02  0.2660E+03  0.2657E+03
     -3.204  0.7047E+02  0.6846E+02  0.2697E+03  0.2693E+03
     -3.150  0.9262E+02  0.9078E+02  0.2747E+03  0.2742E+03
     -3.097  0.6724E+02  0.7246E+02  0.2783E+03  0.2780E+03
     -3.044  0.8883E+02  0.8765E+02  0.2830E+03  0.2827E+03
     -2.990  0.7806E+02  0.7837E+02  0.2872E+03  0.2869E+03
     -2.937  0.6061E+02  0.6113E+02  0.2904E+03  0.2902E+03
     -2.883  0.8638E+02  0.8629E+02  0.2951E+03  0.2948E+03
     -2.830  0.5371E+02  0.5431E+02  0.2979E+03  0.2977E+03
     -2.776  0.6968E+02  0.6667E+02  0.3016E+03  0.3012E+03
     -2.723  0.9038E+02  0.9437E+02  0.3065E+03  0.3063E+03
     -2.670  0.6088E+02  0.6124E+02  0.3097E+03  0.3096E+03
     -2.616  0.7257E+02  0.7241E+02  0.3136E+03  0.3134E+03
     -2.563  0.6050E+02  0.6089E+02  0.3168E+03  0.3167E+03
     -2.509  0.5171E+02  0.4819E+02  0.3196E+03  0.3193E+03
     -2.456  0.7728E+02  0.7855E+02  0.3237E+03  0.3234E+03
     -2.403  0.6265E+02  0.6505E+02  0.3271E+03  0.3269E+03
     -2.349  0.7554E+02  0.7286E+02  0.3311E+03  0.3308E+03
     -2.296  0.1091E+03  0.1099E+03  0.3369E+03  0.3367E+03
     -2.242  0.7203E+02  0.6954E+02  0.3408E+03  0.3404E+03
     -2.189  0.9813E+02  0.9812E+02  0.3460E+03  0.3456E+03
     -2.135  0.5071E+02  0.5673E+02  0.3487E+03  0.3487E+03
     -2.082  0.6132E+02  0.5726E+02  0.3520E+03  0.3517E+03
     -2.029  0.5525E+02  0.5759E+02  0.3550E+03  0.3548E+03
     -1.975  0.5266E+02  0.4978E+02  0.3578E+03  0.3575E+03
     -1.922  0.7647E+02  0.7497E+02  0.3619E+03  0.3615E+03
     -1.868  0.9610E+02  0.9755E+02  0.3670E+03  0.3667E+03
     -1.815  0.3525E+02  0.3927E+02  0.3689E+03  0.3688E+03
     -1.762  0.3899E+02  0.3856E+02  0.3709E+03  0.3708E+03
     -1.708  0.2951E+02  0.3077E+02  0.3725E+03  0.3725E+03
     -1.655  0.8153E+02  0.7943E+02  0.3769E+03  0.3767E+03
     -1.601  0.3325E+02  0.3415E+02  0.3787E+03  0.3785E+03
     -1.548  0.5129E+02  0.4881E+02  0.3814E+03  0.3812E+03
     -1.495  0.3784E+02  0.4054E+02  0.3834E+03  0.3833E+03
     -1.441  0.3626E+02  0.3403E+02  0.3854E+03  0.3851E+03
     -1.388  0.3751E+02  0.3847E+02  0.3874E+03  0.3872E+03
     -1.334  0.2270E+02  0.2304E+02  0.3886E+03  0.3884E+03
     -1.281  0.4614E+02  0.4561E+02  0.3910E+03  0.3909E+03
     -1.227  0.3504E+02  0.3610E+02  0.3929E+03  0.3928E+03
     -1.174  0.9551E+02  0.9642E+02  0.3980E+03  0.3979E+03
     -1.121  0.4423E+02  0.4184E+02  0.4004E+03  0.4002E+03
     -1.067  0.3242E+02  0.3326E+02  0.4021E+03  0.4019E+03
     -1.014  0.4045E+02  0.4296E+02  0.4043E+03  0.4042E+03
     -0.960  0.2791E+02  0.2740E+02  0.4058E+03  0.4057E+03
     -0.907  0.6329E+02  0.5986E+02  0.4091E+03  0.4089E+03
     -0.854  0.2097E+02  0.2522E+02  0.4103E+03  0.4102E+03
     -0.800  0.4163E+02  0.3907E+02  0.4125E+03  0.4123E+03
     -0.747  0.2641E+02  0.2742E+02  0.4139E+03  0.4138E+03
     -0.693  0.2218E+02  0.2241E+02  0.4151E+03  0.4150E+03
     -0.640  0.5023E+02  0.5151E+02  0.4178E+03  0.4177E+03
     -0.587  0.2373E+02  0.2158E+02  0.4190E+03  0.4189E+03
     -0.533  0.1086E+02  0.1186E+02  0.4196E+03  0.4195E+03
     -0.480  0.3607E+02  0.3629E+02  0.4215E+03  0.4215E+03
     -0.426  0.2569E+02  0.2347E+02  0.4229E+03  0.4227E+03
     -0.373  0.4202E+02  0.3888E+02  0.4251E+03  0.4248E+03
     -0.319  0.2539E+02  0.3160E+02  0.4265E+03  0.4265E+03
     -0.266  0.3399E+02  0.3038E+02  0.4283E+03  0.4281E+03
     -0.213  0.4382E+02  0.4427E+02  0.4307E+03  0.4305E+03
     -0.159  0.6031E+02  0.6054E+02  0.4339E+03  0.4337E+03
     -0.106  0.3880E+02  0.4042E+02  0.4360E+03  0.4359E+03
     -0.052  0.4366E+02  0.3677E+02  0.4383E+03  0.4378E+03
      0.001  0.6858E+02  0.7516E+02  0.4419E+03  0.4419E+03
      0.054  0.9367E+02  0.8866E+02  0.4470E+03  0.4466E+03
      0.108  0.1097E+03  0.1115E+03  0.4528E+03  0.4525E+03
      0.161  0.5781E+02  0.5780E+02  0.4559E+03  0.4556E+03
      0.215  0.1195E+03  0.1119E+03  0.4623E+03  0.4616E+03
      0.268  0.1425E+03  0.1462E+03  0.4699E+03  0.4694E+03
      0.322  0.1246E+03  0.1215E+03  0.4766E+03  0.4759E+03
      0.375  0.1028E+03  0.1070E+03  0.4820E+03  0.4816E+03
      0.428  0.1431E+03  0.1429E+03  0.4897E+03  0.4893E+03
      0.482  0.6297E+02  0.6554E+02  0.4930E+03  0.4928E+03
      0.535  0.1504E+03  0.1414E+03  0.5011E+03  0.5003E+03
      0.589  0.1540E+03  0.1560E+03  0.5093E+03  0.5086E+03
      0.642  0.1398E+03  0.1382E+03  0.5168E+03  0.5160E+03
      0.695  0.1382E+03  0.1409E+03  0.5242E+03  0.5235E+03
      0.749  0.1525E+03  0.1534E+03  0.5323E+03  0.5317E+03
      0.802  0.1121E+03  0.1132E+03  0.5383E+03  0.5378E+03
      0.856  0.1298E+03  0.1324E+03  0.5452E+03  0.5449E+03
      0.909  0.1564E+03  0.1507E+03  0.5536E+03  0.5529E+03
      0.962  0.1303E+03  0.1338E+03  0.5605E+03  0.5601E+03
      1.016  0.1140E+03  0.1151E+03  0.5666E+03  0.5662E+03
      1.069  0.9879E+02  0.9779E+02  0.5719E+03  0.5714E+03
      1.123  0.1337E+03  0.1345E+03  0.5790E+03  0.5786E+03
      1.176  0.1384E+03  0.1402E+03  0.5864E+03  0.5861E+03
      1.230  0.1417E+03  0.1442E+03  0.5940E+03  0.5938E+03
      1.283  0.1723E+03  0.1655E+03  0.6032E+03  0.6026E+03
      1.336  0.1565E+03  0.1631E+03  0.6116E+03  0.6114E+03
      1.390  0.1211E+03  0.1171E+03  0.6180E+03  0.6176E+03
      1.443  0.1168E+03  0.1172E+03  0.6243E+03  0.6239E+03
      1.497  0.1218E+03  0.1225E+03  0.6308E+03  0.6304E+03
      1.550  0.1593E+03  0.1582E+03  0.6393E+03  0.6389E+03
      1.603  0.1654E+03  0.1603E+03  0.6481E+03  0.6474E+03
      1.657  0.1592E+03  0.1654E+03  0.6566E+03  0.6563E+03
      1.710  0.1159E+03  0.1171E+03  0.6628E+03  0.6625E+03
      1.764  0.1224E+03  0.1192E+03  0.6693E+03  0.6689E+03
      1.817  0.1823E+03  0.1843E+03  0.6791E+03  0.6787E+03
      1.870  0.1086E+03  0.1051E+03  0.6849E+03  0.6844E+03
      1.924  0.1120E+03  0.1136E+03  0.6909E+03  0.6904E+03
      1.977  0.1311E+03  0.1310E+03  0.6979E+03  0.6974E+03
      2.031  0.1093E+03  0.1115E+03  0.7037E+03  0.7034E+03
      2.084  0.8926E+02  0.8809E+02  0.7085E+03  0.7081E+03
      2.138  0.1355E+03  0.1256E+03  0.7157E+03  0.7148E+03
      2.191  0.1881E+03  0.1938E+03  0.7257E+03  0.7251E+03
      2.244  0.1280E+03  0.1312E+03  0.7326E+03  0.7321E+03
      2.298  0.1321E+03  0.1319E+03  0.7396E+03  0.7392E+03
      2.351  0.1191E+03  0.1142E+03  0.7460E+03  0.7453E+03
      2.405  0.1365E+03  0.1382E+03  0.7533E+03  0.7527E+03
      2.458  0.1316E+03  0.1303E+03  0.7603E+03  0.7596E+03
      2.511  0.1128E+03  0.1147E+03  0.7663E+03  0.7658E+03
      2.565  0.9964E+02  0.1007E+03  0.7717E+03  0.7711E+03
      2.618  0.1614E+03  0.1618E+03  0.7803E+03  0.7798E+03
      2.672  0.9242E+02  0.9316E+02  0.7852E+03  0.7848E+03
      2.725  0.1263E+03  0.1256E+03  0.7920E+03  0.7915E+03
      2.778  0.1160E+03  0.1160E+03  0.7982E+03  0.7977E+03
      2.832  0.1227E+03  0.1171E+03  0.8047E+03  0.8039E+03
      2.885  0.1438E+03  0.1535E+03  0.8124E+03  0.8121E+03
      2.939  0.1293E+03  0.1287E+03  0.8193E+03  0.8190E+03
      2.992  0.1187E+03  0.1187E+03  0.8257E+03  0.8253E+03
      3.046  0.7132E+02  0.6680E+02  0.8295E+03  0.8289E+03
      3.099  0.1104E+03  0.1134E+03  0.8354E+03  0.8349E+03
      3.152  0.7502E+02  0.7515E+02  0.8394E+03  0.8390E+03
      3.206  0.7331E+02  0.7450E+02  0.8433E+03  0.8429E+03
      3.259  0.5488E+02  0.5324E+02  0.8462E+03  0.8458E+03
      3.313  0.9473E+02  0.9228E+02  0.8513E+03  0.8507E+03
      3.366  0.9221E+02  0.9117E+02  0.8562E+03  0.8556E+03
      3.419  0.1114E+03  0.1098E+03  0.8622E+03  0.8614E+03
      3.473  0.8685E+02  0.9069E+02  0.8668E+03  0.8663E+03
      3.526  0.5782E+02  0.5874E+02  0.8699E+03  0.8694E+03
      3.580  0.8855E+02  0.9222E+02  0.8746E+03  0.8744E+03
      3.633  0.4371E+02  0.4411E+02  0.8769E+03  0.8767E+03
      3.687  0.2981E+02  0.3103E+02  0.8785E+03  0.8784E+03
      3.740  0.8277E+02  0.7904E+02  0.8830E+03  0.8826E+03
      3.793  0.6129E+02  0.5395E+02  0.8862E+03  0.8855E+03
      3.847  0.6079E+02  0.7294E+02  0.8895E+03  0.8894E+03
      3.900  0.3110E+02  0.2363E+02  0.8911E+03  0.8906E+03
      3.954  0.4164E+02  0.3848E+02  0.8934E+03  0.8927E+03
      4.007  0.7760E+02  0.7995E+02  0.8975E+03  0.8970E+03
      4.060  0.3045E+02  0.3418E+02  0.8991E+03  0.8988E+03
      4.114  0.2757E+02  0.2582E+02  0.9006E+03  0.9002E+03
      4.167  0.3646E+02  0.4135E+02  0.9026E+03  0.9024E+03
      4.221  0.6073E+02  0.5164E+02  0.9058E+03  0.9051E+03
      4.274  0.7699E+02  0.7727E+02  0.9099E+03  0.9093E+03
      4.327  0.4412E+02  0.5024E+02  0.9123E+03  0.9119E+03
      4.381  0.8461E+02  0.7108E+02  0.9168E+03  0.9157E+03
      4.434  0.6208E+02  0.6905E+02  0.9201E+03  0.9194E+03
      4.488  0.4554E+02  0.5134E+02  0.9225E+03  0.9222E+03
      4.541  0.5959E+02  0.5401E+02  0.9257E+03  0.9251E+03
      4.595  0.8393E+02  0.8874E+02  0.9302E+03  0.9298E+03
      4.648  0.4842E+02  0.4283E+02  0.9328E+03  0.9321E+03
      4.701  0.6900E+02  0.7281E+02  0.9365E+03  0.9360E+03
      4.755  0.9402E+02  0.9339E+02  0.9415E+03  0.9410E+03
      4.808  0.5541E+02  0.5417E+02  0.9445E+03  0.9438E+03
      4.862  0.8235E+02  0.8150E+02  0.9489E+03  0.9482E+03
      4.915  0.9578E+02  0.9547E+02  0.9540E+03  0.9533E+03
      4.968  0.7814E+02  0.7907E+02  0.9581E+03  0.9575E+03
      5.022  0.9258E+02  0.8451E+02  0.9631E+03  0.9620E+03
      5.075  0.6759E+02  0.7529E+02  0.9667E+03  0.9661E+03
      5.129  0.1116E+03  0.1080E+03  0.9727E+03  0.9718E+03
      5.182  0.1072E+03  0.1066E+03  0.9784E+03  0.9775E+03
      5.235  0.8009E+02  0.8183E+02  0.9827E+03  0.9819E+03
      5.289  0.7752E+02  0.7331E+02  0.9868E+03  0.9858E+03
      5.342  0.7253E+02  0.8078E+02  0.9907E+03  0.9901E+03
      5.396  0.1019E+03  0.9944E+02  0.9961E+03  0.9954E+03
      5.449  0.7297E+02  0.7426E+02  0.1000E+04  0.9994E+03
      5.503  0.1380E+03  0.1354E+03  0.1007E+04  0.1007E+04
      5.556  0.9347E+02  0.9449E+02  0.1012E+04  0.1012E+04
      5.609  0.9833E+02  0.1006E+03  0.1018E+04  0.1017E+04
      5.663  0.1235E+03  0.1217E+03  0.1024E+04  0.1024E+04
      5.716  0.1028E+03  0.1031E+03  0.1030E+04  0.1029E+04
      5.770  0.8001E+02  0.8267E+02  0.1034E+04  0.1033E+04
      5.823  0.1209E+03  0.1196E+03  0.1040E+04  0.1040E+04
      5.876  0.1033E+03  0.1047E+03  0.1046E+04  0.1045E+04
      5.930  0.1325E+03  0.1281E+03  0.1053E+04  0.1052E+04
      5.983  0.1198E+03  0.1181E+03  0.1059E+04  0.1059E+04
      6.037  0.1050E+03  0.1086E+03  0.1065E+04  0.1064E+04
      6.090  0.1209E+03  0.1227E+03  0.1072E+04  0.1071E+04
      6.144  0.5624E+02  0.5927E+02  0.1075E+04  0.1074E+04
      6.197  0.1139E+03  0.1136E+03  0.1081E+04  0.1080E+04
      6.250  0.9018E+02  0.8707E+02  0.1085E+04  0.1085E+04
      6.304  0.7083E+02  0.7786E+02  0.1089E+04  0.1089E+04
      6.357  0.8325E+02  0.8201E+02  0.1094E+04  0.1093E+04
      6.411  0.3832E+02  0.4032E+02  0.1096E+04  0.1096E+04
      6.464  0.5795E+01  0.8660E+01  0.1096E+04  0.1096E+04
      6.517  0.0000E+00  0.0000E+00  0.1096E+04  0.1096E+04
      6.571  0.0000E+00  0.0000E+00  0.1096E+04  0.1096E+04
      6.624  0.0000E+00  0.0000E+00  0.1096E+04  0.1096E+04
      6.678  0.0000E+00  0.0000E+00  0.1096E+04  0.1096E+04
      6.731  0.0000E+00  0.0000E+00  0.1096E+04  0.1096E+04
      6.784  0.0000E+00  0.0000E+00  0.1096E+04  0.1096E+04
      6.838  0.0000E+00  0.0000E+00  0.1096E+04  0.1096E+04
      6.891  0.0000E+00  0.0000E+00  0.1096E+04  0.1096E+04
      6.945  0.0000E+00  0.0000E+00  0.1096E+04  0.1096E+04
      6.998  0.0000E+00  0.0000E+00  0.1096E+04  0.1096E+04
      7.052  0.0000E+00  0.0000E+00  0.1096E+04  0.1096E+04
      7.105  0.0000E+00  0.0000E+00  0.1096E+04  0.1096E+04
      7.158  0.0000E+00  0.0000E+00  0.1096E+04  0.1096E+04
