Si and Ge interface calculation         
           1
     5.657800    0.000000    0.000000
     0.000000    5.657800    0.000000
     0.000000    0.000000   16.944500
   Ge
    24
Direct configuration=     1
   0.23136914  0.71428567  0.91737741
   0.51708341  0.00000000  0.16695093
   0.01708341  0.00000000  0.33390188
   0.26708344  0.75000000  0.08347546
   0.76708341  0.75000000  0.25042638
   0.98136914  0.96428567  0.50000006
   0.51708341  0.49999997  0.00000000
   0.01708329  0.49999997  0.16695093
   0.48136917  0.46428570  0.50000006
   0.73136914  0.21428573  0.91737741
   0.26708341  0.24999999  0.25042638
   0.76708341  0.24999999  0.41737735
   0.51708329  0.49999997  0.33390188
   0.98136914  0.46428570  0.66695094
   0.48136911  0.46428570  0.83390188
   0.73136914  0.21428573  0.58347553
   0.23136914  0.21428573  0.75042641
   0.76708341  0.24999999  0.08347546
   0.26708341  0.75000000  0.41737735
   0.48136899  0.96428567  0.66695094
   0.98136902  0.96428567  0.83390188
   0.23136914  0.71428567  0.58347553
   0.73136914  0.71428567  0.75042641
   0.01708345  0.00000000  0.00000000
