 264 264   0   0
  0.2164176E+02  0.1958175E-08  0.1958175E-08  0.1490025E-08  0.5000000E-15
  1.000000000000000E-004
  CAR 
 Si and Ge interface calculation         
      9.03387439     -9.13931153  301      6.35591393      1.00000000
     -9.139  0.0000E+00  0.0000E+00  0.0000E+00  0.0000E+00
     -9.079  0.0000E+00  0.0000E+00  0.0000E+00  0.0000E+00
     -9.018  0.0000E+00  0.0000E+00  0.0000E+00  0.0000E+00
     -8.958  0.0000E+00  0.0000E+00  0.0000E+00  0.0000E+00
     -8.897  0.0000E+00  0.0000E+00  0.0000E+00  0.0000E+00
     -8.836  0.0000E+00  0.0000E+00  0.0000E+00  0.0000E+00
     -8.776  0.0000E+00  0.0000E+00  0.0000E+00  0.0000E+00
     -8.715  0.0000E+00  0.0000E+00  0.0000E+00  0.0000E+00
     -8.655  0.0000E+00  0.0000E+00  0.0000E+00  0.0000E+00
     -8.594  0.0000E+00  0.0000E+00  0.0000E+00  0.0000E+00
     -8.534  0.0000E+00  0.0000E+00  0.0000E+00  0.0000E+00
     -8.473  0.0000E+00  0.0000E+00  0.0000E+00  0.0000E+00
     -8.412  0.0000E+00  0.0000E+00  0.0000E+00  0.0000E+00
     -8.352  0.1317E-06  0.1260E-06  0.7981E-08  0.7635E-08
     -8.291  0.3214E+02  0.3211E+02  0.1947E+01  0.1945E+01
     -8.231  0.2987E+02  0.3013E+02  0.3757E+01  0.3771E+01
     -8.170  0.3007E+02  0.2778E+02  0.5579E+01  0.5454E+01
     -8.109  0.3691E+02  0.3938E+02  0.7815E+01  0.7840E+01
     -8.049  0.3175E+02  0.2945E+02  0.9738E+01  0.9624E+01
     -7.988  0.5215E+02  0.5146E+02  0.1290E+02  0.1274E+02
     -7.928  0.4370E+02  0.4611E+02  0.1555E+02  0.1553E+02
     -7.867  0.4922E+02  0.4933E+02  0.1853E+02  0.1852E+02
     -7.807  0.2428E+02  0.2437E+02  0.2000E+02  0.2000E+02
     -7.746  0.1504E+02  0.2123E+02  0.2091E+02  0.2129E+02
     -7.685  0.5098E+02  0.4479E+02  0.2400E+02  0.2400E+02
     -7.625  0.1776E-07  0.2211E-05  0.2400E+02  0.2400E+02
     -7.564  0.3273E+02  0.3299E+02  0.2598E+02  0.2600E+02
     -7.504  0.3330E+02  0.3298E+02  0.2800E+02  0.2800E+02
     -7.443  0.0000E+00  0.0000E+00  0.2800E+02  0.2800E+02
     -7.383  0.0000E+00  0.0000E+00  0.2800E+02  0.2800E+02
     -7.322  0.5376E-03  0.7676E-04  0.2800E+02  0.2800E+02
     -7.261  0.1664E+02  0.1652E+02  0.2901E+02  0.2900E+02
     -7.201  0.3148E+02  0.2768E+02  0.3092E+02  0.3068E+02
     -7.140  0.1968E+02  0.2398E+02  0.3211E+02  0.3213E+02
     -7.080  0.7394E+02  0.7685E+02  0.3659E+02  0.3679E+02
     -7.019  0.5633E+02  0.5306E+02  0.4000E+02  0.4000E+02
     -6.959  0.0000E+00  0.0000E+00  0.4000E+02  0.4000E+02
     -6.898  0.0000E+00  0.0000E+00  0.4000E+02  0.4000E+02
     -6.837  0.0000E+00  0.0000E+00  0.4000E+02  0.4000E+02
     -6.777  0.2370E+01  0.1131E+01  0.4014E+02  0.4007E+02
     -6.716  0.3065E+02  0.3188E+02  0.4200E+02  0.4200E+02
     -6.656  0.3240E+02  0.3191E+02  0.4396E+02  0.4393E+02
     -6.595  0.3328E+02  0.3361E+02  0.4598E+02  0.4597E+02
     -6.534  0.9686E+01  0.1756E+02  0.4657E+02  0.4703E+02
     -6.474  0.2366E+02  0.1593E+02  0.4800E+02  0.4800E+02
     -6.413  0.3369E+02  0.3439E+02  0.5004E+02  0.5008E+02
     -6.353  0.3199E+02  0.3146E+02  0.5198E+02  0.5199E+02
     -6.292  0.3386E+00  0.1784E+00  0.5200E+02  0.5200E+02
     -6.232  0.2992E+02  0.2966E+02  0.5381E+02  0.5380E+02
     -6.171  0.3608E+02  0.3637E+02  0.5600E+02  0.5600E+02
     -6.110  0.2941E+01  0.1406E+01  0.5618E+02  0.5609E+02
     -6.050  0.4946E+02  0.5296E+02  0.5917E+02  0.5929E+02
     -5.989  0.6675E+02  0.6812E+02  0.6322E+02  0.6342E+02
     -5.929  0.1289E+02  0.9539E+01  0.6400E+02  0.6400E+02
     -5.868  0.1129E-06  0.3505E-13  0.6400E+02  0.6400E+02
     -5.808  0.1019E+02  0.6429E+01  0.6462E+02  0.6439E+02
     -5.747  0.5777E+02  0.4177E+02  0.6812E+02  0.6692E+02
     -5.686  0.3725E+02  0.5082E+02  0.7037E+02  0.7000E+02
     -5.626  0.5657E+02  0.5662E+02  0.7380E+02  0.7343E+02
     -5.565  0.3281E+01  0.9403E+01  0.7400E+02  0.7400E+02
     -5.505  0.7863E+01  0.7496E+01  0.7448E+02  0.7445E+02
     -5.444  0.1222E+02  0.8634E+01  0.7522E+02  0.7498E+02
     -5.384  0.2916E+02  0.3173E+02  0.7698E+02  0.7690E+02
     -5.323  0.1760E+02  0.2232E+02  0.7805E+02  0.7825E+02
     -5.262  0.6434E+02  0.6149E+02  0.8195E+02  0.8198E+02
     -5.202  0.2361E+02  0.2267E+02  0.8338E+02  0.8335E+02
     -5.141  0.1033E+02  0.1096E+02  0.8400E+02  0.8401E+02
     -5.081  0.3063E+02  0.3175E+02  0.8586E+02  0.8594E+02
     -5.020  0.3942E+02  0.3933E+02  0.8825E+02  0.8832E+02
     -4.959  0.4537E+02  0.4506E+02  0.9100E+02  0.9105E+02
     -4.899  0.2147E+02  0.2062E+02  0.9230E+02  0.9230E+02
     -4.838  0.4236E+02  0.4184E+02  0.9486E+02  0.9483E+02
     -4.778  0.3759E+02  0.3852E+02  0.9714E+02  0.9717E+02
     -4.717  0.4161E+02  0.4097E+02  0.9966E+02  0.9965E+02
     -4.657  0.4098E+02  0.4145E+02  0.1021E+03  0.1022E+03
     -4.596  0.4758E+02  0.4691E+02  0.1050E+03  0.1050E+03
     -4.535  0.6187E+02  0.6142E+02  0.1088E+03  0.1087E+03
     -4.475  0.6626E+02  0.6678E+02  0.1128E+03  0.1128E+03
     -4.414  0.4883E+02  0.4767E+02  0.1157E+03  0.1157E+03
     -4.354  0.5225E+02  0.5427E+02  0.1189E+03  0.1189E+03
     -4.293  0.6136E+02  0.5852E+02  0.1226E+03  0.1225E+03
     -4.233  0.7351E+02  0.7345E+02  0.1271E+03  0.1269E+03
     -4.172  0.7178E+02  0.7248E+02  0.1314E+03  0.1313E+03
     -4.111  0.6008E+02  0.6117E+02  0.1351E+03  0.1350E+03
     -4.051  0.5595E+02  0.5721E+02  0.1385E+03  0.1385E+03
     -3.990  0.6467E+02  0.6468E+02  0.1424E+03  0.1424E+03
     -3.930  0.5680E+02  0.5495E+02  0.1458E+03  0.1458E+03
     -3.869  0.4824E+02  0.4555E+02  0.1487E+03  0.1485E+03
     -3.809  0.5467E+02  0.5818E+02  0.1521E+03  0.1520E+03
     -3.748  0.6240E+02  0.5789E+02  0.1558E+03  0.1555E+03
     -3.687  0.5429E+02  0.5517E+02  0.1591E+03  0.1589E+03
     -3.627  0.4971E+02  0.4826E+02  0.1621E+03  0.1618E+03
     -3.566  0.4609E+02  0.4976E+02  0.1649E+03  0.1648E+03
     -3.506  0.4872E+02  0.4938E+02  0.1679E+03  0.1678E+03
     -3.445  0.5713E+02  0.5797E+02  0.1713E+03  0.1713E+03
     -3.384  0.5024E+02  0.4850E+02  0.1744E+03  0.1743E+03
     -3.324  0.4664E+02  0.4589E+02  0.1772E+03  0.1770E+03
     -3.263  0.3813E+02  0.3886E+02  0.1795E+03  0.1794E+03
     -3.203  0.6894E+02  0.6885E+02  0.1837E+03  0.1836E+03
     -3.142  0.5549E+02  0.5461E+02  0.1871E+03  0.1869E+03
     -3.082  0.5002E+02  0.5164E+02  0.1901E+03  0.1900E+03
     -3.021  0.5281E+02  0.5391E+02  0.1933E+03  0.1933E+03
     -2.960  0.7578E+02  0.7509E+02  0.1979E+03  0.1978E+03
     -2.900  0.6042E+02  0.5966E+02  0.2015E+03  0.2014E+03
     -2.839  0.6812E+02  0.6648E+02  0.2057E+03  0.2055E+03
     -2.779  0.8276E+02  0.8352E+02  0.2107E+03  0.2105E+03
     -2.718  0.6044E+02  0.5788E+02  0.2143E+03  0.2140E+03
     -2.658  0.8132E+02  0.8394E+02  0.2193E+03  0.2191E+03
     -2.597  0.6979E+02  0.6950E+02  0.2235E+03  0.2233E+03
     -2.536  0.6118E+02  0.6316E+02  0.2272E+03  0.2272E+03
     -2.476  0.6693E+02  0.6365E+02  0.2313E+03  0.2310E+03
     -2.415  0.5933E+02  0.6095E+02  0.2349E+03  0.2347E+03
     -2.355  0.8535E+02  0.8638E+02  0.2400E+03  0.2399E+03
     -2.294  0.5782E+02  0.5484E+02  0.2435E+03  0.2433E+03
     -2.234  0.7913E+02  0.7915E+02  0.2483E+03  0.2481E+03
     -2.173  0.8743E+02  0.8563E+02  0.2536E+03  0.2532E+03
     -2.112  0.7352E+02  0.7785E+02  0.2581E+03  0.2580E+03
     -2.052  0.7252E+02  0.7227E+02  0.2625E+03  0.2623E+03
     -1.991  0.5989E+02  0.6003E+02  0.2661E+03  0.2660E+03
     -1.931  0.7511E+02  0.7131E+02  0.2706E+03  0.2703E+03
     -1.870  0.7946E+02  0.8053E+02  0.2755E+03  0.2752E+03
     -1.809  0.7286E+02  0.7411E+02  0.2799E+03  0.2797E+03
     -1.749  0.7112E+02  0.6794E+02  0.2842E+03  0.2838E+03
     -1.688  0.6829E+02  0.7041E+02  0.2883E+03  0.2880E+03
     -1.628  0.8588E+02  0.8765E+02  0.2935E+03  0.2934E+03
     -1.567  0.6883E+02  0.6839E+02  0.2977E+03  0.2975E+03
     -1.507  0.7228E+02  0.7314E+02  0.3021E+03  0.3019E+03
     -1.446  0.5845E+02  0.5942E+02  0.3056E+03  0.3055E+03
     -1.385  0.6901E+02  0.6680E+02  0.3098E+03  0.3096E+03
     -1.325  0.6018E+02  0.5881E+02  0.3134E+03  0.3131E+03
     -1.264  0.7119E+02  0.7316E+02  0.3177E+03  0.3176E+03
     -1.204  0.7332E+02  0.7319E+02  0.3222E+03  0.3220E+03
     -1.143  0.5516E+02  0.5282E+02  0.3255E+03  0.3252E+03
     -1.083  0.6440E+02  0.6358E+02  0.3294E+03  0.3291E+03
     -1.022  0.6464E+02  0.6698E+02  0.3333E+03  0.3331E+03
     -0.961  0.4770E+02  0.4865E+02  0.3362E+03  0.3361E+03
     -0.901  0.6447E+02  0.6537E+02  0.3401E+03  0.3400E+03
     -0.840  0.7498E+02  0.7406E+02  0.3447E+03  0.3445E+03
     -0.780  0.5970E+02  0.5993E+02  0.3483E+03  0.3481E+03
     -0.719  0.5924E+02  0.6064E+02  0.3519E+03  0.3518E+03
     -0.658  0.6642E+02  0.6045E+02  0.3559E+03  0.3555E+03
     -0.598  0.6270E+02  0.6792E+02  0.3597E+03  0.3596E+03
     -0.537  0.9044E+02  0.8325E+02  0.3652E+03  0.3646E+03
     -0.477  0.6465E+02  0.7383E+02  0.3691E+03  0.3691E+03
     -0.416  0.6777E+02  0.6175E+02  0.3732E+03  0.3728E+03
     -0.356  0.6566E+02  0.6460E+02  0.3772E+03  0.3768E+03
     -0.295  0.8508E+02  0.8741E+02  0.3823E+03  0.3821E+03
     -0.234  0.7743E+02  0.7093E+02  0.3870E+03  0.3864E+03
     -0.174  0.9199E+02  0.9940E+02  0.3926E+03  0.3924E+03
     -0.113  0.9579E+02  0.9079E+02  0.3984E+03  0.3979E+03
     -0.053  0.9747E+02  0.9885E+02  0.4043E+03  0.4039E+03
      0.008  0.8294E+02  0.8046E+02  0.4093E+03  0.4087E+03
      0.068  0.1021E+03  0.1003E+03  0.4155E+03  0.4148E+03
      0.129  0.8663E+02  0.9263E+02  0.4208E+03  0.4204E+03
      0.190  0.9069E+02  0.8546E+02  0.4263E+03  0.4256E+03
      0.250  0.9371E+02  0.9886E+02  0.4320E+03  0.4316E+03
      0.311  0.8887E+02  0.8414E+02  0.4373E+03  0.4367E+03
      0.371  0.8947E+02  0.9109E+02  0.4428E+03  0.4422E+03
      0.432  0.9862E+02  0.1055E+03  0.4487E+03  0.4486E+03
      0.492  0.7769E+02  0.7321E+02  0.4534E+03  0.4530E+03
      0.553  0.9718E+02  0.9394E+02  0.4593E+03  0.4587E+03
      0.614  0.9510E+02  0.9190E+02  0.4651E+03  0.4643E+03
      0.674  0.8202E+02  0.8417E+02  0.4701E+03  0.4694E+03
      0.735  0.1134E+03  0.1067E+03  0.4769E+03  0.4759E+03
      0.795  0.8479E+02  0.9795E+02  0.4821E+03  0.4818E+03
      0.856  0.9442E+02  0.8331E+02  0.4878E+03  0.4868E+03
      0.917  0.8977E+02  0.9569E+02  0.4932E+03  0.4926E+03
      0.977  0.8177E+02  0.8478E+02  0.4982E+03  0.4978E+03
      1.038  0.7622E+02  0.7686E+02  0.5028E+03  0.5024E+03
      1.098  0.9171E+02  0.8656E+02  0.5084E+03  0.5077E+03
      1.159  0.7255E+02  0.7893E+02  0.5128E+03  0.5125E+03
      1.219  0.9451E+02  0.8809E+02  0.5185E+03  0.5178E+03
      1.280  0.7689E+02  0.9231E+02  0.5231E+03  0.5234E+03
      1.341  0.1038E+03  0.8696E+02  0.5294E+03  0.5287E+03
      1.401  0.8383E+02  0.8308E+02  0.5345E+03  0.5337E+03
      1.462  0.8263E+02  0.8938E+02  0.5395E+03  0.5391E+03
      1.522  0.8706E+02  0.8535E+02  0.5448E+03  0.5443E+03
      1.583  0.9520E+02  0.9551E+02  0.5506E+03  0.5501E+03
      1.643  0.9045E+02  0.9250E+02  0.5560E+03  0.5557E+03
      1.704  0.7690E+02  0.7882E+02  0.5607E+03  0.5604E+03
      1.765  0.9900E+02  0.1087E+03  0.5667E+03  0.5670E+03
      1.825  0.9402E+02  0.8670E+02  0.5724E+03  0.5723E+03
      1.886  0.8640E+02  0.8577E+02  0.5776E+03  0.5775E+03
      1.946  0.8775E+02  0.7944E+02  0.5829E+03  0.5823E+03
      2.007  0.1034E+03  0.1093E+03  0.5892E+03  0.5889E+03
      2.067  0.9087E+02  0.8843E+02  0.5947E+03  0.5943E+03
      2.128  0.8587E+02  0.9457E+02  0.5999E+03  0.6000E+03
      2.189  0.9800E+02  0.9567E+02  0.6058E+03  0.6058E+03
      2.249  0.1317E+03  0.1250E+03  0.6138E+03  0.6134E+03
      2.310  0.1066E+03  0.1102E+03  0.6203E+03  0.6200E+03
      2.370  0.1030E+03  0.1044E+03  0.6265E+03  0.6264E+03
      2.431  0.1024E+03  0.9966E+02  0.6327E+03  0.6324E+03
      2.492  0.1192E+03  0.1173E+03  0.6399E+03  0.6395E+03
      2.552  0.1102E+03  0.1105E+03  0.6466E+03  0.6462E+03
      2.613  0.1030E+03  0.1037E+03  0.6529E+03  0.6525E+03
      2.673  0.1205E+03  0.1193E+03  0.6602E+03  0.6597E+03
      2.734  0.1377E+03  0.1435E+03  0.6685E+03  0.6684E+03
      2.794  0.1361E+03  0.1343E+03  0.6768E+03  0.6765E+03
      2.855  0.1266E+03  0.1236E+03  0.6844E+03  0.6840E+03
      2.916  0.1338E+03  0.1296E+03  0.6925E+03  0.6919E+03
      2.976  0.1196E+03  0.1278E+03  0.6998E+03  0.6996E+03
      3.037  0.1035E+03  0.9691E+02  0.7061E+03  0.7055E+03
      3.097  0.1017E+03  0.1022E+03  0.7122E+03  0.7117E+03
      3.158  0.1168E+03  0.1212E+03  0.7193E+03  0.7190E+03
      3.218  0.1130E+03  0.1177E+03  0.7261E+03  0.7262E+03
      3.279  0.1185E+03  0.1126E+03  0.7333E+03  0.7330E+03
      3.340  0.1079E+03  0.1036E+03  0.7399E+03  0.7393E+03
      3.400  0.1101E+03  0.1129E+03  0.7465E+03  0.7461E+03
      3.461  0.1213E+03  0.1275E+03  0.7539E+03  0.7538E+03
      3.521  0.1096E+03  0.1079E+03  0.7605E+03  0.7604E+03
      3.582  0.1223E+03  0.1184E+03  0.7679E+03  0.7676E+03
      3.642  0.1088E+03  0.1119E+03  0.7745E+03  0.7743E+03
      3.703  0.1194E+03  0.1192E+03  0.7817E+03  0.7816E+03
      3.764  0.1259E+03  0.1178E+03  0.7894E+03  0.7887E+03
      3.824  0.1133E+03  0.1200E+03  0.7962E+03  0.7960E+03
      3.885  0.1171E+03  0.1140E+03  0.8033E+03  0.8029E+03
      3.945  0.1097E+03  0.1150E+03  0.8100E+03  0.8098E+03
      4.006  0.1150E+03  0.1103E+03  0.8169E+03  0.8165E+03
      4.067  0.1248E+03  0.1240E+03  0.8245E+03  0.8240E+03
      4.127  0.1281E+03  0.1313E+03  0.8323E+03  0.8320E+03
      4.188  0.1156E+03  0.1217E+03  0.8393E+03  0.8394E+03
      4.248  0.1213E+03  0.1191E+03  0.8466E+03  0.8466E+03
      4.309  0.1175E+03  0.1161E+03  0.8537E+03  0.8536E+03
      4.369  0.1154E+03  0.1190E+03  0.8607E+03  0.8608E+03
      4.430  0.1080E+03  0.9915E+02  0.8673E+03  0.8668E+03
      4.491  0.9961E+02  0.1023E+03  0.8733E+03  0.8730E+03
      4.551  0.9818E+02  0.9407E+02  0.8793E+03  0.8787E+03
      4.612  0.1031E+03  0.1086E+03  0.8855E+03  0.8853E+03
      4.672  0.1119E+03  0.1061E+03  0.8923E+03  0.8917E+03
      4.733  0.7191E+02  0.7884E+02  0.8966E+03  0.8965E+03
      4.793  0.1069E+03  0.9916E+02  0.9031E+03  0.9025E+03
      4.854  0.1004E+03  0.9596E+02  0.9092E+03  0.9083E+03
      4.915  0.9592E+02  0.9793E+02  0.9150E+03  0.9143E+03
      4.975  0.9848E+02  0.9088E+02  0.9210E+03  0.9198E+03
      5.036  0.9352E+02  0.1002E+03  0.9266E+03  0.9258E+03
      5.096  0.9949E+02  0.8143E+02  0.9327E+03  0.9308E+03
      5.157  0.9433E+02  0.1010E+03  0.9384E+03  0.9369E+03
      5.218  0.1048E+03  0.9754E+02  0.9447E+03  0.9428E+03
      5.278  0.9674E+02  0.9237E+02  0.9506E+03  0.9484E+03
      5.339  0.8443E+02  0.9000E+02  0.9557E+03  0.9538E+03
      5.399  0.1028E+03  0.8424E+02  0.9619E+03  0.9590E+03
      5.460  0.1009E+03  0.1164E+03  0.9680E+03  0.9660E+03
      5.520  0.1076E+03  0.1008E+03  0.9746E+03  0.9721E+03
      5.581  0.9564E+02  0.9598E+02  0.9804E+03  0.9779E+03
      5.642  0.9353E+02  0.9220E+02  0.9860E+03  0.9835E+03
      5.702  0.1028E+03  0.9584E+02  0.9923E+03  0.9893E+03
      5.763  0.1065E+03  0.9735E+02  0.9987E+03  0.9952E+03
      5.823  0.8922E+02  0.9165E+02  0.1004E+04  0.1001E+04
      5.884  0.9217E+02  0.9575E+02  0.1010E+04  0.1007E+04
      5.944  0.1152E+03  0.1084E+03  0.1017E+04  0.1013E+04
      6.005  0.1050E+03  0.9781E+02  0.1023E+04  0.1019E+04
      6.066  0.9083E+02  0.1034E+03  0.1029E+04  0.1025E+04
      6.126  0.9787E+02  0.1045E+03  0.1034E+04  0.1032E+04
      6.187  0.1127E+03  0.9781E+02  0.1041E+04  0.1038E+04
      6.247  0.9743E+02  0.1030E+03  0.1047E+04  0.1044E+04
      6.308  0.9739E+02  0.1108E+03  0.1053E+04  0.1051E+04
      6.368  0.9983E+02  0.9429E+02  0.1059E+04  0.1056E+04
      6.429  0.1041E+03  0.9428E+02  0.1065E+04  0.1062E+04
      6.490  0.9412E+02  0.1061E+03  0.1071E+04  0.1068E+04
      6.550  0.1057E+03  0.9757E+02  0.1078E+04  0.1074E+04
      6.611  0.1013E+03  0.1058E+03  0.1084E+04  0.1081E+04
      6.671  0.8867E+02  0.1138E+03  0.1089E+04  0.1088E+04
      6.732  0.1077E+03  0.1103E+03  0.1096E+04  0.1094E+04
      6.793  0.1195E+03  0.1278E+03  0.1103E+04  0.1102E+04
      6.853  0.1178E+03  0.1365E+03  0.1110E+04  0.1110E+04
      6.914  0.1160E+03  0.1118E+03  0.1117E+04  0.1117E+04
      6.974  0.1097E+03  0.1112E+03  0.1124E+04  0.1124E+04
      7.035  0.1149E+03  0.1190E+03  0.1131E+04  0.1131E+04
      7.095  0.1174E+03  0.1248E+03  0.1138E+04  0.1139E+04
      7.156  0.1201E+03  0.1154E+03  0.1145E+04  0.1146E+04
      7.217  0.1058E+03  0.1190E+03  0.1151E+04  0.1153E+04
      7.277  0.1320E+03  0.1150E+03  0.1159E+04  0.1160E+04
      7.338  0.1155E+03  0.1272E+03  0.1166E+04  0.1167E+04
      7.398  0.1156E+03  0.1158E+03  0.1173E+04  0.1174E+04
      7.459  0.1133E+03  0.1133E+03  0.1180E+04  0.1181E+04
      7.519  0.1215E+03  0.1204E+03  0.1188E+04  0.1189E+04
      7.580  0.1300E+03  0.1337E+03  0.1195E+04  0.1197E+04
      7.641  0.1163E+03  0.1250E+03  0.1203E+04  0.1204E+04
      7.701  0.1288E+03  0.1189E+03  0.1210E+04  0.1212E+04
      7.762  0.1180E+03  0.1230E+03  0.1217E+04  0.1219E+04
      7.822  0.1374E+03  0.1346E+03  0.1226E+04  0.1227E+04
      7.883  0.1368E+03  0.1343E+03  0.1234E+04  0.1235E+04
      7.943  0.1313E+03  0.1369E+03  0.1242E+04  0.1244E+04
      8.004  0.1422E+03  0.1352E+03  0.1251E+04  0.1252E+04
      8.065  0.1281E+03  0.1335E+03  0.1258E+04  0.1260E+04
      8.125  0.1283E+03  0.1246E+03  0.1266E+04  0.1267E+04
      8.186  0.8803E+02  0.7504E+02  0.1272E+04  0.1272E+04
      8.246  0.7968E+01  0.1143E+01  0.1272E+04  0.1272E+04
      8.307  0.0000E+00  0.0000E+00  0.1272E+04  0.1272E+04
      8.368  0.0000E+00  0.0000E+00  0.1272E+04  0.1272E+04
      8.428  0.0000E+00  0.0000E+00  0.1272E+04  0.1272E+04
      8.489  0.0000E+00  0.0000E+00  0.1272E+04  0.1272E+04
      8.549  0.0000E+00  0.0000E+00  0.1272E+04  0.1272E+04
      8.610  0.0000E+00  0.0000E+00  0.1272E+04  0.1272E+04
      8.670  0.0000E+00  0.0000E+00  0.1272E+04  0.1272E+04
      8.731  0.0000E+00  0.0000E+00  0.1272E+04  0.1272E+04
      8.792  0.0000E+00  0.0000E+00  0.1272E+04  0.1272E+04
      8.852  0.0000E+00  0.0000E+00  0.1272E+04  0.1272E+04
      8.913  0.0000E+00  0.0000E+00  0.1272E+04  0.1272E+04
      8.973  0.0000E+00  0.0000E+00  0.1272E+04  0.1272E+04
      9.034  0.0000E+00  0.0000E+00  0.1272E+04  0.1272E+04
