Si and Ge interface calculation         
           1
    16.973400    0.000000    0.000000
     0.000000   16.973400    0.000000
     0.000000    0.000000   13.861000
   Ge   Si
   108   120
Direct configuration=     1
   0.99430549  0.66666657  0.00000000
   0.82763886  0.66666657  0.20409059
   0.66097212  0.66666657  0.40818122
   0.99430549  0.33333328  0.00000000
   0.82763886  0.33333328  0.20409059
   0.66097212  0.33333328  0.40818122
   0.99430549  0.00000000  0.00000000
   0.82763886  0.00000000  0.20409059
   0.66097212  0.00000000  0.40818122
   0.32763880  0.66666657  0.00000000
   0.16097215  0.66666657  0.20409059
   0.99430543  0.66666657  0.40818122
   0.32763880  0.33333328  0.00000000
   0.16097215  0.33333328  0.20409059
   0.99430543  0.33333328  0.40818122
   0.32763880  0.00000000  0.00000000
   0.16097215  0.00000000  0.20409059
   0.99430543  0.00000000  0.40818122
   0.66097212  0.66666657  0.00000000
   0.49430543  0.66666657  0.20409059
   0.32763875  0.66666657  0.40818122
   0.66097212  0.33333328  0.00000000
   0.49430543  0.33333328  0.20409059
   0.32763875  0.33333328  0.40818122
   0.66097212  0.00000000  0.00000000
   0.49430543  0.00000000  0.20409059
   0.32763875  0.00000000  0.40818122
   0.07763884  0.91666657  0.10204530
   0.91097212  0.91666657  0.30613592
   0.74430549  0.91666657  0.51022655
   0.07763884  0.58333331  0.10204530
   0.91097212  0.58333331  0.30613592
   0.74430549  0.58333331  0.51022655
   0.07763884  0.24999995  0.10204530
   0.91097212  0.24999995  0.30613592
   0.74430549  0.24999995  0.51022655
   0.41097209  0.91666657  0.10204530
   0.24430542  0.91666657  0.30613592
   0.07763872  0.91666657  0.51022655
   0.41097209  0.58333331  0.10204530
   0.24430542  0.58333331  0.30613592
   0.07763872  0.58333331  0.51022655
   0.41097209  0.24999995  0.10204530
   0.24430542  0.24999995  0.30613592
   0.07763872  0.24999995  0.51022655
   0.74430549  0.91666657  0.10204530
   0.57763875  0.91666657  0.30613592
   0.41097206  0.91666657  0.51022655
   0.74430549  0.58333331  0.10204530
   0.57763875  0.58333331  0.30613592
   0.41097206  0.58333331  0.51022655
   0.74430549  0.24999995  0.10204530
   0.57763875  0.24999995  0.30613592
   0.41097206  0.24999995  0.51022655
   0.16097216  0.83333319  0.00000000
   0.99430549  0.83333319  0.20409059
   0.82763880  0.83333319  0.40818122
   0.16097216  0.49999991  0.00000000
   0.99430549  0.49999991  0.20409059
   0.82763880  0.49999991  0.40818122
   0.16097216  0.16666664  0.00000000
   0.99430549  0.16666664  0.20409059
   0.82763880  0.16666664  0.40818122
   0.49430543  0.83333319  0.00000000
   0.32763875  0.83333319  0.20409059
   0.16097207  0.83333319  0.40818122
   0.49430543  0.49999991  0.00000000
   0.32763875  0.49999991  0.20409059
   0.16097207  0.49999991  0.40818122
   0.49430543  0.16666664  0.00000000
   0.32763875  0.16666664  0.20409059
   0.16097207  0.16666664  0.40818122
   0.82763880  0.83333319  0.00000000
   0.66097212  0.83333319  0.20409059
   0.49430543  0.83333319  0.40818122
   0.82763880  0.49999991  0.00000000
   0.66097212  0.49999991  0.20409059
   0.49430543  0.49999991  0.40818122
   0.82763880  0.16666664  0.00000000
   0.66097212  0.16666664  0.20409059
   0.49430543  0.16666664  0.40818122
   0.24430546  0.74999988  0.10204530
   0.07763878  0.74999988  0.30613592
   0.91097212  0.74999988  0.51022655
   0.24430546  0.41666663  0.10204530
   0.07763878  0.41666663  0.30613592
   0.91097212  0.41666663  0.51022655
   0.24430546  0.08333333  0.10204530
   0.07763878  0.08333333  0.30613592
   0.91097212  0.08333333  0.51022655
   0.57763886  0.74999988  0.10204530
   0.41097215  0.74999988  0.30613592
   0.24430545  0.74999988  0.51022655
   0.57763886  0.41666663  0.10204530
   0.41097215  0.41666663  0.30613592
   0.24430545  0.41666663  0.51022655
   0.57763886  0.08333333  0.10204530
   0.41097215  0.08333333  0.30613592
   0.24430545  0.08333333  0.51022655
   0.91097218  0.74999988  0.10204530
   0.74430549  0.74999988  0.30613592
   0.57763875  0.74999988  0.51022655
   0.91097218  0.41666663  0.10204530
   0.74430549  0.41666663  0.30613592
   0.57763875  0.41666663  0.51022655
   0.91097218  0.08333333  0.10204530
   0.74430549  0.08333333  0.30613592
   0.57763875  0.08333333  0.51022655
   0.69466102  0.10177972  0.51022661
   0.54466093  0.15177979  0.70613599
   0.39466086  0.20177983  0.90204537
   0.79466093  0.40177977  0.51022661
   0.64466089  0.45177987  0.70613599
   0.49466082  0.50177991  0.90204537
   0.89466095  0.70177972  0.51022661
   0.74466085  0.75177973  0.70613599
   0.59466088  0.80177987  0.90204537
   0.39466095  0.20177974  0.51022661
   0.24466088  0.25177979  0.70613599
   0.09466080  0.30177984  0.90204537
   0.49466094  0.50177973  0.51022661
   0.34466088  0.55177981  0.70613599
   0.19466081  0.60177988  0.90204537
   0.59466094  0.80177975  0.51022661
   0.44466084  0.85177976  0.70613599
   0.29466081  0.90177989  0.90204537
   0.99466091  0.00177969  0.51022661
   0.84466088  0.05177976  0.70613599
   0.69466078  0.10177983  0.90204537
   0.09466094  0.30177972  0.51022661
   0.94466090  0.35177979  0.70613599
   0.79466081  0.40177983  0.90204537
   0.19466093  0.60177976  0.51022661
   0.04466087  0.65177983  0.70613599
   0.89466083  0.70177990  0.90204537
   0.29466093  0.90177971  0.51022661
   0.14466083  0.95177972  0.70613599
   0.99466080  0.00177991  0.90204537
   0.94466090  0.10177971  0.60818130
   0.79466081  0.15177977  0.80409068
   0.64466071  0.20177986  0.00000000
   0.64466101  0.20177974  0.60818130
   0.49466097  0.25177979  0.80409068
   0.34466085  0.30177987  0.00000000
   0.74466097  0.50177979  0.60818130
   0.59466088  0.55177987  0.80409068
   0.44466081  0.60177988  0.00000000
   0.84466094  0.80177975  0.60818130
   0.69466090  0.85177988  0.80409068
   0.54466081  0.90177989  0.00000000
   0.24466094  0.00177968  0.60818130
   0.09466089  0.05177987  0.80409068
   0.94466078  0.10177994  0.00000000
   0.34466091  0.30177972  0.60818130
   0.19466086  0.35177982  0.80409068
   0.04466076  0.40177983  0.00000000
   0.44466093  0.60177970  0.60818130
   0.29466087  0.65177977  0.80409068
   0.14466079  0.70177990  0.00000000
   0.54466093  0.90177971  0.60818130
   0.39466089  0.95177984  0.80409068
   0.24466078  0.00177991  0.00000000
   0.04466093  0.40177971  0.60818130
   0.89466083  0.45177981  0.80409068
   0.74466073  0.50177985  0.00000000
   0.14466093  0.70177978  0.60818130
   0.99466085  0.75177985  0.80409068
   0.84466076  0.80177987  0.00000000
   0.89466095  0.20177971  0.51022661
   0.74466091  0.25177979  0.70613599
   0.59466082  0.30177990  0.90204537
   0.49466094  0.00177970  0.51022661
   0.34466091  0.05177976  0.70613599
   0.19466080  0.10177984  0.90204537
   0.59466094  0.30177972  0.51022661
   0.44466090  0.35177979  0.70613599
   0.29466081  0.40177989  0.90204537
   0.69466096  0.60177976  0.51022661
   0.54466093  0.65177983  0.70613599
   0.39466080  0.70177990  0.90204537
   0.79466099  0.90177989  0.51022661
   0.64466089  0.95177990  0.70613599
   0.49466082  0.00177991  0.90204537
   0.19466093  0.10177971  0.51022661
   0.04466087  0.15177979  0.70613599
   0.89466077  0.20177986  0.90204537
   0.29466096  0.40177977  0.51022661
   0.14466089  0.45177984  0.70613599
   0.99466080  0.50177991  0.90204537
   0.39466092  0.70177972  0.51022661
   0.24466084  0.75177979  0.70613599
   0.09466077  0.80177987  0.90204537
   0.99466091  0.50177968  0.51022661
   0.84466088  0.55177981  0.70613599
   0.69466078  0.60177988  0.90204537
   0.09466091  0.80177975  0.51022661
   0.94466090  0.85177982  0.70613599
   0.79466081  0.90177989  0.90204537
   0.74466091  0.00177968  0.60818130
   0.59466088  0.05177987  0.80409068
   0.44466081  0.10177982  0.00000000
   0.84466100  0.30177972  0.60818130
   0.69466090  0.35177982  0.80409068
   0.54466081  0.40177983  0.00000000
   0.94466096  0.60177970  0.60818130
   0.79466093  0.65177977  0.80409068
   0.64466083  0.70177984  0.00000000
   0.44466096  0.10177970  0.60818130
   0.29466090  0.15177979  0.80409068
   0.14466080  0.20177983  0.00000000
   0.54466104  0.40177977  0.60818130
   0.39466095  0.45177978  0.80409068
   0.24466087  0.50177985  0.00000000
   0.64466095  0.70177972  0.60818130
   0.49466088  0.75177979  0.80409068
   0.34466082  0.80177993  0.00000000
   0.14466096  0.20177972  0.60818130
   0.99466091  0.25177979  0.80409068
   0.84466076  0.30177987  0.00000000
   0.24466094  0.50177973  0.60818130
   0.09466087  0.55177981  0.80409068
   0.94466078  0.60177982  0.00000000
   0.34466091  0.80177969  0.60818130
   0.19466084  0.85177976  0.80409068
   0.04466072  0.90177989  0.00000000
   0.04466093  0.90177971  0.60818130
   0.89466083  0.95177984  0.80409068
   0.74466073  0.00177991  0.00000000
