 264 264   0   0
  0.2774202E+02  0.1958175E-08  0.1958175E-08  0.1910025E-08  0.5000000E-15
  1.000000000000000E-004
  CAR 
 Si and Ge interface calculation         
      6.63880799     -9.19109554  301      4.05105920      1.00000000
     -9.191  0.0000E+00  0.0000E+00  0.0000E+00  0.0000E+00
     -9.138  0.0000E+00  0.0000E+00  0.0000E+00  0.0000E+00
     -9.086  0.0000E+00  0.0000E+00  0.0000E+00  0.0000E+00
     -9.033  0.0000E+00  0.0000E+00  0.0000E+00  0.0000E+00
     -8.980  0.0000E+00  0.0000E+00  0.0000E+00  0.0000E+00
     -8.927  0.0000E+00  0.0000E+00  0.0000E+00  0.0000E+00
     -8.874  0.0000E+00  0.0000E+00  0.0000E+00  0.0000E+00
     -8.822  0.0000E+00  0.0000E+00  0.0000E+00  0.0000E+00
     -8.769  0.0000E+00  0.0000E+00  0.0000E+00  0.0000E+00
     -8.716  0.0000E+00  0.0000E+00  0.0000E+00  0.0000E+00
     -8.663  0.0000E+00  0.0000E+00  0.0000E+00  0.0000E+00
     -8.611  0.0000E+00  0.0000E+00  0.0000E+00  0.0000E+00
     -8.558  0.0000E+00  0.0000E+00  0.0000E+00  0.0000E+00
     -8.505  0.9623E-05  0.3307E-05  0.5078E-06  0.1745E-06
     -8.452  0.2113E+02  0.1963E+02  0.1115E+01  0.1036E+01
     -8.400  0.1678E+02  0.1828E+02  0.2000E+01  0.2000E+01
     -8.347  0.0000E+00  0.0000E+00  0.2000E+01  0.2000E+01
     -8.294  0.2360E-05  0.7533E-06  0.2000E+01  0.2000E+01
     -8.241  0.1898E+02  0.1872E+02  0.3001E+01  0.2988E+01
     -8.189  0.1252E+02  0.1213E+02  0.3662E+01  0.3628E+01
     -8.136  0.1470E+02  0.1482E+02  0.4438E+01  0.4410E+01
     -8.083  0.1011E+02  0.1028E+02  0.4972E+01  0.4952E+01
     -8.030  0.1931E+02  0.1957E+02  0.5991E+01  0.5985E+01
     -7.977  0.7840E+01  0.6526E+01  0.6405E+01  0.6329E+01
     -7.925  0.3672E+02  0.3729E+02  0.8343E+01  0.8297E+01
     -7.872  0.2990E+01  0.3855E+01  0.8500E+01  0.8500E+01
     -7.819  0.1822E+02  0.1785E+02  0.9462E+01  0.9442E+01
     -7.766  0.1960E+02  0.1991E+02  0.1050E+02  0.1049E+02
     -7.714  0.9645E+01  0.9627E+01  0.1101E+02  0.1100E+02
     -7.661  0.3493E+02  0.3387E+02  0.1285E+02  0.1279E+02
     -7.608  0.1236E+02  0.1350E+02  0.1350E+02  0.1350E+02
     -7.555  0.3659E+02  0.3590E+02  0.1543E+02  0.1539E+02
     -7.503  0.9959E+01  0.1006E+02  0.1596E+02  0.1593E+02
     -7.450  0.1299E+02  0.1291E+02  0.1664E+02  0.1661E+02
     -7.397  0.1627E+02  0.1693E+02  0.1750E+02  0.1750E+02
     -7.344  0.1390E+02  0.1248E+02  0.1823E+02  0.1816E+02
     -7.292  0.3353E+02  0.3492E+02  0.2000E+02  0.2000E+02
     -7.239  0.3280E+02  0.3153E+02  0.2173E+02  0.2166E+02
     -7.186  0.2041E+02  0.2074E+02  0.2281E+02  0.2276E+02
     -7.133  0.3217E+02  0.3292E+02  0.2451E+02  0.2450E+02
     -7.080  0.2469E+02  0.2370E+02  0.2581E+02  0.2575E+02
     -7.028  0.2154E+02  0.2057E+02  0.2695E+02  0.2683E+02
     -6.975  0.3887E+02  0.4103E+02  0.2900E+02  0.2900E+02
     -6.922  0.3684E+02  0.3477E+02  0.3094E+02  0.3083E+02
     -6.869  0.3543E+02  0.3486E+02  0.3281E+02  0.3267E+02
     -6.817  0.4715E+02  0.4786E+02  0.3530E+02  0.3520E+02
     -6.764  0.2983E+02  0.3003E+02  0.3687E+02  0.3678E+02
     -6.711  0.5655E+02  0.5534E+02  0.3986E+02  0.3970E+02
     -6.658  0.2835E+02  0.2826E+02  0.4135E+02  0.4119E+02
     -6.606  0.3249E+02  0.3498E+02  0.4307E+02  0.4304E+02
     -6.553  0.5018E+02  0.4732E+02  0.4572E+02  0.4553E+02
     -6.500  0.3968E+02  0.4042E+02  0.4781E+02  0.4767E+02
     -6.447  0.4159E+02  0.4416E+02  0.5000E+02  0.5000E+02
     -6.394  0.5694E+02  0.5434E+02  0.5301E+02  0.5286E+02
     -6.342  0.4822E+02  0.4996E+02  0.5555E+02  0.5550E+02
     -6.289  0.4172E+02  0.4030E+02  0.5775E+02  0.5763E+02
     -6.236  0.5503E+02  0.5529E+02  0.6066E+02  0.6055E+02
     -6.183  0.4561E+02  0.4724E+02  0.6307E+02  0.6304E+02
     -6.131  0.6275E+02  0.5947E+02  0.6638E+02  0.6618E+02
     -6.078  0.7604E+02  0.7777E+02  0.7039E+02  0.7028E+02
     -6.025  0.8149E+02  0.8062E+02  0.7469E+02  0.7453E+02
     -5.972  0.5731E+02  0.5686E+02  0.7771E+02  0.7753E+02
     -5.920  0.7143E+02  0.7445E+02  0.8148E+02  0.8146E+02
     -5.867  0.5334E+02  0.5078E+02  0.8430E+02  0.8414E+02
     -5.814  0.7434E+02  0.7397E+02  0.8822E+02  0.8805E+02
     -5.761  0.6582E+02  0.6465E+02  0.9169E+02  0.9146E+02
     -5.709  0.8865E+02  0.8805E+02  0.9637E+02  0.9610E+02
     -5.656  0.9875E+02  0.9989E+02  0.1016E+03  0.1014E+03
     -5.603  0.7476E+02  0.7551E+02  0.1055E+03  0.1054E+03
     -5.550  0.7044E+02  0.6935E+02  0.1092E+03  0.1090E+03
     -5.497  0.5942E+02  0.5922E+02  0.1124E+03  0.1121E+03
     -5.445  0.8187E+02  0.8180E+02  0.1167E+03  0.1165E+03
     -5.392  0.7514E+02  0.7552E+02  0.1207E+03  0.1204E+03
     -5.339  0.8567E+02  0.8647E+02  0.1252E+03  0.1250E+03
     -5.286  0.9665E+02  0.9372E+02  0.1303E+03  0.1300E+03
     -5.234  0.6767E+02  0.6950E+02  0.1339E+03  0.1336E+03
     -5.181  0.7386E+02  0.7452E+02  0.1377E+03  0.1376E+03
     -5.128  0.6435E+02  0.6458E+02  0.1411E+03  0.1410E+03
     -5.075  0.7161E+02  0.7272E+02  0.1449E+03  0.1448E+03
     -5.023  0.8605E+02  0.8561E+02  0.1495E+03  0.1493E+03
     -4.970  0.5533E+02  0.5367E+02  0.1524E+03  0.1521E+03
     -4.917  0.8080E+02  0.8275E+02  0.1566E+03  0.1565E+03
     -4.864  0.7497E+02  0.7134E+02  0.1606E+03  0.1603E+03
     -4.811  0.9259E+02  0.9278E+02  0.1655E+03  0.1652E+03
     -4.759  0.1057E+03  0.1070E+03  0.1711E+03  0.1708E+03
     -4.706  0.1165E+03  0.1144E+03  0.1772E+03  0.1769E+03
     -4.653  0.9568E+02  0.9550E+02  0.1823E+03  0.1819E+03
     -4.600  0.1071E+03  0.1095E+03  0.1879E+03  0.1877E+03
     -4.548  0.1005E+03  0.1020E+03  0.1932E+03  0.1931E+03
     -4.495  0.9811E+02  0.9422E+02  0.1984E+03  0.1980E+03
     -4.442  0.1048E+03  0.1028E+03  0.2039E+03  0.2034E+03
     -4.389  0.1266E+03  0.1249E+03  0.2106E+03  0.2100E+03
     -4.337  0.8853E+02  0.9424E+02  0.2153E+03  0.2150E+03
     -4.284  0.6865E+02  0.6872E+02  0.2189E+03  0.2186E+03
     -4.231  0.6817E+02  0.6866E+02  0.2225E+03  0.2223E+03
     -4.178  0.1003E+03  0.9779E+02  0.2278E+03  0.2274E+03
     -4.126  0.8638E+02  0.8926E+02  0.2323E+03  0.2321E+03
     -4.073  0.6067E+02  0.6135E+02  0.2355E+03  0.2354E+03
     -4.020  0.6552E+02  0.6487E+02  0.2390E+03  0.2388E+03
     -3.967  0.3420E+02  0.3429E+02  0.2408E+03  0.2406E+03
     -3.914  0.4373E+02  0.4482E+02  0.2431E+03  0.2430E+03
     -3.862  0.5493E+02  0.5225E+02  0.2460E+03  0.2457E+03
     -3.809  0.5492E+02  0.5764E+02  0.2489E+03  0.2488E+03
     -3.756  0.5880E+02  0.5809E+02  0.2520E+03  0.2518E+03
     -3.703  0.6790E+02  0.6553E+02  0.2556E+03  0.2553E+03
     -3.651  0.7167E+02  0.7166E+02  0.2594E+03  0.2591E+03
     -3.598  0.6811E+02  0.6944E+02  0.2630E+03  0.2627E+03
     -3.545  0.5750E+02  0.5792E+02  0.2660E+03  0.2658E+03
     -3.492  0.8037E+02  0.7882E+02  0.2702E+03  0.2699E+03
     -3.440  0.8263E+02  0.8294E+02  0.2746E+03  0.2743E+03
     -3.387  0.5010E+02  0.5044E+02  0.2772E+03  0.2770E+03
     -3.334  0.1038E+03  0.1059E+03  0.2827E+03  0.2826E+03
     -3.281  0.6882E+02  0.6477E+02  0.2864E+03  0.2860E+03
     -3.228  0.7301E+02  0.7314E+02  0.2902E+03  0.2898E+03
     -3.176  0.7214E+02  0.7217E+02  0.2940E+03  0.2937E+03
     -3.123  0.7320E+02  0.7411E+02  0.2979E+03  0.2976E+03
     -3.070  0.7621E+02  0.7438E+02  0.3019E+03  0.3015E+03
     -3.017  0.6815E+02  0.7260E+02  0.3055E+03  0.3053E+03
     -2.965  0.7574E+02  0.7368E+02  0.3095E+03  0.3092E+03
     -2.912  0.1094E+03  0.1080E+03  0.3153E+03  0.3149E+03
     -2.859  0.7856E+02  0.8015E+02  0.3194E+03  0.3191E+03
     -2.806  0.9563E+02  0.9469E+02  0.3245E+03  0.3241E+03
     -2.754  0.9618E+02  0.9649E+02  0.3295E+03  0.3292E+03
     -2.701  0.9474E+02  0.9686E+02  0.3345E+03  0.3343E+03
     -2.648  0.1044E+03  0.1014E+03  0.3400E+03  0.3397E+03
     -2.595  0.1152E+03  0.1142E+03  0.3461E+03  0.3457E+03
     -2.543  0.1205E+03  0.1197E+03  0.3525E+03  0.3520E+03
     -2.490  0.1059E+03  0.1090E+03  0.3581E+03  0.3578E+03
     -2.437  0.1066E+03  0.1054E+03  0.3637E+03  0.3633E+03
     -2.384  0.9082E+02  0.9400E+02  0.3685E+03  0.3683E+03
     -2.331  0.1004E+03  0.9834E+02  0.3738E+03  0.3735E+03
     -2.279  0.1035E+03  0.1034E+03  0.3792E+03  0.3789E+03
     -2.226  0.6859E+02  0.7038E+02  0.3829E+03  0.3827E+03
     -2.173  0.3576E+02  0.3926E+02  0.3847E+03  0.3847E+03
     -2.120  0.4711E+02  0.4447E+02  0.3872E+03  0.3871E+03
     -2.068  0.7612E+02  0.7386E+02  0.3912E+03  0.3910E+03
     -2.015  0.7950E+02  0.7965E+02  0.3954E+03  0.3952E+03
     -1.962  0.9378E+02  0.9476E+02  0.4004E+03  0.4002E+03
     -1.909  0.9856E+02  0.9799E+02  0.4056E+03  0.4053E+03
     -1.857  0.7715E+02  0.7680E+02  0.4097E+03  0.4094E+03
     -1.804  0.6702E+02  0.6628E+02  0.4132E+03  0.4129E+03
     -1.751  0.1052E+03  0.1031E+03  0.4188E+03  0.4183E+03
     -1.698  0.1099E+03  0.1114E+03  0.4246E+03  0.4242E+03
     -1.646  0.8048E+02  0.8085E+02  0.4288E+03  0.4285E+03
     -1.593  0.8554E+02  0.8387E+02  0.4333E+03  0.4329E+03
     -1.540  0.7257E+02  0.7790E+02  0.4371E+03  0.4370E+03
     -1.487  0.5407E+02  0.5357E+02  0.4400E+03  0.4398E+03
     -1.434  0.5210E+02  0.5189E+02  0.4427E+03  0.4426E+03
     -1.382  0.6429E+02  0.6352E+02  0.4461E+03  0.4459E+03
     -1.329  0.7029E+02  0.7032E+02  0.4498E+03  0.4496E+03
     -1.276  0.3017E+02  0.3163E+02  0.4514E+03  0.4513E+03
     -1.223  0.6368E+02  0.6259E+02  0.4548E+03  0.4546E+03
     -1.171  0.6185E+02  0.6127E+02  0.4581E+03  0.4579E+03
     -1.118  0.5411E+02  0.5571E+02  0.4609E+03  0.4608E+03
     -1.065  0.5119E+02  0.4995E+02  0.4636E+03  0.4634E+03
     -1.012  0.5049E+02  0.5090E+02  0.4663E+03  0.4661E+03
     -0.960  0.3525E+02  0.3702E+02  0.4681E+03  0.4681E+03
     -0.907  0.3523E+02  0.3412E+02  0.4700E+03  0.4699E+03
     -0.854  0.7555E+02  0.7225E+02  0.4740E+03  0.4737E+03
     -0.801  0.7550E+02  0.7674E+02  0.4780E+03  0.4777E+03
     -0.748  0.3436E+02  0.3684E+02  0.4798E+03  0.4797E+03
     -0.696  0.8255E+02  0.7774E+02  0.4841E+03  0.4838E+03
     -0.643  0.4696E+02  0.5207E+02  0.4866E+03  0.4865E+03
     -0.590  0.4003E+02  0.4062E+02  0.4887E+03  0.4887E+03
     -0.537  0.2324E+02  0.2237E+02  0.4900E+03  0.4898E+03
     -0.485  0.1983E+02  0.1977E+02  0.4910E+03  0.4909E+03
     -0.432  0.2799E+02  0.2864E+02  0.4925E+03  0.4924E+03
     -0.379  0.4556E+02  0.4312E+02  0.4949E+03  0.4947E+03
     -0.326  0.5917E+02  0.5986E+02  0.4980E+03  0.4978E+03
     -0.274  0.8156E+02  0.8047E+02  0.5023E+03  0.5021E+03
     -0.221  0.7891E+02  0.7946E+02  0.5065E+03  0.5063E+03
     -0.168  0.1135E+03  0.1118E+03  0.5125E+03  0.5122E+03
     -0.115  0.1097E+03  0.1112E+03  0.5183E+03  0.5180E+03
     -0.063  0.9485E+02  0.9421E+02  0.5233E+03  0.5230E+03
     -0.010  0.1145E+03  0.1130E+03  0.5293E+03  0.5290E+03
      0.043  0.1333E+03  0.1322E+03  0.5363E+03  0.5359E+03
      0.096  0.1168E+03  0.1186E+03  0.5425E+03  0.5422E+03
      0.149  0.1154E+03  0.1177E+03  0.5486E+03  0.5484E+03
      0.201  0.8150E+02  0.7978E+02  0.5529E+03  0.5526E+03
      0.254  0.7935E+02  0.8113E+02  0.5571E+03  0.5569E+03
      0.307  0.8120E+02  0.7893E+02  0.5614E+03  0.5611E+03
      0.360  0.9694E+02  0.9859E+02  0.5665E+03  0.5663E+03
      0.412  0.1093E+03  0.1070E+03  0.5722E+03  0.5719E+03
      0.465  0.8801E+02  0.8901E+02  0.5769E+03  0.5766E+03
      0.518  0.9528E+02  0.9541E+02  0.5819E+03  0.5816E+03
      0.571  0.1196E+03  0.1178E+03  0.5882E+03  0.5879E+03
      0.623  0.1209E+03  0.1243E+03  0.5946E+03  0.5944E+03
      0.676  0.1212E+03  0.1153E+03  0.6010E+03  0.6005E+03
      0.729  0.1529E+03  0.1553E+03  0.6091E+03  0.6087E+03
      0.782  0.1409E+03  0.1410E+03  0.6165E+03  0.6161E+03
      0.835  0.1012E+03  0.1027E+03  0.6218E+03  0.6216E+03
      0.887  0.1141E+03  0.1119E+03  0.6279E+03  0.6275E+03
      0.940  0.1036E+03  0.1069E+03  0.6333E+03  0.6331E+03
      0.993  0.1110E+03  0.1088E+03  0.6392E+03  0.6388E+03
      1.046  0.1322E+03  0.1310E+03  0.6462E+03  0.6458E+03
      1.098  0.1697E+03  0.1669E+03  0.6551E+03  0.6546E+03
      1.151  0.1775E+03  0.1791E+03  0.6645E+03  0.6640E+03
      1.204  0.1940E+03  0.1945E+03  0.6747E+03  0.6743E+03
      1.257  0.1699E+03  0.1688E+03  0.6837E+03  0.6832E+03
      1.309  0.1877E+03  0.1856E+03  0.6936E+03  0.6930E+03
      1.362  0.1823E+03  0.1866E+03  0.7032E+03  0.7028E+03
      1.415  0.1486E+03  0.1496E+03  0.7110E+03  0.7107E+03
      1.468  0.1364E+03  0.1318E+03  0.7182E+03  0.7177E+03
      1.520  0.2223E+03  0.2238E+03  0.7300E+03  0.7295E+03
      1.573  0.1865E+03  0.1843E+03  0.7398E+03  0.7392E+03
      1.626  0.1935E+03  0.1950E+03  0.7500E+03  0.7495E+03
      1.679  0.1757E+03  0.1739E+03  0.7593E+03  0.7587E+03
      1.732  0.1987E+03  0.2003E+03  0.7698E+03  0.7692E+03
      1.784  0.1691E+03  0.1697E+03  0.7787E+03  0.7782E+03
      1.837  0.1712E+03  0.1724E+03  0.7877E+03  0.7873E+03
      1.890  0.1549E+03  0.1510E+03  0.7959E+03  0.7953E+03
      1.943  0.2029E+03  0.2021E+03  0.8066E+03  0.8059E+03
      1.995  0.1776E+03  0.1816E+03  0.8160E+03  0.8155E+03
      2.048  0.1769E+03  0.1755E+03  0.8253E+03  0.8248E+03
      2.101  0.2084E+03  0.2045E+03  0.8363E+03  0.8356E+03
      2.154  0.1829E+03  0.1862E+03  0.8460E+03  0.8454E+03
      2.206  0.1351E+03  0.1367E+03  0.8531E+03  0.8526E+03
      2.259  0.1601E+03  0.1596E+03  0.8615E+03  0.8610E+03
      2.312  0.1590E+03  0.1585E+03  0.8699E+03  0.8694E+03
      2.365  0.1816E+03  0.1781E+03  0.8795E+03  0.8788E+03
      2.418  0.1879E+03  0.1940E+03  0.8894E+03  0.8890E+03
      2.470  0.1322E+03  0.1321E+03  0.8964E+03  0.8960E+03
      2.523  0.1315E+03  0.1308E+03  0.9033E+03  0.9029E+03
      2.576  0.1251E+03  0.1232E+03  0.9099E+03  0.9094E+03
      2.629  0.1486E+03  0.1492E+03  0.9178E+03  0.9173E+03
      2.681  0.1217E+03  0.1236E+03  0.9242E+03  0.9238E+03
      2.734  0.1600E+03  0.1555E+03  0.9326E+03  0.9320E+03
      2.787  0.1354E+03  0.1383E+03  0.9398E+03  0.9393E+03
      2.840  0.1422E+03  0.1370E+03  0.9473E+03  0.9465E+03
      2.892  0.1644E+03  0.1660E+03  0.9560E+03  0.9553E+03
      2.945  0.9362E+02  0.9252E+02  0.9609E+03  0.9602E+03
      2.998  0.1053E+03  0.1028E+03  0.9665E+03  0.9656E+03
      3.051  0.1384E+03  0.1422E+03  0.9738E+03  0.9731E+03
      3.103  0.1146E+03  0.1168E+03  0.9798E+03  0.9793E+03
      3.156  0.1131E+03  0.1134E+03  0.9858E+03  0.9852E+03
      3.209  0.1072E+03  0.1062E+03  0.9914E+03  0.9908E+03
      3.262  0.1135E+03  0.1121E+03  0.9974E+03  0.9968E+03
      3.315  0.1135E+03  0.1132E+03  0.1003E+04  0.1003E+04
      3.367  0.8444E+02  0.8561E+02  0.1008E+04  0.1007E+04
      3.420  0.6774E+02  0.7099E+02  0.1011E+04  0.1011E+04
      3.473  0.9552E+02  0.9265E+02  0.1016E+04  0.1016E+04
      3.526  0.8682E+02  0.8756E+02  0.1021E+04  0.1021E+04
      3.578  0.9067E+02  0.8887E+02  0.1026E+04  0.1025E+04
      3.631  0.1003E+03  0.1047E+03  0.1031E+04  0.1031E+04
      3.684  0.6741E+02  0.6557E+02  0.1035E+04  0.1034E+04
      3.737  0.5126E+02  0.5797E+02  0.1037E+04  0.1037E+04
      3.789  0.5018E+02  0.4661E+02  0.1040E+04  0.1040E+04
      3.842  0.5357E+02  0.5433E+02  0.1043E+04  0.1043E+04
      3.895  0.2697E+02  0.3072E+02  0.1044E+04  0.1044E+04
      3.948  0.6817E+02  0.5387E+02  0.1048E+04  0.1047E+04
      4.000  0.6144E+02  0.6622E+02  0.1051E+04  0.1051E+04
      4.053  0.1025E+03  0.8897E+02  0.1057E+04  0.1055E+04
      4.106  0.1324E+03  0.1361E+03  0.1064E+04  0.1062E+04
      4.159  0.7905E+02  0.8949E+02  0.1068E+04  0.1067E+04
      4.212  0.9195E+02  0.8361E+02  0.1073E+04  0.1072E+04
      4.264  0.9310E+02  0.9306E+02  0.1077E+04  0.1076E+04
      4.317  0.1019E+03  0.1040E+03  0.1083E+04  0.1082E+04
      4.370  0.1403E+03  0.1374E+03  0.1090E+04  0.1089E+04
      4.423  0.1093E+03  0.1103E+03  0.1096E+04  0.1095E+04
      4.475  0.1256E+03  0.1295E+03  0.1103E+04  0.1102E+04
      4.528  0.9533E+02  0.9965E+02  0.1108E+04  0.1107E+04
      4.581  0.1025E+03  0.1033E+03  0.1113E+04  0.1113E+04
      4.634  0.7545E+02  0.7368E+02  0.1117E+04  0.1116E+04
      4.686  0.1468E+03  0.1418E+03  0.1125E+04  0.1124E+04
      4.739  0.1050E+03  0.1114E+03  0.1130E+04  0.1130E+04
      4.792  0.1186E+03  0.1093E+03  0.1137E+04  0.1136E+04
      4.845  0.1393E+03  0.1422E+03  0.1144E+04  0.1143E+04
      4.898  0.1231E+03  0.1307E+03  0.1150E+04  0.1150E+04
      4.950  0.1237E+03  0.1218E+03  0.1157E+04  0.1156E+04
      5.003  0.1238E+03  0.1217E+03  0.1164E+04  0.1163E+04
      5.056  0.1320E+03  0.1315E+03  0.1170E+04  0.1170E+04
      5.109  0.1121E+03  0.1176E+03  0.1176E+04  0.1176E+04
      5.161  0.9968E+02  0.9828E+02  0.1182E+04  0.1181E+04
      5.214  0.1008E+03  0.9998E+02  0.1187E+04  0.1186E+04
      5.267  0.1078E+03  0.1063E+03  0.1193E+04  0.1192E+04
      5.320  0.1071E+03  0.1097E+03  0.1198E+04  0.1198E+04
      5.372  0.1274E+03  0.1289E+03  0.1205E+04  0.1205E+04
      5.425  0.1535E+03  0.1484E+03  0.1213E+04  0.1212E+04
      5.478  0.1462E+03  0.1465E+03  0.1221E+04  0.1220E+04
      5.531  0.1445E+03  0.1457E+03  0.1228E+04  0.1228E+04
      5.583  0.1509E+03  0.1514E+03  0.1236E+04  0.1236E+04
      5.636  0.1327E+03  0.1346E+03  0.1243E+04  0.1243E+04
      5.689  0.1022E+03  0.1032E+03  0.1249E+04  0.1248E+04
      5.742  0.1254E+03  0.1267E+03  0.1255E+04  0.1255E+04
      5.795  0.1147E+03  0.1121E+03  0.1261E+04  0.1261E+04
      5.847  0.1182E+03  0.1215E+03  0.1268E+04  0.1267E+04
      5.900  0.7326E+02  0.7727E+02  0.1272E+04  0.1271E+04
      5.953  0.7545E+01  0.9930E+01  0.1272E+04  0.1272E+04
      6.006  0.0000E+00  0.0000E+00  0.1272E+04  0.1272E+04
      6.058  0.0000E+00  0.0000E+00  0.1272E+04  0.1272E+04
      6.111  0.0000E+00  0.0000E+00  0.1272E+04  0.1272E+04
      6.164  0.0000E+00  0.0000E+00  0.1272E+04  0.1272E+04
      6.217  0.0000E+00  0.0000E+00  0.1272E+04  0.1272E+04
      6.269  0.0000E+00  0.0000E+00  0.1272E+04  0.1272E+04
      6.322  0.0000E+00  0.0000E+00  0.1272E+04  0.1272E+04
      6.375  0.0000E+00  0.0000E+00  0.1272E+04  0.1272E+04
      6.428  0.0000E+00  0.0000E+00  0.1272E+04  0.1272E+04
      6.481  0.0000E+00  0.0000E+00  0.1272E+04  0.1272E+04
      6.533  0.0000E+00  0.0000E+00  0.1272E+04  0.1272E+04
      6.586  0.0000E+00  0.0000E+00  0.1272E+04  0.1272E+04
      6.639  0.0000E+00  0.0000E+00  0.1272E+04  0.1272E+04
