 120 120   0   0
  0.1318225E+02  0.1330318E-08  0.1629300E-08  0.7994750E-09  0.5000000E-15
  1.000000000000000E-004
  CAR 
 Si and Ge interface calculation         
      7.66200278    -14.83903486  301      4.34801722      1.00000000
    -14.839  0.0000E+00  0.0000E+00  0.0000E+00  0.0000E+00
    -14.764  0.0000E+00  0.0000E+00  0.0000E+00  0.0000E+00
    -14.689  0.0000E+00  0.0000E+00  0.0000E+00  0.0000E+00
    -14.614  0.0000E+00  0.0000E+00  0.0000E+00  0.0000E+00
    -14.539  0.0000E+00  0.0000E+00  0.0000E+00  0.0000E+00
    -14.464  0.0000E+00  0.0000E+00  0.0000E+00  0.0000E+00
    -14.389  0.0000E+00  0.0000E+00  0.0000E+00  0.0000E+00
    -14.314  0.0000E+00  0.0000E+00  0.0000E+00  0.0000E+00
    -14.239  0.0000E+00  0.0000E+00  0.0000E+00  0.0000E+00
    -14.164  0.0000E+00  0.0000E+00  0.0000E+00  0.0000E+00
    -14.089  0.0000E+00  0.0000E+00  0.0000E+00  0.0000E+00
    -14.014  0.0000E+00  0.0000E+00  0.0000E+00  0.0000E+00
    -13.939  0.0000E+00  0.0000E+00  0.0000E+00  0.0000E+00
    -13.864  0.1958E-10  0.1912E-14  0.1469E-11  0.1434E-15
    -13.789  0.4444E+01  0.4420E+01  0.3333E+00  0.3315E+00
    -13.714  0.1043E+02  0.8811E+01  0.1116E+01  0.9942E+00
    -13.639  0.1623E+02  0.1759E+02  0.2333E+01  0.2333E+01
    -13.564  0.5676E-01  0.8783E-03  0.2338E+01  0.2333E+01
    -13.489  0.2603E+02  0.2322E+02  0.4290E+01  0.4075E+01
    -13.414  0.8872E+01  0.1193E+02  0.4999E+01  0.4970E+01
    -13.339  0.1735E+02  0.1438E+02  0.6301E+01  0.6078E+01
    -13.264  0.6745E-01  0.2751E+01  0.6338E+01  0.6333E+01
    -13.189  0.1751E+02  0.1638E+02  0.7652E+01  0.7562E+01
    -13.114  0.1732E+02  0.1592E+02  0.8965E+01  0.8756E+01
    -13.039  0.9349E+01  0.1213E+02  0.9667E+01  0.9667E+01
    -12.964  0.5825E+01  0.1004E+01  0.1010E+02  0.9742E+01
    -12.889  0.1196E+02  0.1677E+02  0.1100E+02  0.1100E+02
    -12.814  0.2217E+02  0.2045E+02  0.1266E+02  0.1253E+02
    -12.739  0.2178E+02  0.1933E+02  0.1430E+02  0.1412E+02
    -12.664  0.8870E+01  0.1178E+02  0.1500E+02  0.1500E+02
    -12.589  0.1824E+02  0.1443E+02  0.1637E+02  0.1608E+02
    -12.514  0.4537E+01  0.7787E+01  0.1671E+02  0.1667E+02
    -12.439  0.1722E+02  0.1776E+02  0.1800E+02  0.1800E+02
    -12.364  0.7205E+01  0.3354E+01  0.1854E+02  0.1825E+02
    -12.289  0.1534E+02  0.1921E+02  0.1982E+02  0.1969E+02
    -12.214  0.2518E+01  0.4032E+01  0.2001E+02  0.2000E+02
    -12.139  0.3175E+02  0.3018E+02  0.2239E+02  0.2226E+02
    -12.064  0.1237E+02  0.1141E+02  0.2332E+02  0.2319E+02
    -11.989  0.8858E+01  0.8888E+01  0.2400E+02  0.2400E+02
    -11.914  0.2821E+01  0.9299E+00  0.2421E+02  0.2407E+02
    -11.839  0.9040E+01  0.7270E+01  0.2489E+02  0.2462E+02
    -11.764  0.1294E-07  0.5133E+01  0.2500E+02  0.2500E+02
    -11.689  0.1167E+02  0.1019E+02  0.2588E+02  0.2576E+02
    -11.614  0.2382E+02  0.2481E+02  0.2766E+02  0.2762E+02
    -11.539  0.4444E+01  0.4444E+01  0.2800E+02  0.2800E+02
    -11.464  0.1538E-06  0.3934E-09  0.2800E+02  0.2800E+02
    -11.389  0.4444E+01  0.4444E+01  0.2833E+02  0.2833E+02
    -11.314  0.8888E+01  0.8874E+01  0.2900E+02  0.2900E+02
    -11.239  0.0000E+00  0.0000E+00  0.2900E+02  0.2900E+02
    -11.164  0.7152E-04  0.7165E-06  0.2900E+02  0.2900E+02
    -11.089  0.1773E+02  0.1735E+02  0.3033E+02  0.3030E+02
    -11.014  0.3298E+02  0.2954E+02  0.3281E+02  0.3255E+02
    -10.939  0.2758E+02  0.2744E+02  0.3489E+02  0.3461E+02
    -10.864  0.6297E+01  0.5823E+01  0.3547E+02  0.3515E+02
    -10.789  0.1589E+02  0.1981E+02  0.3666E+02  0.3663E+02
    -10.714  0.4441E+01  0.4418E+01  0.3700E+02  0.3700E+02
    -10.639  0.8531E+01  0.6827E+01  0.3764E+02  0.3751E+02
    -10.564  0.1226E+02  0.8665E+01  0.3859E+02  0.3828E+02
    -10.489  0.9840E+01  0.1235E+02  0.3933E+02  0.3929E+02
    -10.414  0.1346E+02  0.1333E+02  0.4034E+02  0.4033E+02
    -10.339  0.1819E+02  0.1781E+02  0.4171E+02  0.4167E+02
    -10.264  0.1721E+02  0.1735E+02  0.4300E+02  0.4297E+02
    -10.189  0.6376E+01  0.4026E+01  0.4348E+02  0.4330E+02
    -10.114  0.1113E+02  0.1349E+02  0.4433E+02  0.4433E+02
    -10.039  0.6565E+01  0.2162E+01  0.4483E+02  0.4450E+02
     -9.964  0.1869E+01  0.6727E+01  0.4500E+02  0.4500E+02
     -9.889  0.8864E+01  0.8888E+01  0.4567E+02  0.4567E+02
     -9.814  0.2297E-09  0.1881E-13  0.4567E+02  0.4567E+02
     -9.739  0.8760E+01  0.7189E+01  0.4632E+02  0.4621E+02
     -9.664  0.1083E+02  0.7790E+01  0.4715E+02  0.4679E+02
     -9.589  0.2472E+02  0.2944E+02  0.4900E+02  0.4900E+02
     -9.514  0.6838E+01  0.1009E+01  0.4951E+02  0.4908E+02
     -9.439  0.4079E+02  0.3842E+02  0.5257E+02  0.5196E+02
     -9.364  0.1772E+02  0.2641E+02  0.5400E+02  0.5397E+02
     -9.289  0.1775E+02  0.1718E+02  0.5533E+02  0.5529E+02
     -9.214  0.1420E+02  0.1232E+02  0.5640E+02  0.5626E+02
     -9.139  0.2592E+02  0.1983E+02  0.5835E+02  0.5778E+02
     -9.064  0.2573E+02  0.3152E+02  0.6034E+02  0.6014E+02
     -8.989  0.1332E+02  0.1092E+02  0.6135E+02  0.6102E+02
     -8.914  0.3126E+02  0.3139E+02  0.6371E+02  0.6338E+02
     -8.839  0.2114E+02  0.2531E+02  0.6533E+02  0.6531E+02
     -8.764  0.1332E+02  0.1200E+02  0.6633E+02  0.6623E+02
     -8.689  0.3111E+02  0.3203E+02  0.6867E+02  0.6866E+02
     -8.614  0.1357E+02  0.8401E+01  0.6968E+02  0.6930E+02
     -8.539  0.1706E+02  0.2252E+02  0.7100E+02  0.7100E+02
     -8.464  0.7959E+01  0.4820E+01  0.7160E+02  0.7136E+02
     -8.389  0.2240E+02  0.1777E+02  0.7329E+02  0.7274E+02
     -8.314  0.2722E+02  0.3173E+02  0.7535E+02  0.7517E+02
     -8.239  0.1916E+02  0.1975E+02  0.7683E+02  0.7668E+02
     -8.164  0.1960E+02  0.2167E+02  0.7833E+02  0.7833E+02
     -8.089  0.2185E+02  0.1911E+02  0.7997E+02  0.7977E+02
     -8.014  0.2241E+01  0.2891E+01  0.8017E+02  0.8001E+02
     -7.939  0.2442E+02  0.2592E+02  0.8200E+02  0.8196E+02
     -7.864  0.4437E+01  0.4101E+01  0.8233E+02  0.8231E+02
     -7.789  0.0000E+00  0.0000E+00  0.8233E+02  0.8233E+02
     -7.714  0.4289E-02  0.1844E-04  0.8233E+02  0.8233E+02
     -7.639  0.8884E+01  0.8888E+01  0.8300E+02  0.8300E+02
     -7.564  0.0000E+00  0.0000E+00  0.8300E+02  0.8300E+02
     -7.489  0.1765E+01  0.2518E+00  0.8313E+02  0.8302E+02
     -7.414  0.9067E+01  0.7134E+01  0.8381E+02  0.8355E+02
     -7.339  0.2504E+01  0.5947E+01  0.8400E+02  0.8400E+02
     -7.264  0.5598E+01  0.4821E+01  0.8442E+02  0.8436E+02
     -7.189  0.5947E+01  0.5270E+01  0.8487E+02  0.8476E+02
     -7.114  0.1712E+01  0.3242E+01  0.8500E+02  0.8500E+02
     -7.039  0.1815E+02  0.1485E+02  0.8636E+02  0.8611E+02
     -6.964  0.1278E+02  0.1586E+02  0.8733E+02  0.8733E+02
     -6.889  0.3328E+01  0.3157E+01  0.8758E+02  0.8757E+02
     -6.814  0.1024E+02  0.1002E+02  0.8835E+02  0.8834E+02
     -6.739  0.4196E+01  0.4420E+01  0.8867E+02  0.8867E+02
     -6.664  0.1979E-06  0.3421E-10  0.8867E+02  0.8867E+02
     -6.589  0.7303E+01  0.5937E+01  0.8921E+02  0.8911E+02
     -6.514  0.1535E+02  0.1570E+02  0.9037E+02  0.9029E+02
     -6.439  0.1682E+02  0.1369E+02  0.9163E+02  0.9132E+02
     -6.364  0.2517E+02  0.2446E+02  0.9360E+02  0.9316E+02
     -6.289  0.2228E+02  0.2428E+02  0.9530E+02  0.9501E+02
     -6.214  0.2890E+02  0.3057E+02  0.9747E+02  0.9733E+02
     -6.139  0.2605E+02  0.1885E+02  0.9943E+02  0.9878E+02
     -6.064  0.2578E+02  0.3432E+02  0.1015E+03  0.1014E+03
     -5.989  0.2853E+02  0.2672E+02  0.1036E+03  0.1034E+03
     -5.914  0.2735E+02  0.2710E+02  0.1057E+03  0.1054E+03
     -5.839  0.2321E+02  0.2329E+02  0.1074E+03  0.1072E+03
     -5.764  0.2902E+02  0.2515E+02  0.1096E+03  0.1091E+03
     -5.689  0.2541E+02  0.2795E+02  0.1115E+03  0.1113E+03
     -5.614  0.1953E+02  0.2147E+02  0.1131E+03  0.1129E+03
     -5.539  0.1846E+02  0.1625E+02  0.1144E+03  0.1142E+03
     -5.464  0.2823E+02  0.2855E+02  0.1166E+03  0.1163E+03
     -5.389  0.3168E+02  0.3450E+02  0.1191E+03  0.1189E+03
     -5.314  0.3408E+02  0.3164E+02  0.1216E+03  0.1213E+03
     -5.239  0.2487E+02  0.2776E+02  0.1235E+03  0.1234E+03
     -5.164  0.2671E+02  0.2475E+02  0.1255E+03  0.1253E+03
     -5.089  0.3480E+02  0.3495E+02  0.1282E+03  0.1280E+03
     -5.014  0.3029E+02  0.3004E+02  0.1305E+03  0.1302E+03
     -4.939  0.3223E+02  0.3272E+02  0.1329E+03  0.1327E+03
     -4.864  0.2214E+02  0.2207E+02  0.1346E+03  0.1344E+03
     -4.789  0.3160E+02  0.3150E+02  0.1370E+03  0.1368E+03
     -4.714  0.3050E+02  0.2934E+02  0.1393E+03  0.1390E+03
     -4.639  0.3242E+02  0.3273E+02  0.1418E+03  0.1415E+03
     -4.564  0.2579E+02  0.2897E+02  0.1438E+03  0.1436E+03
     -4.489  0.2275E+02  0.2221E+02  0.1455E+03  0.1453E+03
     -4.414  0.2052E+02  0.2056E+02  0.1471E+03  0.1468E+03
     -4.339  0.3220E+02  0.3340E+02  0.1496E+03  0.1494E+03
     -4.264  0.4049E+02  0.3839E+02  0.1527E+03  0.1523E+03
     -4.189  0.2756E+02  0.2749E+02  0.1547E+03  0.1543E+03
     -4.114  0.3502E+02  0.3772E+02  0.1574E+03  0.1572E+03
     -4.039  0.3917E+02  0.3719E+02  0.1604E+03  0.1600E+03
     -3.964  0.2800E+02  0.3160E+02  0.1626E+03  0.1624E+03
     -3.889  0.2455E+02  0.2144E+02  0.1644E+03  0.1640E+03
     -3.814  0.2734E+02  0.2785E+02  0.1665E+03  0.1662E+03
     -3.739  0.3739E+02  0.3616E+02  0.1693E+03  0.1689E+03
     -3.664  0.1985E+02  0.2183E+02  0.1709E+03  0.1707E+03
     -3.589  0.2394E+02  0.2325E+02  0.1727E+03  0.1724E+03
     -3.514  0.2091E+02  0.2299E+02  0.1743E+03  0.1742E+03
     -3.439  0.2375E+02  0.2347E+02  0.1761E+03  0.1759E+03
     -3.364  0.1277E+02  0.1297E+02  0.1771E+03  0.1769E+03
     -3.289  0.2536E+02  0.2614E+02  0.1790E+03  0.1789E+03
     -3.213  0.2935E+02  0.2594E+02  0.1812E+03  0.1808E+03
     -3.138  0.4020E+02  0.3947E+02  0.1842E+03  0.1838E+03
     -3.063  0.3268E+02  0.3520E+02  0.1867E+03  0.1865E+03
     -2.988  0.2831E+02  0.2762E+02  0.1889E+03  0.1886E+03
     -2.913  0.1954E+02  0.1834E+02  0.1903E+03  0.1900E+03
     -2.838  0.2764E+02  0.2630E+02  0.1924E+03  0.1920E+03
     -2.763  0.3464E+02  0.3471E+02  0.1951E+03  0.1946E+03
     -2.688  0.2685E+02  0.3045E+02  0.1971E+03  0.1969E+03
     -2.613  0.2426E+02  0.2458E+02  0.1989E+03  0.1988E+03
     -2.538  0.3127E+02  0.2857E+02  0.2013E+03  0.2010E+03
     -2.463  0.3535E+02  0.3214E+02  0.2039E+03  0.2035E+03
     -2.388  0.3372E+02  0.3424E+02  0.2065E+03  0.2061E+03
     -2.313  0.3075E+02  0.3187E+02  0.2089E+03  0.2085E+03
     -2.238  0.3685E+02  0.3734E+02  0.2117E+03  0.2114E+03
     -2.163  0.2776E+02  0.2759E+02  0.2138E+03  0.2135E+03
     -2.088  0.2955E+02  0.2603E+02  0.2160E+03  0.2155E+03
     -2.013  0.3566E+02  0.3789E+02  0.2187E+03  0.2184E+03
     -1.938  0.3636E+02  0.3808E+02  0.2215E+03  0.2212E+03
     -1.863  0.3366E+02  0.3105E+02  0.2241E+03  0.2236E+03
     -1.788  0.3307E+02  0.3607E+02  0.2267E+03  0.2263E+03
     -1.713  0.3589E+02  0.3264E+02  0.2294E+03  0.2288E+03
     -1.638  0.3360E+02  0.3760E+02  0.2320E+03  0.2317E+03
     -1.563  0.4069E+02  0.4065E+02  0.2350E+03  0.2347E+03
     -1.488  0.2281E+02  0.2397E+02  0.2368E+03  0.2366E+03
     -1.413  0.2688E+02  0.2506E+02  0.2388E+03  0.2385E+03
     -1.338  0.3907E+02  0.4087E+02  0.2417E+03  0.2416E+03
     -1.263  0.4014E+02  0.3772E+02  0.2448E+03  0.2444E+03
     -1.188  0.4790E+02  0.4504E+02  0.2484E+03  0.2479E+03
     -1.113  0.5545E+02  0.5534E+02  0.2526E+03  0.2520E+03
     -1.038  0.3180E+02  0.3304E+02  0.2550E+03  0.2546E+03
     -0.963  0.3686E+02  0.4137E+02  0.2579E+03  0.2577E+03
     -0.888  0.3423E+02  0.3416E+02  0.2605E+03  0.2603E+03
     -0.813  0.4537E+02  0.3895E+02  0.2639E+03  0.2632E+03
     -0.738  0.4085E+02  0.4230E+02  0.2670E+03  0.2665E+03
     -0.663  0.4660E+02  0.4990E+02  0.2706E+03  0.2702E+03
     -0.588  0.3357E+02  0.3277E+02  0.2732E+03  0.2728E+03
     -0.513  0.5205E+02  0.5140E+02  0.2771E+03  0.2766E+03
     -0.438  0.3951E+02  0.4156E+02  0.2801E+03  0.2798E+03
     -0.363  0.3095E+02  0.3200E+02  0.2824E+03  0.2823E+03
     -0.288  0.3559E+02  0.3315E+02  0.2851E+03  0.2848E+03
     -0.213  0.3044E+02  0.2888E+02  0.2874E+03  0.2870E+03
     -0.138  0.2538E+02  0.2696E+02  0.2894E+03  0.2891E+03
     -0.063  0.2921E+02  0.2759E+02  0.2916E+03  0.2912E+03
      0.012  0.2548E+02  0.2578E+02  0.2936E+03  0.2932E+03
      0.087  0.2641E+02  0.2879E+02  0.2957E+03  0.2954E+03
      0.162  0.2837E+02  0.2738E+02  0.2978E+03  0.2974E+03
      0.237  0.4430E+02  0.4464E+02  0.3012E+03  0.3008E+03
      0.312  0.4803E+02  0.4754E+02  0.3048E+03  0.3044E+03
      0.387  0.3545E+02  0.3287E+02  0.3075E+03  0.3069E+03
      0.462  0.2827E+02  0.3423E+02  0.3097E+03  0.3095E+03
      0.537  0.2923E+02  0.2838E+02  0.3119E+03  0.3117E+03
      0.612  0.3828E+02  0.3513E+02  0.3148E+03  0.3143E+03
      0.687  0.4524E+02  0.4935E+02  0.3182E+03  0.3181E+03
      0.762  0.2432E+02  0.1951E+02  0.3201E+03  0.3196E+03
      0.837  0.3986E+02  0.4012E+02  0.3231E+03  0.3226E+03
      0.912  0.4159E+02  0.3920E+02  0.3262E+03  0.3255E+03
      0.987  0.3395E+02  0.4086E+02  0.3289E+03  0.3286E+03
      1.062  0.4144E+02  0.3546E+02  0.3320E+03  0.3313E+03
      1.137  0.4917E+02  0.5418E+02  0.3358E+03  0.3354E+03
      1.212  0.3261E+02  0.2766E+02  0.3383E+03  0.3375E+03
      1.287  0.4164E+02  0.4529E+02  0.3414E+03  0.3410E+03
      1.362  0.4089E+02  0.3984E+02  0.3445E+03  0.3440E+03
      1.437  0.5286E+02  0.5229E+02  0.3485E+03  0.3479E+03
      1.512  0.4577E+02  0.4486E+02  0.3520E+03  0.3513E+03
      1.587  0.3432E+02  0.3916E+02  0.3547E+03  0.3543E+03
      1.662  0.3894E+02  0.3683E+02  0.3577E+03  0.3571E+03
      1.737  0.3681E+02  0.3892E+02  0.3605E+03  0.3601E+03
      1.812  0.3582E+02  0.3577E+02  0.3632E+03  0.3628E+03
      1.887  0.5934E+02  0.5238E+02  0.3677E+03  0.3668E+03
      1.962  0.4578E+02  0.4954E+02  0.3712E+03  0.3705E+03
      2.037  0.4476E+02  0.4534E+02  0.3747E+03  0.3740E+03
      2.112  0.5280E+02  0.5403E+02  0.3786E+03  0.3781E+03
      2.187  0.4890E+02  0.4894E+02  0.3824E+03  0.3818E+03
      2.262  0.4899E+02  0.4911E+02  0.3861E+03  0.3855E+03
      2.337  0.4070E+02  0.3981E+02  0.3892E+03  0.3886E+03
      2.412  0.4855E+02  0.5099E+02  0.3929E+03  0.3924E+03
      2.487  0.4295E+02  0.4258E+02  0.3962E+03  0.3957E+03
      2.562  0.3943E+02  0.3717E+02  0.3992E+03  0.3985E+03
      2.637  0.4549E+02  0.4347E+02  0.4027E+03  0.4019E+03
      2.712  0.4051E+02  0.4830E+02  0.4058E+03  0.4055E+03
      2.787  0.4074E+02  0.3380E+02  0.4088E+03  0.4081E+03
      2.862  0.5393E+02  0.4554E+02  0.4130E+03  0.4116E+03
      2.937  0.4500E+02  0.5835E+02  0.4164E+03  0.4160E+03
      3.012  0.5379E+02  0.4921E+02  0.4205E+03  0.4198E+03
      3.087  0.5202E+02  0.5727E+02  0.4245E+03  0.4242E+03
      3.162  0.4944E+02  0.4585E+02  0.4282E+03  0.4277E+03
      3.237  0.3838E+02  0.3937E+02  0.4312E+03  0.4307E+03
      3.312  0.3897E+02  0.3707E+02  0.4341E+03  0.4335E+03
      3.387  0.3728E+02  0.3978E+02  0.4369E+03  0.4365E+03
      3.462  0.4741E+02  0.4533E+02  0.4405E+03  0.4400E+03
      3.537  0.5633E+02  0.5189E+02  0.4447E+03  0.4439E+03
      3.612  0.2464E+02  0.2810E+02  0.4467E+03  0.4460E+03
      3.687  0.3944E+02  0.4176E+02  0.4497E+03  0.4492E+03
      3.762  0.5183E+02  0.4420E+02  0.4536E+03  0.4526E+03
      3.837  0.4006E+02  0.4376E+02  0.4566E+03  0.4559E+03
      3.912  0.4325E+02  0.3853E+02  0.4599E+03  0.4588E+03
      3.987  0.3570E+02  0.4284E+02  0.4627E+03  0.4621E+03
      4.062  0.4632E+02  0.4807E+02  0.4662E+03  0.4657E+03
      4.137  0.4882E+02  0.4009E+02  0.4698E+03  0.4687E+03
      4.212  0.4094E+02  0.4100E+02  0.4729E+03  0.4718E+03
      4.287  0.5114E+02  0.4978E+02  0.4768E+03  0.4756E+03
      4.362  0.4713E+02  0.5229E+02  0.4804E+03  0.4796E+03
      4.437  0.5264E+02  0.4539E+02  0.4844E+03  0.4830E+03
      4.512  0.4646E+02  0.5389E+02  0.4879E+03  0.4871E+03
      4.587  0.5211E+02  0.4924E+02  0.4919E+03  0.4909E+03
      4.662  0.5631E+02  0.5140E+02  0.4961E+03  0.4949E+03
      4.737  0.4517E+02  0.4643E+02  0.4996E+03  0.4984E+03
      4.812  0.3581E+02  0.3550E+02  0.5023E+03  0.5011E+03
      4.887  0.4497E+02  0.4492E+02  0.5057E+03  0.5045E+03
      4.962  0.4265E+02  0.4170E+02  0.5090E+03  0.5077E+03
      5.037  0.4021E+02  0.4480E+02  0.5120E+03  0.5112E+03
      5.112  0.3711E+02  0.4185E+02  0.5148E+03  0.5143E+03
      5.187  0.4177E+02  0.3986E+02  0.5180E+03  0.5174E+03
      5.262  0.4642E+02  0.4143E+02  0.5215E+03  0.5205E+03
      5.337  0.4762E+02  0.5280E+02  0.5251E+03  0.5245E+03
      5.412  0.4681E+02  0.4587E+02  0.5287E+03  0.5280E+03
      5.487  0.5306E+02  0.4942E+02  0.5327E+03  0.5318E+03
      5.562  0.4106E+02  0.4206E+02  0.5358E+03  0.5350E+03
      5.637  0.2914E+02  0.2791E+02  0.5380E+03  0.5372E+03
      5.712  0.3848E+02  0.3473E+02  0.5409E+03  0.5399E+03
      5.787  0.3520E+02  0.4248E+02  0.5436E+03  0.5431E+03
      5.862  0.4409E+02  0.4124E+02  0.5469E+03  0.5462E+03
      5.937  0.4452E+02  0.4338E+02  0.5503E+03  0.5495E+03
      6.012  0.4328E+02  0.4394E+02  0.5536E+03  0.5528E+03
      6.087  0.4549E+02  0.4297E+02  0.5570E+03  0.5561E+03
      6.162  0.4314E+02  0.4681E+02  0.5603E+03  0.5596E+03
      6.237  0.4280E+02  0.4242E+02  0.5636E+03  0.5628E+03
      6.312  0.4023E+02  0.3970E+02  0.5667E+03  0.5659E+03
      6.387  0.3532E+02  0.3922E+02  0.5694E+03  0.5688E+03
      6.462  0.4047E+02  0.4007E+02  0.5724E+03  0.5719E+03
      6.537  0.3223E+02  0.3186E+02  0.5749E+03  0.5743E+03
      6.612  0.1215E+02  0.1934E+02  0.5758E+03  0.5758E+03
      6.687  0.2508E+01  0.3254E+01  0.5760E+03  0.5760E+03
      6.762  0.0000E+00  0.0000E+00  0.5760E+03  0.5760E+03
      6.837  0.0000E+00  0.0000E+00  0.5760E+03  0.5760E+03
      6.912  0.0000E+00  0.0000E+00  0.5760E+03  0.5760E+03
      6.987  0.0000E+00  0.0000E+00  0.5760E+03  0.5760E+03
      7.062  0.0000E+00  0.0000E+00  0.5760E+03  0.5760E+03
      7.137  0.0000E+00  0.0000E+00  0.5760E+03  0.5760E+03
      7.212  0.0000E+00  0.0000E+00  0.5760E+03  0.5760E+03
      7.287  0.0000E+00  0.0000E+00  0.5760E+03  0.5760E+03
      7.362  0.0000E+00  0.0000E+00  0.5760E+03  0.5760E+03
      7.437  0.0000E+00  0.0000E+00  0.5760E+03  0.5760E+03
      7.512  0.0000E+00  0.0000E+00  0.5760E+03  0.5760E+03
      7.587  0.0000E+00  0.0000E+00  0.5760E+03  0.5760E+03
      7.662  0.0000E+00  0.0000E+00  0.5760E+03  0.5760E+03
