Si and Ge interface calculation         
           1
    13.303180    0.000000    0.000000
     6.651589   14.873406    0.000000
     0.000000    0.000000    7.994750
   Si   C 
    36    84
Direct configuration=     1
   0.28324950  0.64162475  0.00000005
   0.81658280  0.40829128  0.15190087
   0.34991598  0.17495777  0.30380175
   0.61658275  0.30829138  0.00000006
   0.14991605  0.07495793  0.15190087
   0.68324923  0.84162444  0.30380171
   0.94991612  0.97495806  0.00000004
   0.48324949  0.74162459  0.15190087
   0.01658267  0.50829112  0.30380171
   0.79991627  0.77495801  0.07595031
   0.33324951  0.54162455  0.22785117
   0.86658275  0.30829108  0.37975204
   0.13324969  0.44162476  0.07595033
   0.66658294  0.20829128  0.22785117
   0.19991624  0.97495776  0.37975204
   0.46658289  0.10829154  0.07595033
   0.99991614  0.87495804  0.22785117
   0.53324938  0.64162457  0.37975204
   0.78324956  0.64162475  0.00000000
   0.31658283  0.40829128  0.15190086
   0.84991604  0.17495778  0.30380175
   0.11658280  0.30829140  0.00000006
   0.64991605  0.07495795  0.15190090
   0.18324930  0.84162450  0.30380175
   0.44991612  0.97495806  0.00000006
   0.98324943  0.74162459  0.15190090
   0.51658267  0.50829112  0.30380175
   0.29991618  0.77495813  0.07595033
   0.83324945  0.54162467  0.22785120
   0.36658269  0.30829120  0.37975201
   0.63324940  0.44162473  0.07595035
   0.16658264  0.20829126  0.22785120
   0.69991595  0.97495782  0.37975198
   0.96658272  0.10829155  0.07595033
   0.49991596  0.87495804  0.22785120
   0.03324926  0.64162463  0.37975204
   0.01223218  0.15736377  0.56517535
   0.98366052  0.42879242  0.66493601
   0.95508897  0.70022100  0.76469654
   0.15508926  0.30022091  0.56517535
   0.12651771  0.57164955  0.66493601
   0.09794617  0.84307820  0.76469654
   0.29794639  0.44307810  0.56517535
   0.26937485  0.71450669  0.66493601
   0.24080332  0.98593539  0.76469660
   0.44080353  0.58593524  0.56517535
   0.41223198  0.85736388  0.66493601
   0.38366044  0.12879252  0.76469660
   0.58366066  0.72879237  0.56517535
   0.55508906  0.00022101  0.66493601
   0.52651751  0.27164960  0.76469660
   0.72651780  0.87164944  0.56517535
   0.69794625  0.14307810  0.66493601
   0.66937470  0.41450667  0.76469654
   0.86937499  0.01450670  0.56517535
   0.84080344  0.28593528  0.66493601
   0.81223178  0.55736387  0.76469660
   0.10508930  0.90022075  0.61505556
   0.07651776  0.17164935  0.71481621
   0.04794626  0.44307804  0.81457681
   0.24794640  0.04307807  0.61505556
   0.21937485  0.31450665  0.71481615
   0.19080329  0.58593535  0.81457681
   0.39080358  0.18593516  0.61505556
   0.36223197  0.45736384  0.71481615
   0.33366036  0.72879243  0.81457681
   0.53366065  0.32879221  0.61505556
   0.50508916  0.60022086  0.71481621
   0.47651750  0.87164938  0.81457681
   0.67651779  0.47164953  0.61505556
   0.64794624  0.74307811  0.71481621
   0.61937469  0.01450682  0.81457681
   0.81937492  0.61450660  0.61505556
   0.79080337  0.88593525  0.71481621
   0.76223189  0.15736391  0.81457681
   0.96223211  0.75736374  0.61505556
   0.93366063  0.02879238  0.71481621
   0.90508896  0.30022085  0.81457681
   0.08366066  0.72879231  0.56517535
   0.05508914  0.00022101  0.66493601
   0.02651755  0.27164960  0.76469654
   0.22651780  0.87164944  0.56517535
   0.19794626  0.14307810  0.66493601
   0.16937478  0.41450679  0.76469660
   0.36937499  0.01450658  0.56517535
   0.34080350  0.28593528  0.66493601
   0.31223184  0.55736387  0.76469654
   0.51223212  0.15736377  0.56517535
   0.48366052  0.42879242  0.66493601
   0.45508903  0.70022100  0.76469660
   0.65508926  0.30022085  0.56517535
   0.62651771  0.57164949  0.66493601
   0.59794617  0.84307814  0.76469660
   0.79794645  0.44307810  0.56517535
   0.76937485  0.71450669  0.66493601
   0.74080336  0.98593533  0.76469660
   0.94080359  0.58593518  0.56517535
   0.91223198  0.85736382  0.66493601
   0.88366044  0.12879240  0.76469660
   0.03366069  0.32879224  0.61505556
   0.00508916  0.60022086  0.71481615
   0.97651756  0.87164950  0.81457681
   0.17651784  0.47164929  0.61505556
   0.14794630  0.74307793  0.71481621
   0.11937476  0.01450658  0.81457681
   0.31937498  0.61450660  0.61505556
   0.29080343  0.88593519  0.71481621
   0.26223183  0.15736379  0.81457681
   0.46223211  0.75736368  0.61505556
   0.43366057  0.02879226  0.71481615
   0.40508902  0.30022085  0.81457681
   0.60508919  0.90022069  0.61505556
   0.57651770  0.17164935  0.71481615
   0.54794615  0.44307804  0.81457681
   0.74794632  0.04307795  0.61505556
   0.71937478  0.31450665  0.71481621
   0.69080323  0.58593512  0.81457681
   0.89080352  0.18593503  0.61505556
   0.86223191  0.45736360  0.71481615
   0.83366031  0.72879219  0.81457681
