 120 120   0   0
  0.2190039E+02  0.7680595E-09  0.1629300E-08  0.2100086E-08  0.5000000E-15
  1.000000000000000E-004
  CAR 
 Si and Ge interface calculation         
      7.79918215     -8.59240996  301      4.75884662      1.00000000
     -8.592  0.0000E+00  0.0000E+00  0.0000E+00  0.0000E+00
     -8.538  0.0000E+00  0.0000E+00  0.0000E+00  0.0000E+00
     -8.483  0.0000E+00  0.0000E+00  0.0000E+00  0.0000E+00
     -8.428  0.0000E+00  0.0000E+00  0.0000E+00  0.0000E+00
     -8.374  0.0000E+00  0.0000E+00  0.0000E+00  0.0000E+00
     -8.319  0.0000E+00  0.0000E+00  0.0000E+00  0.0000E+00
     -8.265  0.0000E+00  0.0000E+00  0.0000E+00  0.0000E+00
     -8.210  0.0000E+00  0.0000E+00  0.0000E+00  0.0000E+00
     -8.155  0.0000E+00  0.0000E+00  0.0000E+00  0.0000E+00
     -8.101  0.0000E+00  0.0000E+00  0.0000E+00  0.0000E+00
     -8.046  0.0000E+00  0.0000E+00  0.0000E+00  0.0000E+00
     -7.991  0.0000E+00  0.0000E+00  0.0000E+00  0.0000E+00
     -7.937  0.0000E+00  0.0000E+00  0.0000E+00  0.0000E+00
     -7.882  0.2008E-05  0.1421E-07  0.1097E-06  0.7765E-09
     -7.827  0.4564E+01  0.4449E+01  0.2494E+00  0.2431E+00
     -7.773  0.1151E-01  0.1266E+00  0.2500E+00  0.2500E+00
     -7.718  0.1018E+02  0.9285E+01  0.8063E+00  0.7573E+00
     -7.664  0.8120E+01  0.9017E+01  0.1250E+01  0.1250E+01
     -7.609  0.6093E+01  0.1737E+01  0.1583E+01  0.1345E+01
     -7.554  0.1221E+02  0.1657E+02  0.2250E+01  0.2250E+01
     -7.500  0.9117E+01  0.8920E+01  0.2748E+01  0.2737E+01
     -7.445  0.3348E-01  0.2314E+00  0.2750E+01  0.2750E+01
     -7.390  0.1894E+02  0.1662E+02  0.3785E+01  0.3658E+01
     -7.336  0.1457E+02  0.1586E+02  0.4581E+01  0.4525E+01
     -7.281  0.2338E+02  0.1366E+02  0.5858E+01  0.5271E+01
     -7.226  0.3123E+02  0.4093E+02  0.7565E+01  0.7507E+01
     -7.172  0.7875E+01  0.8095E+01  0.7995E+01  0.7950E+01
     -7.117  0.3243E+02  0.3293E+02  0.9767E+01  0.9749E+01
     -7.063  0.9056E+01  0.8757E+01  0.1026E+02  0.1023E+02
     -7.008  0.1786E+02  0.1503E+02  0.1124E+02  0.1105E+02
     -6.953  0.2628E+02  0.2762E+02  0.1267E+02  0.1256E+02
     -6.899  0.3520E+02  0.3537E+02  0.1460E+02  0.1449E+02
     -6.844  0.2919E+02  0.3020E+02  0.1619E+02  0.1614E+02
     -6.789  0.1410E+02  0.1360E+02  0.1696E+02  0.1688E+02
     -6.735  0.9654E+01  0.1014E+02  0.1749E+02  0.1744E+02
     -6.680  0.1389E+02  0.1091E+02  0.1825E+02  0.1803E+02
     -6.625  0.2378E+02  0.2647E+02  0.1955E+02  0.1948E+02
     -6.571  0.3294E+02  0.2810E+02  0.2135E+02  0.2102E+02
     -6.516  0.3609E+02  0.3796E+02  0.2332E+02  0.2309E+02
     -6.462  0.4096E+02  0.3826E+02  0.2556E+02  0.2518E+02
     -6.407  0.4124E+02  0.4597E+02  0.2781E+02  0.2769E+02
     -6.352  0.2217E+02  0.2106E+02  0.2902E+02  0.2884E+02
     -6.298  0.3443E+02  0.3427E+02  0.3090E+02  0.3071E+02
     -6.243  0.2504E+02  0.2635E+02  0.3227E+02  0.3215E+02
     -6.188  0.3689E+02  0.3549E+02  0.3429E+02  0.3409E+02
     -6.134  0.2949E+02  0.2804E+02  0.3590E+02  0.3563E+02
     -6.079  0.4899E+02  0.4518E+02  0.3858E+02  0.3809E+02
     -6.024  0.3776E+02  0.4510E+02  0.4064E+02  0.4056E+02
     -5.970  0.2306E+02  0.2180E+02  0.4190E+02  0.4175E+02
     -5.915  0.1800E+02  0.1831E+02  0.4288E+02  0.4275E+02
     -5.860  0.4936E+02  0.4623E+02  0.4558E+02  0.4528E+02
     -5.806  0.3016E+02  0.2801E+02  0.4723E+02  0.4681E+02
     -5.751  0.4249E+02  0.4887E+02  0.4955E+02  0.4948E+02
     -5.697  0.3786E+02  0.3568E+02  0.5162E+02  0.5143E+02
     -5.642  0.2613E+02  0.2898E+02  0.5305E+02  0.5301E+02
     -5.587  0.2963E+02  0.2521E+02  0.5467E+02  0.5439E+02
     -5.533  0.4818E+02  0.4944E+02  0.5730E+02  0.5709E+02
     -5.478  0.4651E+02  0.4631E+02  0.5984E+02  0.5962E+02
     -5.423  0.3362E+02  0.3439E+02  0.6168E+02  0.6150E+02
     -5.369  0.5811E+02  0.5788E+02  0.6485E+02  0.6466E+02
     -5.314  0.4091E+02  0.4131E+02  0.6709E+02  0.6692E+02
     -5.259  0.2668E+02  0.2192E+02  0.6854E+02  0.6812E+02
     -5.205  0.7020E+02  0.6974E+02  0.7238E+02  0.7193E+02
     -5.150  0.6068E+02  0.6583E+02  0.7570E+02  0.7552E+02
     -5.096  0.3270E+02  0.3162E+02  0.7748E+02  0.7725E+02
     -5.041  0.5066E+02  0.5477E+02  0.8025E+02  0.8024E+02
     -4.986  0.2303E+02  0.2195E+02  0.8151E+02  0.8144E+02
     -4.932  0.2297E+02  0.1939E+02  0.8276E+02  0.8250E+02
     -4.877  0.4625E+02  0.5030E+02  0.8529E+02  0.8525E+02
     -4.822  0.3900E+02  0.2943E+02  0.8742E+02  0.8686E+02
     -4.768  0.3983E+02  0.4370E+02  0.8960E+02  0.8925E+02
     -4.713  0.4491E+02  0.4535E+02  0.9205E+02  0.9172E+02
     -4.658  0.3187E+02  0.3131E+02  0.9379E+02  0.9343E+02
     -4.604  0.2067E+02  0.2473E+02  0.9492E+02  0.9479E+02
     -4.549  0.3472E+02  0.3427E+02  0.9682E+02  0.9666E+02
     -4.495  0.3152E+02  0.2958E+02  0.9854E+02  0.9827E+02
     -4.440  0.3366E+02  0.3465E+02  0.1004E+03  0.1002E+03
     -4.385  0.4961E+02  0.4960E+02  0.1031E+03  0.1029E+03
     -4.331  0.2968E+02  0.3111E+02  0.1047E+03  0.1046E+03
     -4.276  0.4250E+02  0.4145E+02  0.1070E+03  0.1068E+03
     -4.221  0.1797E+02  0.1689E+02  0.1080E+03  0.1078E+03
     -4.167  0.1031E+02  0.1388E+02  0.1086E+03  0.1085E+03
     -4.112  0.1591E+02  0.1401E+02  0.1094E+03  0.1093E+03
     -4.057  0.9905E+01  0.9741E+01  0.1100E+03  0.1098E+03
     -4.003  0.2270E+02  0.2386E+02  0.1112E+03  0.1111E+03
     -3.948  0.2691E+02  0.2238E+02  0.1127E+03  0.1123E+03
     -3.893  0.2384E+02  0.2914E+02  0.1140E+03  0.1139E+03
     -3.839  0.6173E+01  0.5951E+01  0.1143E+03  0.1143E+03
     -3.784  0.1161E+02  0.1061E+02  0.1150E+03  0.1148E+03
     -3.730  0.2993E+02  0.2833E+02  0.1166E+03  0.1164E+03
     -3.675  0.1635E+02  0.2024E+02  0.1175E+03  0.1175E+03
     -3.620  0.1314E+02  0.1030E+02  0.1182E+03  0.1181E+03
     -3.566  0.2933E+02  0.3077E+02  0.1198E+03  0.1197E+03
     -3.511  0.1275E+02  0.9447E+01  0.1205E+03  0.1203E+03
     -3.456  0.2703E+02  0.2995E+02  0.1220E+03  0.1219E+03
     -3.402  0.9113E+01  0.7646E+01  0.1225E+03  0.1223E+03
     -3.347  0.2212E+02  0.2189E+02  0.1237E+03  0.1235E+03
     -3.292  0.1088E+02  0.1375E+02  0.1243E+03  0.1243E+03
     -3.238  0.2297E+02  0.1690E+02  0.1256E+03  0.1252E+03
     -3.183  0.3637E+02  0.3428E+02  0.1275E+03  0.1271E+03
     -3.129  0.2093E+02  0.2755E+02  0.1287E+03  0.1286E+03
     -3.074  0.5997E+01  0.8011E+01  0.1290E+03  0.1290E+03
     -3.019  0.1817E+02  0.1800E+02  0.1300E+03  0.1300E+03
     -2.965  0.1335E+02  0.1309E+02  0.1307E+03  0.1307E+03
     -2.910  0.3694E+02  0.3158E+02  0.1328E+03  0.1324E+03
     -2.855  0.2963E+02  0.2372E+02  0.1344E+03  0.1337E+03
     -2.801  0.2820E+02  0.3436E+02  0.1359E+03  0.1356E+03
     -2.746  0.3652E+02  0.3977E+02  0.1379E+03  0.1378E+03
     -2.691  0.4839E+02  0.4325E+02  0.1406E+03  0.1401E+03
     -2.637  0.4201E+02  0.4331E+02  0.1428E+03  0.1425E+03
     -2.582  0.6915E+02  0.7178E+02  0.1466E+03  0.1464E+03
     -2.528  0.6135E+02  0.5260E+02  0.1500E+03  0.1493E+03
     -2.473  0.4996E+02  0.5956E+02  0.1527E+03  0.1525E+03
     -2.418  0.5355E+02  0.4951E+02  0.1556E+03  0.1553E+03
     -2.364  0.7096E+02  0.6776E+02  0.1595E+03  0.1590E+03
     -2.309  0.5290E+02  0.5440E+02  0.1624E+03  0.1619E+03
     -2.254  0.4810E+02  0.4769E+02  0.1650E+03  0.1645E+03
     -2.200  0.4269E+02  0.4844E+02  0.1674E+03  0.1672E+03
     -2.145  0.4780E+02  0.4338E+02  0.1700E+03  0.1696E+03
     -2.090  0.5356E+02  0.4645E+02  0.1729E+03  0.1721E+03
     -2.036  0.5491E+02  0.6069E+02  0.1759E+03  0.1754E+03
     -1.981  0.4151E+02  0.4732E+02  0.1782E+03  0.1780E+03
     -1.926  0.2762E+02  0.2637E+02  0.1797E+03  0.1794E+03
     -1.872  0.1148E+02  0.1500E+02  0.1803E+03  0.1803E+03
     -1.817  0.1075E+02  0.9578E+01  0.1809E+03  0.1808E+03
     -1.763  0.2517E+02  0.2365E+02  0.1823E+03  0.1821E+03
     -1.708  0.6217E+02  0.5953E+02  0.1857E+03  0.1853E+03
     -1.653  0.5058E+02  0.4865E+02  0.1884E+03  0.1880E+03
     -1.599  0.6182E+02  0.6882E+02  0.1918E+03  0.1917E+03
     -1.544  0.2001E+02  0.1287E+02  0.1929E+03  0.1924E+03
     -1.489  0.1732E+02  0.2295E+02  0.1938E+03  0.1937E+03
     -1.435  0.2147E+02  0.2192E+02  0.1950E+03  0.1949E+03
     -1.380  0.3353E+02  0.3254E+02  0.1969E+03  0.1967E+03
     -1.325  0.1697E+02  0.1945E+02  0.1978E+03  0.1977E+03
     -1.271  0.2833E+02  0.2602E+02  0.1993E+03  0.1992E+03
     -1.216  0.3192E+01  0.6296E+01  0.1995E+03  0.1995E+03
     -1.162  0.9055E+01  0.7612E+01  0.2000E+03  0.1999E+03
     -1.107  0.1525E+02  0.1277E+02  0.2008E+03  0.2006E+03
     -1.052  0.3704E+02  0.3612E+02  0.2029E+03  0.2026E+03
     -0.998  0.2475E+02  0.2368E+02  0.2042E+03  0.2039E+03
     -0.943  0.1758E+02  0.2250E+02  0.2052E+03  0.2051E+03
     -0.888  0.1664E+02  0.1656E+02  0.2061E+03  0.2060E+03
     -0.834  0.1013E+02  0.8921E+01  0.2066E+03  0.2065E+03
     -0.779  0.1342E+02  0.1382E+02  0.2074E+03  0.2073E+03
     -0.724  0.2543E+02  0.2702E+02  0.2088E+03  0.2087E+03
     -0.670  0.2592E+02  0.1814E+02  0.2102E+03  0.2097E+03
     -0.615  0.3304E+02  0.3405E+02  0.2120E+03  0.2116E+03
     -0.561  0.3704E+02  0.4022E+02  0.2140E+03  0.2138E+03
     -0.506  0.5036E+02  0.5409E+02  0.2167E+03  0.2167E+03
     -0.451  0.8746E+01  0.7027E+01  0.2172E+03  0.2171E+03
     -0.397  0.3506E+02  0.2798E+02  0.2191E+03  0.2187E+03
     -0.342  0.1571E+02  0.2426E+02  0.2200E+03  0.2200E+03
     -0.287  0.5225E-01  0.4219E+00  0.2200E+03  0.2200E+03
     -0.233  0.1444E+02  0.1096E+02  0.2208E+03  0.2206E+03
     -0.178  0.3243E+02  0.3027E+02  0.2226E+03  0.2223E+03
     -0.123  0.8026E+01  0.1368E+02  0.2230E+03  0.2230E+03
     -0.069  0.1564E+02  0.1298E+02  0.2239E+03  0.2237E+03
     -0.014  0.2651E+02  0.2538E+02  0.2253E+03  0.2251E+03
      0.040  0.3745E+01  0.7395E+01  0.2255E+03  0.2255E+03
      0.095  0.4416E+01  0.4567E+01  0.2258E+03  0.2257E+03
      0.150  0.2179E+02  0.1470E+02  0.2269E+03  0.2266E+03
      0.204  0.4915E+02  0.4438E+02  0.2296E+03  0.2290E+03
      0.259  0.8394E+02  0.8371E+02  0.2342E+03  0.2336E+03
      0.314  0.3439E+02  0.4416E+02  0.2361E+03  0.2360E+03
      0.368  0.4296E+02  0.4215E+02  0.2384E+03  0.2383E+03
      0.423  0.3979E+02  0.3668E+02  0.2406E+03  0.2403E+03
      0.478  0.4091E+02  0.4455E+02  0.2428E+03  0.2427E+03
      0.532  0.5135E+02  0.4681E+02  0.2457E+03  0.2453E+03
      0.587  0.3516E+02  0.3474E+02  0.2476E+03  0.2472E+03
      0.642  0.7220E+02  0.7183E+02  0.2515E+03  0.2511E+03
      0.696  0.3357E+02  0.3292E+02  0.2534E+03  0.2529E+03
      0.751  0.1044E+03  0.1011E+03  0.2591E+03  0.2584E+03
      0.805  0.8486E+02  0.8773E+02  0.2637E+03  0.2632E+03
      0.860  0.6538E+02  0.6797E+02  0.2673E+03  0.2669E+03
      0.915  0.5437E+02  0.5337E+02  0.2702E+03  0.2698E+03
      0.969  0.4652E+02  0.4740E+02  0.2728E+03  0.2724E+03
      1.024  0.4636E+02  0.4848E+02  0.2753E+03  0.2751E+03
      1.079  0.1002E+03  0.9392E+02  0.2808E+03  0.2802E+03
      1.133  0.5445E+02  0.5747E+02  0.2838E+03  0.2833E+03
      1.188  0.7379E+02  0.6617E+02  0.2878E+03  0.2870E+03
      1.243  0.7163E+02  0.8223E+02  0.2917E+03  0.2914E+03
      1.297  0.6633E+02  0.6109E+02  0.2953E+03  0.2948E+03
      1.352  0.9708E+02  0.9765E+02  0.3006E+03  0.3001E+03
      1.406  0.6893E+02  0.6732E+02  0.3044E+03  0.3038E+03
      1.461  0.9002E+02  0.8759E+02  0.3093E+03  0.3086E+03
      1.516  0.4265E+02  0.4970E+02  0.3117E+03  0.3113E+03
      1.570  0.5504E+02  0.5386E+02  0.3147E+03  0.3142E+03
      1.625  0.8218E+02  0.7861E+02  0.3192E+03  0.3185E+03
      1.680  0.8217E+02  0.8916E+02  0.3236E+03  0.3234E+03
      1.734  0.7262E+02  0.6916E+02  0.3276E+03  0.3272E+03
      1.789  0.9813E+02  0.9518E+02  0.3330E+03  0.3324E+03
      1.844  0.1026E+03  0.9123E+02  0.3386E+03  0.3374E+03
      1.898  0.8273E+02  0.9345E+02  0.3431E+03  0.3425E+03
      1.953  0.7427E+02  0.7668E+02  0.3472E+03  0.3467E+03
      2.007  0.4972E+02  0.5190E+02  0.3499E+03  0.3495E+03
      2.062  0.6113E+02  0.6007E+02  0.3532E+03  0.3528E+03
      2.117  0.7188E+02  0.6784E+02  0.3571E+03  0.3565E+03
      2.171  0.4989E+02  0.5581E+02  0.3599E+03  0.3595E+03
      2.226  0.8002E+02  0.7861E+02  0.3642E+03  0.3638E+03
      2.281  0.7125E+02  0.6762E+02  0.3681E+03  0.3675E+03
      2.335  0.9186E+02  0.9283E+02  0.3732E+03  0.3726E+03
      2.390  0.5578E+02  0.5530E+02  0.3762E+03  0.3756E+03
      2.445  0.7596E+02  0.7515E+02  0.3803E+03  0.3797E+03
      2.499  0.7622E+02  0.7699E+02  0.3845E+03  0.3839E+03
      2.554  0.6649E+02  0.6980E+02  0.3881E+03  0.3878E+03
      2.609  0.6759E+02  0.6868E+02  0.3918E+03  0.3915E+03
      2.663  0.5916E+02  0.5591E+02  0.3951E+03  0.3946E+03
      2.718  0.7253E+02  0.7252E+02  0.3990E+03  0.3985E+03
      2.772  0.6287E+02  0.6599E+02  0.4025E+03  0.4021E+03
      2.827  0.4273E+02  0.4290E+02  0.4048E+03  0.4045E+03
      2.882  0.5757E+02  0.5247E+02  0.4079E+03  0.4073E+03
      2.936  0.8233E+02  0.8049E+02  0.4124E+03  0.4117E+03
      2.991  0.4687E+02  0.5413E+02  0.4150E+03  0.4147E+03
      3.046  0.6027E+02  0.5383E+02  0.4183E+03  0.4176E+03
      3.100  0.8600E+02  0.8585E+02  0.4230E+03  0.4223E+03
      3.155  0.4113E+02  0.4236E+02  0.4252E+03  0.4246E+03
      3.210  0.7657E+02  0.7561E+02  0.4294E+03  0.4288E+03
      3.264  0.9113E+02  0.9753E+02  0.4344E+03  0.4341E+03
      3.319  0.5951E+02  0.5672E+02  0.4377E+03  0.4372E+03
      3.373  0.6558E+02  0.6214E+02  0.4412E+03  0.4406E+03
      3.428  0.5194E+02  0.5792E+02  0.4441E+03  0.4438E+03
      3.483  0.6610E+02  0.6491E+02  0.4477E+03  0.4473E+03
      3.537  0.2596E+02  0.2647E+02  0.4491E+03  0.4488E+03
      3.592  0.5653E+02  0.5516E+02  0.4522E+03  0.4518E+03
      3.647  0.2583E+02  0.2817E+02  0.4536E+03  0.4533E+03
      3.701  0.3857E+02  0.3102E+02  0.4557E+03  0.4550E+03
      3.756  0.2931E+02  0.3709E+02  0.4573E+03  0.4570E+03
      3.811  0.3366E+02  0.2690E+02  0.4592E+03  0.4585E+03
      3.865  0.2220E+02  0.3247E+02  0.4604E+03  0.4603E+03
      3.920  0.3485E+02  0.3148E+02  0.4623E+03  0.4620E+03
      3.974  0.2880E+02  0.2773E+02  0.4639E+03  0.4635E+03
      4.029  0.3057E+02  0.3344E+02  0.4655E+03  0.4653E+03
      4.084  0.2715E+02  0.3029E+02  0.4670E+03  0.4670E+03
      4.138  0.1839E+02  0.1789E+02  0.4680E+03  0.4680E+03
      4.193  0.3005E+02  0.1549E+02  0.4697E+03  0.4688E+03
      4.248  0.1215E+02  0.2172E+02  0.4703E+03  0.4700E+03
      4.302  0.2649E+02  0.2538E+02  0.4718E+03  0.4714E+03
      4.357  0.1346E+02  0.2032E+02  0.4725E+03  0.4725E+03
      4.412  0.1987E+01  0.3121E+00  0.4726E+03  0.4725E+03
      4.466  0.2808E+02  0.1046E+02  0.4741E+03  0.4731E+03
      4.521  0.2577E+02  0.2604E+02  0.4756E+03  0.4745E+03
      4.576  0.1685E+02  0.2741E+02  0.4765E+03  0.4760E+03
      4.630  0.5098E+01  0.8370E+01  0.4768E+03  0.4765E+03
      4.685  0.1914E+02  0.6048E+01  0.4778E+03  0.4768E+03
      4.739  0.3824E+02  0.2235E+02  0.4799E+03  0.4780E+03
      4.794  0.3267E+02  0.4250E+02  0.4817E+03  0.4803E+03
      4.849  0.2894E+02  0.3878E+02  0.4833E+03  0.4825E+03
      4.903  0.3168E+02  0.2388E+02  0.4850E+03  0.4838E+03
      4.958  0.2316E+02  0.2625E+02  0.4862E+03  0.4852E+03
      5.013  0.2424E+02  0.2030E+02  0.4876E+03  0.4863E+03
      5.067  0.4992E+02  0.4177E+02  0.4903E+03  0.4886E+03
      5.122  0.2495E+02  0.4383E+02  0.4917E+03  0.4910E+03
      5.177  0.3329E+02  0.2024E+02  0.4935E+03  0.4921E+03
      5.231  0.2162E+02  0.3082E+02  0.4947E+03  0.4938E+03
      5.286  0.6067E+02  0.5825E+02  0.4980E+03  0.4970E+03
      5.340  0.2800E+02  0.4138E+02  0.4995E+03  0.4992E+03
      5.395  0.3309E+02  0.2833E+02  0.5013E+03  0.5008E+03
      5.450  0.4768E+02  0.3633E+02  0.5039E+03  0.5028E+03
      5.504  0.2801E+02  0.3907E+02  0.5055E+03  0.5049E+03
      5.559  0.4564E+02  0.4513E+02  0.5079E+03  0.5074E+03
      5.614  0.3473E+02  0.4293E+02  0.5098E+03  0.5097E+03
      5.668  0.7518E+02  0.5943E+02  0.5140E+03  0.5129E+03
      5.723  0.3321E+02  0.5108E+02  0.5158E+03  0.5157E+03
      5.778  0.6037E+02  0.4713E+02  0.5191E+03  0.5183E+03
      5.832  0.4630E+02  0.4972E+02  0.5216E+03  0.5210E+03
      5.887  0.5063E+02  0.4578E+02  0.5244E+03  0.5235E+03
      5.941  0.5735E+02  0.6318E+02  0.5275E+03  0.5270E+03
      5.996  0.6040E+02  0.6204E+02  0.5308E+03  0.5304E+03
      6.051  0.3004E+02  0.3185E+02  0.5324E+03  0.5321E+03
      6.105  0.5798E+02  0.4551E+02  0.5356E+03  0.5346E+03
      6.160  0.5512E+02  0.5398E+02  0.5386E+03  0.5375E+03
      6.215  0.6715E+02  0.7756E+02  0.5423E+03  0.5418E+03
      6.269  0.3868E+02  0.4409E+02  0.5444E+03  0.5442E+03
      6.324  0.1673E+02  0.1194E+02  0.5453E+03  0.5448E+03
      6.379  0.7055E+02  0.6472E+02  0.5492E+03  0.5484E+03
      6.433  0.6047E+02  0.6630E+02  0.5525E+03  0.5520E+03
      6.488  0.6248E+02  0.5636E+02  0.5559E+03  0.5551E+03
      6.542  0.7058E+02  0.8006E+02  0.5597E+03  0.5595E+03
      6.597  0.2126E+02  0.2175E+02  0.5609E+03  0.5606E+03
      6.652  0.4096E+02  0.3721E+02  0.5631E+03  0.5627E+03
      6.706  0.4707E+02  0.5074E+02  0.5657E+03  0.5655E+03
      6.761  0.4360E+02  0.4166E+02  0.5681E+03  0.5677E+03
      6.816  0.4913E+02  0.4763E+02  0.5708E+03  0.5703E+03
      6.870  0.5118E+02  0.5346E+02  0.5736E+03  0.5733E+03
      6.925  0.1565E+02  0.1785E+02  0.5744E+03  0.5742E+03
      6.980  0.3639E+01  0.5401E+01  0.5746E+03  0.5745E+03
      7.034  0.1895E+02  0.1853E+02  0.5757E+03  0.5755E+03
      7.089  0.6162E+01  0.8499E+01  0.5760E+03  0.5760E+03
      7.144  0.0000E+00  0.0000E+00  0.5760E+03  0.5760E+03
      7.198  0.0000E+00  0.0000E+00  0.5760E+03  0.5760E+03
      7.253  0.0000E+00  0.0000E+00  0.5760E+03  0.5760E+03
      7.307  0.0000E+00  0.0000E+00  0.5760E+03  0.5760E+03
      7.362  0.0000E+00  0.0000E+00  0.5760E+03  0.5760E+03
      7.417  0.0000E+00  0.0000E+00  0.5760E+03  0.5760E+03
      7.471  0.0000E+00  0.0000E+00  0.5760E+03  0.5760E+03
      7.526  0.0000E+00  0.0000E+00  0.5760E+03  0.5760E+03
      7.581  0.0000E+00  0.0000E+00  0.5760E+03  0.5760E+03
      7.635  0.0000E+00  0.0000E+00  0.5760E+03  0.5760E+03
      7.690  0.0000E+00  0.0000E+00  0.5760E+03  0.5760E+03
      7.745  0.0000E+00  0.0000E+00  0.5760E+03  0.5760E+03
      7.799  0.0000E+00  0.0000E+00  0.5760E+03  0.5760E+03
