 vasp.6.4.3 19Mar24 (build Oct 22 2024 11:23:12) complex                        
  
 executed on             LinuxIFC date 2025.06.04  05:48:11
 running   64 mpi-ranks, on    4 nodes
 distrk:  each k-point on   64 cores,    1 groups
 distr:  one band on NCORE=  16 cores,    4 groups


--------------------------------------------------------------------------------------------------------


 INCAR:
   SYSTEM = Si and Ge interface calculation
   ISTART = 0
   ICHARG = 2
   LWAVE = .FALSE.
   LREAL = AUTO
   ENCUT = 700
   ENAUG = 900
   ADDGRID = .TRUE.
   LMAXMIX = 6
   LASPH = .TRUE.
   LMIXTAU = .TRUE.
   NCORE = 16
   NELM = 100
   NBANDS = 231
   EDIFF = 1d-7
   AMIX = 0.6
   ISMEAR = 0
   SIGMA = 0.01
   NELECT = 384
   ISPIN = 2
   NUPDOWN = 1
   LVTOT = .FALSE.
   LVHAR = .TRUE.

 POTCAR:    PAW_PBE Ge 05Jan2001                  
 -----------------------------------------------------------------------------
|                                                                             |
|           W    W    AA    RRRRR   N    N  II  N    N   GGGG   !!!           |
|           W    W   A  A   R    R  NN   N  II  NN   N  G    G  !!!           |
|           W    W  A    A  R    R  N N  N  II  N N  N  G       !!!           |
|           W WW W  AAAAAA  RRRRR   N  N N  II  N  N N  G  GGG   !            |
|           WW  WW  A    A  R   R   N   NN  II  N   NN  G    G                |
|           W    W  A    A  R    R  N    N  II  N    N   GGGG   !!!           |
|                                                                             |
|     You use a magnetic or noncollinear calculation, but did not specify     |
|     the initial magnetic moment with the MAGMOM tag. Note that a            |
|     default of 0.01 will be used for all atoms. This ferromagnetic          |
|     setup may break the symmetry of the crystal, in particular it may       |
|     rule out finding an antiferromagnetic solution. Thence, we              |
|     recommend setting the initial magnetic moment manually or verifying     |
|     carefully that this magnetic setup is desired.                          |
|                                                                             |
 -----------------------------------------------------------------------------

 POTCAR:    PAW_PBE Ge 05Jan2001                  
   VRHFIN =Ge: s2p2                                                                                 
   LEXCH  = PE                                                                                      
   EATOM  =   104.9960 eV,    7.7170 Ry                                                             
                                                                                                    
   TITEL  = PAW_PBE Ge 05Jan2001                                                                    
   LULTRA =        F    use ultrasoft PP ?                                                          
   IUNSCR =        1    unscreen: 0-lin 1-nonlin 2-no                                               
   RPACOR =    2.170    partial core radius                                                         
   POMASS =   72.610; ZVAL   =    4.000    mass and valenz                                          
   RCORE  =    2.300    outmost cutoff radius                                                       
   RWIGS  =    2.300; RWIGS  =    1.217    wigner-seitz radius (au A)                               
   ENMAX  =  173.807; ENMIN  =  130.355 eV                                                          
   ICORE  =        3    local potential                                                             
   LCOR   =        T    correct aug charges                                                         
   LPAW   =        T    paw PP                                                                      
   EAUG   =  385.843                                                                                
   DEXC   =    0.000                                                                                
   RMAX   =    2.342    core radius for proj-oper                                                   
   RAUG   =    1.300    factor for augmentation sphere                                              
   RDEP   =    2.318    radius for radial grids                                                     
   RDEPT  =    2.103    core radius for aug-charge                                                  
                                                                                                    
   Atomic configuration                                                                             
   10 entries                                                                                       
     n  l   j            E        occ.                                                              
     1  0  0.50    -10959.8463   2.0000                                                             
     2  0  0.50     -1371.6056   2.0000                                                             
     2  1  1.50     -1198.4791   6.0000                                                             
     3  0  0.50      -168.4733   2.0000                                                             
     3  1  1.50      -115.6019   6.0000                                                             
     3  2  2.50       -29.3106  10.0000                                                             
     4  0  0.50       -11.7309   2.0000                                                             
     4  1  0.50        -3.8952   2.0000                                                             
     4  2  1.50        -4.0817   0.0000                                                             
     4  3  2.50        -4.0817   0.0000                                                             
   Description                                                                                      
     l       E           TYP  RCUT    TYP  RCUT                                                     
     0    -11.7309493     23  2.300                                                                 
     0     -7.4578696     23  2.300                                                                 
     1     -3.8952261     23  2.300                                                                 
     1      6.1178114     23  2.300                                                                 
     2     -4.0817478     23  2.300                                                                 
     3     -1.3605826      7  2.300                                                                 
  local pseudopotential read in
  partial core-charges read in
  partial kinetic energy density read in
  atomic valenz-charges read in
  non local Contribution for L=           0  read in
    real space projection operators read in
  non local Contribution for L=           0  read in
    real space projection operators read in
  non local Contribution for L=           1  read in
    real space projection operators read in
  non local Contribution for L=           1  read in
    real space projection operators read in
  non local Contribution for L=           2  read in
    real space projection operators read in
    PAW grid and wavefunctions read in
 
   number of l-projection  operators is LMAX  =           5
   number of lm-projection operators is LMMAX =          13
 
 Optimization of the real space projectors (new method)

 maximal supplied QI-value         = 16.25
 optimisation between [QCUT,QGAM] = [ 13.49, 26.98] = [ 50.95,203.80] Ry 
 Optimized for a Real-space Cutoff    1.25 Angstroem

   l    n(q)    QCUT    max X(q) W(low)/X(q) W(high)/X(q)  e(spline) 
   0     10    13.489    65.336    0.91E-04    0.11E-03    0.34E-06
   0     10    13.489    52.220    0.89E-04    0.11E-03    0.34E-06
   1     10    13.489    36.409    0.22E-03    0.27E-03    0.14E-06
   1     10    13.489    21.334    0.21E-03    0.27E-03    0.14E-06
   2      9    13.489     4.673    0.11E-03    0.12E-03    0.19E-06
  PAW_PBE Ge 05Jan2001                  :
 energy of atom  1       EATOM= -104.9960
 kinetic energy error for atom=    0.0001 (will be added to EATOM!!)
 
 
 POSCAR: Ge+Ge
  positions in direct lattice
  No initial velocities read in


 exchange-correlation table for PE
   RHO(1)=    0.500       N(1)  =     2000
   RHO(2)=  100.500       N(2)  =     4000
 


--------------------------------------------------------------------------------------------------------


 ion  position               nearest neighbor table
   1  0.752  0.161  0.500-   6 2.45  35 2.45  52 2.45
   2  0.993  0.948  0.000-  49 2.09  38 2.45  21 2.45  39 2.45  79 2.71
   3  0.951  0.656  0.083-  22 2.45  39 2.45  40 2.45
   4  0.909  0.365  0.166-  20 2.45  41 2.45  57 2.45  40 2.45
   5  0.868  0.073  0.249-  21 2.45  41 2.45  42 2.45
   6  0.627  0.036  0.500-  35 0.00  74 2.44  36 2.44   1 2.45  69 2.45  93 2.45
   7  0.252  0.661  0.500-  18 2.44  19 2.45  48 2.45
   8  0.493  0.448  0.000-  55 2.09  45 2.45  15 2.45  44 2.45  73 2.71
   9  0.451  0.156  0.083-  45 2.45  16 2.45  46 2.45
  10  0.409  0.865  0.166-  14 2.45  47 2.45  17 2.45  46 2.45
  11  0.368  0.573  0.249-  15 2.45  47 2.45  18 2.45  58 2.45
  12  0.326  0.281  0.332-  37 2.44  16 2.45  87 2.45  94 2.45  58 2.45  81 2.45  86 2.45
  13  0.502  0.411  0.500-  58 2.44  37 2.45  76 2.45
  14  0.368  0.823  0.000-  67 2.09  10 2.45  26 2.45  91 2.71  84 2.74  79 2.78
  15  0.326  0.531  0.083-  11 2.45  27 2.45   8 2.45  26 2.45  55 2.74
  16  0.284  0.240  0.166-  12 2.45  28 2.45   9 2.45  27 2.45
  17  0.243  0.948  0.249-  28 2.45  62 2.45  10 2.45  92 2.45
  18  0.201  0.656  0.332-   7 2.44  11 2.45  92 2.45  30 2.45
  19  0.127  0.536  0.500-  81 2.44  86 2.44  30 2.44  63 2.45   7 2.45
  20  0.868  0.323  0.000-  61 2.09   4 2.45  32 2.45  85 2.71  78 2.74  73 2.78
  21  0.826  0.031  0.083-   5 2.45   2 2.45  32 2.45  33 2.45  49 2.74
  22  0.784  0.740  0.166-   3 2.45  34 2.45  33 2.45
  23  0.585  0.745  0.583-  56 2.44  93 2.45  43 2.45  64 2.45
  24  0.877  0.786  0.500-  31 0.00  50 2.44  93 2.45  63 2.45  29 2.45
  25  0.918  0.328  0.666-  78 2.45  51 2.45  75 2.45  52 2.45
  26  0.243  0.698  0.000-  79 2.09  14 2.45  39 2.45  15 2.45  55 2.71
  27  0.201  0.406  0.083-  15 2.45  40 2.45  16 2.45
  28  0.159  0.115  0.166-  17 2.45  38 2.45  16 2.45  41 2.45
  29  0.002  0.911  0.500-  42 2.44  82 2.45  24 2.45  31 2.45
  30  0.076  0.531  0.332-  19 2.44  40 2.45  50 2.45  81 2.45  86 2.45  18 2.45
  31  0.877  0.786  0.500-  24 0.00  50 2.44  93 2.45  63 2.45  29 2.45
  32  0.743  0.198  0.000-  73 2.09  21 2.45  20 2.45  45 2.45  49 2.71
  33  0.701  0.906  0.083-  46 2.45  21 2.45  22 2.45
  34  0.659  0.615  0.166-  57 2.45  44 2.45  22 2.45  47 2.45
  35  0.627  0.036  0.500-   6 0.00  74 2.44  36 2.44   1 2.45  69 2.45  93 2.45
  36  0.576  0.031  0.332-   6 2.44  35 2.44  46 2.45  74 2.45  87 2.45  94 2.45
  37  0.377  0.286  0.500-  87 2.44  94 2.44  12 2.44  69 2.45  13 2.45
  38  0.118  0.073  0.000-  85 2.09   2 2.45  28 2.45  67 2.71  54 2.74  49 2.78
  39  0.076  0.781  0.083-  92 2.45   3 2.45  26 2.45   2 2.45  79 2.74
  40  0.034  0.490  0.166-  30 2.45  27 2.45   4 2.45   3 2.45
  41  0.993  0.198  0.249-  88 2.45   5 2.45   4 2.45  28 2.45
  42  0.951  0.906  0.332-  29 2.44  92 2.45   5 2.45
  43  0.418  0.828  0.666-  84 2.45  48 2.45  23 2.45
  44  0.618  0.573  0.000-  91 2.09  34 2.45   8 2.45  61 2.71  60 2.74  55 2.78
  45  0.576  0.281  0.083-   8 2.45   9 2.45  80 2.45  32 2.45  73 2.74
  46  0.534  0.990  0.166-  36 2.45  33 2.45  10 2.45   9 2.45
  47  0.493  0.698  0.249-  56 2.45  11 2.45  10 2.45  34 2.45
  48  0.293  0.703  0.666-  43 2.45  65 2.45  95 2.45   7 2.45
  49  0.918  0.078  0.914-   2 2.09  71 2.45  85 2.45  32 2.71  21 2.74  38 2.78
  50  0.909  0.615  0.414-  24 2.44  31 2.44  63 2.44  68 2.45  30 2.45
  51  0.085  0.245  0.583-  88 2.44  25 2.45  70 2.45
  52  0.793  0.203  0.666-  71 2.45  89 2.45   1 2.45  25 2.45
  53  0.502  0.161  0.749-  90 2.45  72 2.45  69 2.45  89 2.45
  54  0.210  0.120  0.832-  67 2.45  70 2.45  90 2.45  85 2.45  38 2.74
  55  0.418  0.578  0.914-   8 2.09  65 2.45  91 2.45  26 2.71  15 2.74  44 2.78
  56  0.534  0.740  0.414-  23 2.44  74 2.45  47 2.45
  57  0.743  0.448  0.249-  80 2.45  34 2.45  68 2.45   4 2.45
  58  0.451  0.406  0.332-  13 2.44  12 2.45  11 2.45  80 2.45
  59  0.002  0.661  0.749-  95 2.45  96 2.45  66 2.45  63 2.45
  60  0.710  0.620  0.832-  64 2.45  91 2.45  61 2.45  96 2.45  44 2.74
  61  0.793  0.453  0.914-  20 2.09  60 2.45  78 2.45  73 2.45  44 2.71
  62  0.284  0.990  0.414-  17 2.45  87 2.45  94 2.45
  63  0.960  0.620  0.583-  50 2.44  75 2.45  19 2.45  24 2.45  31 2.45  59 2.45
  64  0.668  0.578  0.666-  60 2.45  76 2.45  75 2.45  23 2.45
  65  0.377  0.536  0.749-  55 2.45  76 2.45  48 2.45  77 2.45
  66  0.085  0.495  0.832-  77 2.45  59 2.45  78 2.45
  67  0.293  0.953  0.914-  14 2.09  54 2.45  79 2.45  84 2.45  38 2.71
  68  0.784  0.490  0.414-  75 2.44  57 2.45  50 2.45
  69  0.460  0.120  0.583-  87 2.44  94 2.44  37 2.45  53 2.45   6 2.45  35 2.45
  70  0.168  0.078  0.666-  54 2.45  51 2.45  82 2.45
  71  0.877  0.036  0.749-  49 2.45  52 2.45  82 2.45  83 2.45
  72  0.585  0.995  0.832-  53 2.45  84 2.45  83 2.45
  73  0.668  0.328  0.914-  32 2.09  89 2.45  61 2.45   8 2.71  45 2.74  20 2.78
  74  0.659  0.865  0.414-   6 2.44  35 2.44  93 2.44  56 2.45  36 2.45
  75  0.835  0.495  0.583-  68 2.44  63 2.45  25 2.45  64 2.45
  76  0.543  0.453  0.666-  89 2.45  65 2.45  64 2.45  13 2.45
  77  0.252  0.411  0.749-  66 2.45  90 2.45  65 2.45
  78  0.960  0.370  0.832-  25 2.45  66 2.45  61 2.45  85 2.45  20 2.74
  79  0.168  0.828  0.914-  26 2.09  67 2.45  95 2.45   2 2.71  39 2.74  14 2.78
  80  0.618  0.323  0.249-  57 2.45  45 2.45  58 2.45
  81  0.159  0.365  0.414-  86 0.00  19 2.44  88 2.45  12 2.45  30 2.45
  82  0.043  0.953  0.666-  71 2.45  95 2.45  29 2.45  70 2.45
  83  0.752  0.911  0.749-  71 2.45  72 2.45  96 2.45  93 2.45
  84  0.460  0.870  0.832-  43 2.45  67 2.45  72 2.45  91 2.45  14 2.74
  85  0.043  0.203  0.914-  38 2.09  49 2.45  54 2.45  78 2.45  20 2.71
  86  0.159  0.365  0.414-  81 0.00  19 2.44  88 2.45  12 2.45  30 2.45
  87  0.409  0.115  0.414-  94 0.00  37 2.44  69 2.44  12 2.45  62 2.45  36 2.45
  88  0.034  0.240  0.414-  51 2.44  41 2.45  81 2.45  86 2.45
  89  0.627  0.286  0.749-  76 2.45  52 2.45  53 2.45  73 2.45
  90  0.335  0.245  0.832-  53 2.45  54 2.45  77 2.45
  91  0.543  0.703  0.914-  44 2.09  60 2.45  84 2.45  55 2.45  14 2.71
  92  0.118  0.823  0.249-  42 2.45  39 2.45  17 2.45  18 2.45
  93  0.710  0.870  0.583-  74 2.44  23 2.45  31 2.45  24 2.45  83 2.45   6 2.45  35 2.45
  94  0.409  0.115  0.414-  87 0.00  37 2.44  69 2.44  12 2.45  62 2.45  36 2.45
  95  0.127  0.786  0.749-  79 2.45  59 2.45  82 2.45  48 2.45
  96  0.835  0.745  0.832-  59 2.45  83 2.45  60 2.45
 
 -----------------------------------------------------------------------------
|                                                                             |
|           W    W    AA    RRRRR   N    N  II  N    N   GGGG   !!!           |
|           W    W   A  A   R    R  NN   N  II  NN   N  G    G  !!!           |
|           W    W  A    A  R    R  N N  N  II  N N  N  G       !!!           |
|           W WW W  AAAAAA  RRRRR   N  N N  II  N  N N  G  GGG   !            |
|           WW  WW  A    A  R   R   N   NN  II  N   NN  G    G                |
|           W    W  A    A  R    R  N    N  II  N    N   GGGG   !!!           |
|                                                                             |
|     The distance between some ions is very small. Please check the          |
|     nearest-neighbor list in the OUTCAR file.                               |
|     I HOPE YOU KNOW WHAT YOU ARE DOING!                                     |
|                                                                             |
 -----------------------------------------------------------------------------

  LATTYP: Found a base centered orthorhombic cell.
 ALAT       =    16.0026764918
 B/A-ratio  =     1.2247448613
 C/A-ratio  =     0.8707237428
  
  Lattice vectors:
  
 A1 = (  -2.5302453040, -12.3956203460,   0.0000000000)
 A2 = (  12.6512260440,   0.0000000000,   0.0000000000)
 A3 = (   0.0000000000,   0.0000000000,  13.9339103700)


Analysis of symmetry for initial positions (statically):
=====================================================================
 Subroutine PRICEL returns:
 Original cell was already a primitive cell.
 

 Routine SETGRP: Setting up the symmetry group for a 
 base centered orthorhombic supercell.


 Subroutine GETGRP returns: Found  2 space group operations
 (whereof  1 operations were pure point group operations)
 out of a pool of  8 trial point group operations.


The static configuration has the point symmetry C_1 .
 The point group associated with its full space group is S_2 .


Analysis of symmetry for dynamics (positions and initial velocities):
=====================================================================
 Subroutine PRICEL returns:
 Original cell was already a primitive cell.
 

 Routine SETGRP: Setting up the symmetry group for a 
 base centered orthorhombic supercell.


 Subroutine GETGRP returns: Found  2 space group operations
 (whereof  1 operations were pure point group operations)
 out of a pool of  8 trial point group operations.


The dynamic configuration has the point symmetry C_1 .
 The point group associated with its full space group is S_2 .


Analysis of structural, dynamic, and magnetic symmetry:
=====================================================================
 Subroutine PRICEL returns:
 Original cell was already a primitive cell.
 

 Routine SETGRP: Setting up the symmetry group for a 
 base centered orthorhombic supercell.


 Subroutine GETGRP returns: Found  2 space group operations
 (whereof  1 operations were pure point group operations)
 out of a pool of  8 trial point group operations.


The overall configuration has the point symmetry C_1 .
 The point group associated with its full space group is S_2 .


 Subroutine INISYM returns: Found  2 space group operations
 (whereof  1 operations are pure point group operations),
 and found     1 'primitive' translations


----------------------------------------------------------------------------------------

                                     Primitive cell                                     

  volume of cell :    2185.1130

  direct lattice vectors                    reciprocal lattice vectors
    12.651226044  0.000000000  0.000000000     0.079043722 -0.016134732  0.000000000
     2.530245304 12.395620346  0.000000000     0.000000000  0.080673655  0.000000000
     0.000000000  0.000000000 13.933910370     0.000000000  0.000000000  0.071767363

  length of vectors
    12.651226044 12.651227018 13.933910370     0.080673661  0.080673655  0.071767363

  position of ions in fractional coordinates (direct lattice)
     0.751703978  0.161241293  0.500000000
     0.992590368  0.948132515  0.000000022
     0.950923562  0.656465769  0.082883760
     0.909256816  0.364798903  0.165767506
     0.867590070  0.073132217  0.248651221
     0.626703978  0.036241293  0.500000000
     0.251704097  0.661241174  0.500000000
     0.492590368  0.448132515  0.000000028
     0.450923622  0.156465769  0.082883760
     0.409256876  0.864798963  0.165767506
     0.367590129  0.573132277  0.248651221
     0.325923383  0.281465530  0.331534922
     0.501703978  0.411241174  0.500000000
     0.367590398  0.823132634  0.000000012
     0.325923622  0.531465828  0.082883760
     0.284256876  0.239799008  0.165767536
     0.242590174  0.948132396  0.248651192
     0.200923383  0.656465650  0.331534922
     0.126703978  0.536241174  0.500000000
     0.867590487  0.323132575  0.000000012
     0.825923681  0.031465776  0.082883760
     0.784256876  0.739798903  0.165767506
     0.585037172  0.744574428  0.582883716
     0.876703978  0.786241174  0.500000000
     0.918370485  0.327907681  0.665767550
     0.242590353  0.698132634  0.000000000
     0.200923592  0.406465799  0.082883753
     0.159256846  0.114798956  0.165767506
     0.001703978  0.911241293  0.500000000
     0.075923339  0.531465530  0.331534892
     0.876703978  0.786241174  0.500000000
     0.742590427  0.198132515  0.000000021
     0.700923622  0.906465709  0.082883768
     0.659256876  0.614798903  0.165767506
     0.626703978  0.036241293  0.500000000
     0.575923443  0.031465471  0.331534892
     0.376703978  0.286241174  0.500000000
     0.117590360  0.073132515  0.000000021
     0.075923599  0.781465769  0.082883760
     0.034256846  0.489798963  0.165767506
     0.992590070  0.198132217  0.248651221
     0.950923383  0.906465530  0.331534922
     0.418370485  0.827907741  0.665767550
     0.617590487  0.573132575  0.000000012
     0.575923622  0.281465828  0.082883753
     0.534256935  0.989799023  0.165767536
     0.492590189  0.698132277  0.248651251
     0.293370485  0.702907681  0.665767550
     0.918370128  0.077907324  0.914418697
     0.909256577  0.614798784  0.414418697
     0.085037112  0.244574308  0.582883716
     0.793370366  0.202907562  0.665767550
     0.501703620  0.161240816  0.748651266
     0.210036993  0.119574070  0.831534982
     0.418370128  0.577907443  0.914418697
     0.534256697  0.739798665  0.414418697
     0.742590129  0.448132336  0.248651192
     0.450923443  0.406465530  0.331534952
     0.001703739  0.661240935  0.748651266
     0.710036874  0.619574189  0.831534982
     0.793370247  0.452907443  0.914418697
     0.284256607  0.989798784  0.414418697
     0.960037231  0.619574428  0.582883716
     0.668370485  0.577907681  0.665767550
     0.376703858  0.536240995  0.748651266
     0.085037112  0.494574189  0.831534982
     0.293370128  0.952907443  0.914418578
     0.784256577  0.489798665  0.414418638
     0.460037202  0.119574547  0.582883716
     0.168370485  0.077907681  0.665767550
     0.876703739  0.036241055  0.748651266
     0.585036993  0.994574189  0.831534982
     0.668370128  0.327907383  0.914418697
     0.659256577  0.864798665  0.414418638
     0.835037231  0.494574398  0.582883716
     0.543370485  0.452907652  0.665767550
     0.251703739  0.411240906  0.748651147
     0.960036993  0.369574159  0.831534863
     0.168370128  0.827907503  0.914418697
     0.617590249  0.323132336  0.248651221
     0.159256637  0.364798784  0.414418697
     0.043370366  0.952907681  0.665767550
     0.751703739  0.911241055  0.748651266
     0.460036904  0.869574249  0.831534982
     0.043370128  0.202907324  0.914418697
     0.159256637  0.364798784  0.414418697
     0.409256607  0.114798844  0.414418697
     0.034256559  0.239798784  0.414418638
     0.626703620  0.286240935  0.748651147
     0.335036993  0.244574189  0.831534982
     0.543370247  0.702907503  0.914418697
     0.117590085  0.823132396  0.248651177
     0.710037231  0.869574428  0.582883716
     0.409256607  0.114798844  0.414418697
     0.126703739  0.786240995  0.748651266
     0.835036993  0.744574249  0.831534982

  ion indices of the primitive-cell ions
   primitive index   ion index
                 1           1
                 2           2
                 3           3
                 4           4
                 5           5
                 6           6
                 7           7
                 8           8
                 9           9
                10          10
                11          11
                12          12
                13          13
                14          14
                15          15
                16          16
                17          17
                18          18
                19          19
                20          20
                21          21
                22          22
                23          23
                24          24
                25          25
                26          26
                27          27
                28          28
                29          29
                30          30
                31          31
                32          32
                33          33
                34          34
                35          35
                36          36
                37          37
                38          38
                39          39
                40          40
                41          41
                42          42
                43          43
                44          44
                45          45
                46          46
                47          47
                48          48
                49          49
                50          50
                51          51
                52          52
                53          53
                54          54
                55          55
                56          56
                57          57
                58          58
                59          59
                60          60
                61          61
                62          62
                63          63
                64          64
                65          65
                66          66
                67          67
                68          68
                69          69
                70          70
                71          71
                72          72
                73          73
                74          74
                75          75
                76          76
                77          77
                78          78
                79          79
                80          80
                81          81
                82          82
                83          83
                84          84
                85          85
                86          86
                87          87
                88          88
                89          89
                90          90
                91          91
                92          92
                93          93
                94          94
                95          95
                96          96

----------------------------------------------------------------------------------------

 
 
 KPOINTS: Automatic KPOINTS generated             

Automatic generation of k-mesh.
 Grid dimensions read from file:
 generate k-points for:    3    3    2

 Generating k-lattice:

  Cartesian coordinates                     Fractional coordinates (reciprocal lattice)
     0.026347907 -0.005378244  0.000000000     0.333333333 -0.000000000  0.000000000
     0.000000000  0.026891218  0.000000000     0.000000000  0.333333333  0.000000000
     0.000000000  0.000000000  0.035883681     0.000000000  0.000000000  0.500000000

  Length of vectors
     0.026891220  0.026891218  0.035883681

  Shift w.r.t. Gamma in fractional coordinates (k-lattice)
     0.000000000  0.000000000  0.000000000

 
 Subroutine IBZKPT returns following result:
 ===========================================
 
 Found     10 irreducible k-points:
 
 Following reciprocal coordinates:
            Coordinates               Weight
  0.000000  0.000000  0.000000      1.000000
  0.333333  0.000000  0.000000      2.000000
  0.000000 -0.333333  0.000000      2.000000
  0.333333  0.333333  0.000000      2.000000
 -0.333333  0.333333  0.000000      2.000000
  0.000000  0.000000  0.500000      1.000000
  0.333333  0.000000  0.500000      2.000000
  0.000000 -0.333333  0.500000      2.000000
  0.333333  0.333333  0.500000      2.000000
 -0.333333  0.333333  0.500000      2.000000
 
 Following cartesian coordinates:
            Coordinates               Weight
  0.000000  0.000000  0.000000      1.000000
  0.026348 -0.005378  0.000000      2.000000
  0.000000 -0.026891  0.000000      2.000000
  0.026348  0.021513  0.000000      2.000000
 -0.026348  0.032269  0.000000      2.000000
  0.000000  0.000000  0.035884      1.000000
  0.026348 -0.005378  0.035884      2.000000
  0.000000 -0.026891  0.035884      2.000000
  0.026348  0.021513  0.035884      2.000000
 -0.026348  0.032269  0.035884      2.000000
 
 -----------------------------------------------------------------------------
|                                                                             |
|           W    W    AA    RRRRR   N    N  II  N    N   GGGG   !!!           |
|           W    W   A  A   R    R  NN   N  II  NN   N  G    G  !!!           |
|           W    W  A    A  R    R  N N  N  II  N N  N  G       !!!           |
|           W WW W  AAAAAA  RRRRR   N  N N  II  N  N N  G  GGG   !            |
|           WW  WW  A    A  R   R   N   NN  II  N   NN  G    G                |
|           W    W  A    A  R    R  N    N  II  N    N   GGGG   !!!           |
|                                                                             |
|     The number of bands has been changed from the values supplied in        |
|     the INCAR file. This is a result of running the parallel version.       |
|     The orbitals not found in the WAVECAR file will be initialized with     |
|     random numbers, which is usually adequate. For correlated               |
|     calculations, however, you should redo the groundstate calculation.     |
|     I found NBANDS = 231. Now, NBANDS = 232.                                |
|                                                                             |
 -----------------------------------------------------------------------------



--------------------------------------------------------------------------------------------------------




 Dimension of arrays:
   k-points           NKPTS =     10   k-points in BZ     NKDIM =     10   number of bands    NBANDS=    232
   number of dos      NEDOS =    301   number of ions     NIONS =     96
   non local maximal  LDIM  =      5   non local SUM 2l+1 LMDIM =     13
   total plane-waves  NPLWV = 635040
   max r-space proj   IRMAX =   2405   max aug-charges    IRDMAX= 126548
   dimension x,y,z NGX =    84 NGY =   84 NGZ =   90
   dimension x,y,z NGXF=   168 NGYF=  168 NGZF=  180
   support grid    NGXF=   336 NGYF=  336 NGZF=  360
   ions per type =              96
   NGX,Y,Z   is equivalent  to a cutoff of  11.04, 11.04, 10.74 a.u.
   NGXF,Y,Z  is equivalent  to a cutoff of  22.08, 22.08, 21.48 a.u.

 SYSTEM =  Si and Ge interface calculation         
 POSCAR =  Ge+Ge                                   

 Startparameter for this run:
   NWRITE =      2    write-flag & timer
   PREC   = normal    normal or accurate (medium, high low for compatibility)
   ISTART =      0    job   : 0-new  1-cont  2-samecut
   ICHARG =      2    charge: 1-file 2-atom 10-const
   ISPIN  =      2    spin polarized calculation?
   LNONCOLLINEAR =      F non collinear calculations
   LSORBIT =      F    spin-orbit coupling
   INIWAV =      1    electr: 0-lowe 1-rand  2-diag
   LASPH  =      T    aspherical Exc in radial PAW
 Electronic Relaxation 1
   ENCUT  =  700.0 eV  51.45 Ry    7.17 a.u.  27.29 27.29 30.06*2*pi/ulx,y,z
   ENINI  =  700.0     initial cutoff
   ENAUG  =  900.0 eV  augmentation charge cutoff
   NELM   =    100;   NELMIN=  2; NELMDL= -5     # of ELM steps 
   EDIFF  = 0.1E-06   stopping-criterion for ELM
   LREAL  =      T    real-space projection
   NLSPLINE    = F    spline interpolate recip. space projectors
   LCOMPAT=      F    compatible to vasp.4.4
   GGA_COMPAT  = T    GGA compatible to vasp.4.4-vasp.4.6
   LMAXPAW     = -100 max onsite density
   LMAXMIX     =    6 max onsite mixed and CHGCAR
   VOSKOWN=      0    Vosko Wilk Nusair interpolation
   ROPT   =   -0.00050
 Ionic relaxation
   EDIFFG = 0.1E-05   stopping-criterion for IOM
   NSW    =      0    number of steps for IOM
   NBLOCK =      1;   KBLOCK =      1    inner block; outer block 
   IBRION =     -1    ionic relax: 0-MD 1-quasi-New 2-CG
   NFREE  =      0    steps in history (QN), initial steepest desc. (CG)
   ISIF   =      2    stress and relaxation
   IWAVPR =     10    prediction:  0-non 1-charg 2-wave 3-comb
   ISYM   =      2    0-nonsym 1-usesym 2-fastsym
   LCORR  =      T    Harris-Foulkes like correction to forces

   POTIM  = 0.5000    time-step for ionic-motion
   TEIN   =    0.0    initial temperature
   TEBEG  =    0.0;   TEEND  =   0.0 temperature during run
   SMASS  =  -3.00    Nose mass-parameter (am)
   estimated Nose-frequenzy (Omega)   =  0.10E-29 period in steps = 0.13E+47 mass=  -0.366E-26a.u.
   SCALEE = 1.0000    scale energy and forces
   NPACO  =    256;   APACO  = 10.0  distance and # of slots for P.C.
   PSTRESS=    0.0 pullay stress

  Mass of Ions in am
   POMASS =  72.61
  Ionic Valenz
   ZVAL   =   4.00
  Atomic Wigner-Seitz radii
   RWIGS  =  -1.00
  virtual crystal weights 
   VCA    =   1.00
   NELECT =     384.0000    total number of electrons
   NUPDOWN=       1.0000    fix difference up-down

 DOS related values:
   EMIN   =  10.00;   EMAX   =-10.00  energy-range for DOS
   EFERMI =   0.00;   METHOD = LEGACY      
   ISMEAR =     0;   SIGMA  =   0.01  broadening in eV -4-tet -1-fermi 0-gaus

 Electronic relaxation 2 (details)
   IALGO  =     38    algorithm
   LDIAG  =      T    sub-space diagonalisation (order eigenvalues)
   LSUBROT=      F    optimize rotation matrix (better conditioning)
   TURBO    =      0    0=normal 1=particle mesh
   IRESTART =      0    0=no restart 2=restart with 2 vectors
   NREBOOT  =      0    no. of reboots
   NMIN     =      0    reboot dimension
   EREF     =   0.00    reference energy to select bands
   IMIX   =      4    mixing-type and parameters
     AMIX     =   0.60;   BMIX     =  1.00
     AMIX_MAG =   2.40;   BMIX_MAG =  1.00
     AMIN     =   0.10
     WC   =   100.;   INIMIX=   1;  MIXPRE=   1;  MAXMIX= -45

 Intra band minimization:
   WEIMIN = 0.0000     energy-eigenvalue tresh-hold
   EBREAK =  0.11E-09  absolut break condition
   DEPER  =   0.30     relativ break condition  

   TIME   =   0.40     timestep for ELM

  volume/ion in A,a.u.               =      22.76       153.60
  Fermi-wavevector in a.u.,A,eV,Ry     =   0.916982  1.732844 11.440530  0.840855
  Thomas-Fermi vector in A             =   2.041899
 
 Write flags
   LWAVE        =      F    write WAVECAR
   LDOWNSAMPLE  =      F    k-point downsampling of WAVECAR
   LCHARG       =      T    write CHGCAR
   LVTOT        =      F    write LOCPOT, total local potential
   LVHAR        =      T    write LOCPOT, Hartree potential only
   WRT_POTENTIAL=  hartree ionic  ! write potential to hdf5 file
   LELF         =      F    write electronic localiz. function (ELF)
   LORBIT       =      0    0 simple, 1 ext, 2 COOP (PROOUT), +10 PAW based schemes


 Dipole corrections
   LMONO      =      F    monopole corrections only (constant potential shift)
   LDIPOL     =      F    correct potential (dipole corrections)
   IDIPOL     =      0    1-x, 2-y, 3-z, 4-all directions 
   EPSILON    =  1.0000000 bulk dielectric constant
   LVACPOTAV  =      F  vacuum potentials using an averaging scheme for the charge density
   VACPOTFLAT =  0.1000000 required flatness to determine vacuum potential
 Exchange correlation treatment:
   GGA     = PE    functional components
   XC_C    = 1    coefficients multiplying the functional components
   LIBXC   =     F    Libxc                    
   VOSKOWN =     0    Vosko Wilk Nusair interpolation
   LHFCALC =     F    Hartree Fock is set to
   LHFONE  =     F    Hartree Fock one center treatment
   AEXX    =    0.0000 exact exchange contribution

 Parameters of functionals:
   PE:
     No parameter
 
 Van der Waals corrections
   IVDW    =     0    specifies the selected vdW correction

 Linear response parameters
   LEPSILON=     F    determine dielectric tensor
   LRPA    =     F    only Hartree local field effects (RPA)
   LNABLA  =     F    use nabla operator in PAW spheres
   LVEL    =     F    velocity operator in full k-point grid
   CSHIFT  =0.1000    complex shift for real part using Kramers Kronig
   OMEGAMAX=  -1.0    maximum frequency
   DEG_THRESHOLD= 0.2000000E-02 threshold for treating states as degnerate
   RTIME   =   -0.100 relaxation time in fs
  (WPLASMAI=    0.000 imaginary part of plasma frequency in eV, 0.658/RTIME)
   DFIELD  = 0.0000000 0.0000000 0.0000000 field for delta impulse in time
 
  Optional k-point grid parameters
   LKPOINTS_OPT  =     F    use optional k-point grid
   KPOINTS_OPT_MODE=     1    mode for optional k-point grid
 
 Orbital magnetization related:
   ORBITALMAG=     F  switch on orbital magnetization
   LCHIMAG   =     F  perturbation theory with respect to B field
   DQ        =  0.001000  dq finite difference perturbation B field
   LLRAUG    =     F  two centre corrections for induced B field
   LBONE     =     F  B-component reconstruction in AE one-centre
   LVGVCALC  =     T  calculate vGv susceptibility
   LVGVAPPL  =     F  apply vGv susceptibility instead of pGv for G=0

 Random number generation:
   RANDOM_GENERATOR = DEFAULT
   PCG_SEED         = not used


--------------------------------------------------------------------------------------------------------


 Static calculation
 charge density and potential will be updated during run
 spin polarized calculation
 Variant of blocked Davidson
 Davidson routine will perform the subspace rotation
 perform sub-space diagonalisation
    after iterative eigenvector-optimisation
 modified Broyden-mixing scheme, WC =      100.0
 initial mixing is a Kerker type mixing with AMIX =  0.6000 and BMIX =      1.0000
 Hartree-type preconditioning will be used
 using additional bands           40
 real space projection scheme for non local part
 use partial core corrections
 calculate Harris-corrections to forces 
   (improved forces if not selfconsistent)
 use gradient corrections 
 use of overlap-Matrix (Vanderbilt PP)
 Gauss-broadening in eV      SIGMA  =   0.01


--------------------------------------------------------------------------------------------------------


  energy-cutoff  :      700.00
  volume of cell :     2185.11
      direct lattice vectors                 reciprocal lattice vectors
    12.651226044  0.000000000  0.000000000     0.079043722 -0.016134732  0.000000000
     2.530245304 12.395620346  0.000000000     0.000000000  0.080673655  0.000000000
     0.000000000  0.000000000 13.933910370     0.000000000  0.000000000  0.071767363

  length of vectors
    12.651226044 12.651227018 13.933910370     0.080673661  0.080673655  0.071767363


 
 k-points in units of 2pi/SCALE and weight: Automatic KPOINTS generated             
   0.00000000  0.00000000  0.00000000       0.056
   0.02634791 -0.00537824  0.00000000       0.111
   0.00000000 -0.02689122  0.00000000       0.111
   0.02634791  0.02151297  0.00000000       0.111
  -0.02634791  0.03226946  0.00000000       0.111
   0.00000000  0.00000000  0.03588368       0.056
   0.02634791 -0.00537824  0.03588368       0.111
   0.00000000 -0.02689122  0.03588368       0.111
   0.02634791  0.02151297  0.03588368       0.111
  -0.02634791  0.03226946  0.03588368       0.111
 
 k-points in reciprocal lattice and weights: Automatic KPOINTS generated             
   0.00000000  0.00000000  0.00000000       0.056
   0.33333333  0.00000000  0.00000000       0.111
   0.00000000 -0.33333333  0.00000000       0.111
   0.33333333  0.33333333  0.00000000       0.111
  -0.33333333  0.33333333  0.00000000       0.111
   0.00000000  0.00000000  0.50000000       0.056
   0.33333333  0.00000000  0.50000000       0.111
   0.00000000 -0.33333333  0.50000000       0.111
   0.33333333  0.33333333  0.50000000       0.111
  -0.33333333  0.33333333  0.50000000       0.111
 
 position of ions in fractional coordinates (direct lattice) 
   0.75170398  0.16124129  0.50000000
   0.99259037  0.94813251  0.00000002
   0.95092356  0.65646577  0.08288376
   0.90925682  0.36479890  0.16576751
   0.86759007  0.07313222  0.24865122
   0.62670398  0.03624129  0.50000000
   0.25170410  0.66124117  0.50000000
   0.49259037  0.44813251  0.00000003
   0.45092362  0.15646577  0.08288376
   0.40925688  0.86479896  0.16576751
   0.36759013  0.57313228  0.24865122
   0.32592338  0.28146553  0.33153492
   0.50170398  0.41124117  0.50000000
   0.36759040  0.82313263  0.00000001
   0.32592362  0.53146583  0.08288376
   0.28425688  0.23979901  0.16576754
   0.24259017  0.94813240  0.24865119
   0.20092338  0.65646565  0.33153492
   0.12670398  0.53624117  0.50000000
   0.86759049  0.32313258  0.00000001
   0.82592368  0.03146578  0.08288376
   0.78425688  0.73979890  0.16576751
   0.58503717  0.74457443  0.58288372
   0.87670398  0.78624117  0.50000000
   0.91837048  0.32790768  0.66576755
   0.24259035  0.69813263  0.00000000
   0.20092359  0.40646580  0.08288375
   0.15925685  0.11479896  0.16576751
   0.00170398  0.91124129  0.50000000
   0.07592334  0.53146553  0.33153489
   0.87670398  0.78624117  0.50000000
   0.74259043  0.19813251  0.00000002
   0.70092362  0.90646571  0.08288377
   0.65925688  0.61479890  0.16576751
   0.62670398  0.03624129  0.50000000
   0.57592344  0.03146547  0.33153489
   0.37670398  0.28624117  0.50000000
   0.11759036  0.07313251  0.00000002
   0.07592360  0.78146577  0.08288376
   0.03425685  0.48979896  0.16576751
   0.99259007  0.19813222  0.24865122
   0.95092338  0.90646553  0.33153492
   0.41837048  0.82790774  0.66576755
   0.61759049  0.57313258  0.00000001
   0.57592362  0.28146583  0.08288375
   0.53425694  0.98979902  0.16576754
   0.49259019  0.69813228  0.24865125
   0.29337048  0.70290768  0.66576755
   0.91837013  0.07790732  0.91441870
   0.90925658  0.61479878  0.41441870
   0.08503711  0.24457431  0.58288372
   0.79337037  0.20290756  0.66576755
   0.50170362  0.16124082  0.74865127
   0.21003699  0.11957407  0.83153498
   0.41837013  0.57790744  0.91441870
   0.53425670  0.73979867  0.41441870
   0.74259013  0.44813234  0.24865119
   0.45092344  0.40646553  0.33153495
   0.00170374  0.66124094  0.74865127
   0.71003687  0.61957419  0.83153498
   0.79337025  0.45290744  0.91441870
   0.28425661  0.98979878  0.41441870
   0.96003723  0.61957443  0.58288372
   0.66837048  0.57790768  0.66576755
   0.37670386  0.53624099  0.74865127
   0.08503711  0.49457419  0.83153498
   0.29337013  0.95290744  0.91441858
   0.78425658  0.48979867  0.41441864
   0.46003720  0.11957455  0.58288372
   0.16837048  0.07790768  0.66576755
   0.87670374  0.03624105  0.74865127
   0.58503699  0.99457419  0.83153498
   0.66837013  0.32790738  0.91441870
   0.65925658  0.86479867  0.41441864
   0.83503723  0.49457440  0.58288372
   0.54337048  0.45290765  0.66576755
   0.25170374  0.41124091  0.74865115
   0.96003699  0.36957416  0.83153486
   0.16837013  0.82790750  0.91441870
   0.61759025  0.32313234  0.24865122
   0.15925664  0.36479878  0.41441870
   0.04337037  0.95290768  0.66576755
   0.75170374  0.91124105  0.74865127
   0.46003690  0.86957425  0.83153498
   0.04337013  0.20290732  0.91441870
   0.15925664  0.36479878  0.41441870
   0.40925661  0.11479884  0.41441870
   0.03425656  0.23979878  0.41441864
   0.62670362  0.28624094  0.74865115
   0.33503699  0.24457419  0.83153498
   0.54337025  0.70290750  0.91441870
   0.11759009  0.82313240  0.24865118
   0.71003723  0.86957443  0.58288372
   0.40925661  0.11479884  0.41441870
   0.12670374  0.78624099  0.74865127
   0.83503699  0.74457425  0.83153498
 
 position of ions in cartesian coordinates  (Angst):
   9.91795697  1.99868585  6.96695518
  14.95649296 11.75269069  0.00000031
  13.69136836  8.13730044  1.15489488
  12.42624422  4.52190870  2.30978957
  11.16112054  0.90651920  3.46468383
   8.02027305  0.44923331  6.96695518
   4.85746780  8.19649455  6.96695518
   7.36575728  5.55488052  0.00000039
   6.10063345  1.93949027  1.15489488
   7.36575476 10.71971962  2.30978957
   6.10063107  7.10433011  3.46468383
   4.83550723  3.48893985  4.61957789
   7.38771148  5.09758946  6.96695518
   6.73319670 10.20323963  0.00000017
   5.46807233  6.58784863  1.15489488
   4.20294831  2.97245746  2.30978999
   5.46807067 11.75268922  3.46468342
   4.20294626  8.13729897  4.61957789
   2.95978238  6.64704201  6.96695518
  11.79368805  4.00542872  0.00000017
  10.52856332  0.39003781  1.15489488
  11.79368372  9.17026633  2.30978957
   9.28539346  9.22946193  8.12184945
  13.08076324  9.74594709  6.96695518
  12.44819947  4.06461912  9.27674537
   4.83551221  8.65378708  0.00000000
   3.57038796  5.03839573  1.15489479
   2.30526388  1.42300427  2.30978957
   2.32722141 11.29540111  6.96695518
   2.30526149  6.58784494  4.61957747
  13.08076324  9.74594709  6.96695518
   9.89600322  2.45597543  0.00000029
  11.16112378 11.23620479  1.15489499
   9.89599980  7.62081379  2.30978957
   8.02027305  0.44923331  6.96695518
   7.36575302  0.39003403  4.61957747
   5.49002756  3.54813692  6.96695518
   1.67270543  0.90652289  0.00000029
   2.93782671  9.68675299  1.15489488
   1.67270263  6.07136199  2.30978957
  13.05880446  2.45597174  3.46468383
  14.32392682 11.23620257  4.61957789
   7.38770925 10.26243004  9.27674537
   9.26344286  7.10433381  0.00000017
   7.99831752  3.48894354  1.15489479
   9.26343958 12.26917291  2.30978999
   7.99831574  8.65378266  3.46468424
   5.49002518  8.71297675  9.27674537
  11.81563272  0.96570961 12.74142816
  13.05880222  7.62081232  5.77447298
   1.69465672  3.03165027  8.12184945
  10.55051374  2.51516510  9.27674537
   6.75514472  1.99867994 10.43163964
   2.95977721  1.48219477 11.58653391
   6.75514265  7.16352126 12.74142816
   8.63087434  9.17026338  5.77447298
  10.52856032  5.55487830  3.46468342
   6.73319190  5.03839239  4.61957831
   1.69465616  8.19649159 10.43163964
  10.55051167  7.68000642 11.58653391
  11.18307326  5.61406872 12.74142816
   6.10062831 12.26916995  5.77447298
  13.71332331  7.68000939  8.12184945
   9.91795428  7.16352421  9.27674537
   6.12258692  6.64703979 10.43163964
   2.32721775  6.13055388 11.58653391
   6.12258139 11.81187889 12.74142651
  11.16111800  6.07135830  5.77447216
   6.12258757  1.48220069  8.12184945
   2.32721861  0.96571404  9.27674537
  11.18307593  0.44923036 10.43163964
   9.91795191 12.32836405 11.58653391
   9.28538769  4.06461543 12.74142816
  10.52855674 10.71971593  5.77447216
  11.81563931  6.13055647  8.12184945
   8.02027029  5.61407131  9.27674537
   4.22490127  5.09758614 10.43163798
  13.08075829  4.58110096 11.58653225
   4.22489762 10.26242709 12.74142816
   8.63087792  4.00542576  3.46468383
   2.93782212  4.52190723  5.77447298
   2.95977849 11.81188184  9.27674537
  11.81563732 11.29539816 10.43163964
   8.02026702 10.77891225 11.58653391
   1.06209060  2.51516215 12.74142816
   2.93782212  4.52190723  5.77447298
   5.46806708  1.42300289  5.77447298
   1.04013722  2.97245469  5.77447216
   8.65282894  3.54813396 10.43163798
   4.85746142  3.03164879 11.58653391
   8.65282823  8.71297455 12.74142816
   3.57038563 10.20323668  3.46468321
  11.18307812 10.77891447  8.12184945
   5.46806708  1.42300289  5.77447298
   3.59234023  9.74594487 10.43163964
  12.44819725  9.22945971 11.58653391
 


--------------------------------------------------------------------------------------------------------


 k-point     1 :   0.0000 0.0000 0.0000  plane waves:   91969
 k-point     2 :   0.3333 0.0000 0.0000  plane waves:   91887
 k-point     3 :   0.0000-0.3333 0.0000  plane waves:   91887
 k-point     4 :   0.3333 0.3333 0.0000  plane waves:   91872
 k-point     5 :  -0.3333 0.3333 0.0000  plane waves:   91872
 k-point     6 :   0.0000 0.0000 0.5000  plane waves:   91840
 k-point     7 :   0.3333 0.0000 0.5000  plane waves:   91922
 k-point     8 :   0.0000-0.3333 0.5000  plane waves:   91922
 k-point     9 :   0.3333 0.3333 0.5000  plane waves:   91906
 k-point    10 :  -0.3333 0.3333 0.5000  plane waves:   91900

 maximum and minimum number of plane-waves per node :      5801     5702

 maximum number of plane-waves:     91969
 maximum index in each direction: 
   IXMAX=   27   IYMAX=   27   IZMAX=   30
   IXMIN=  -27   IYMIN=  -27   IZMIN=  -30


 real space projection operators:
  total allocation   :      22296.83 KBytes
  max/ min on nodes  :       1606.41       1316.76


 parallel 3D FFT for wavefunctions:
    minimum data exchange during FFTs selected (reduces bandwidth)
 parallel 3D FFT for charge:
    minimum data exchange during FFTs selected (reduces bandwidth)


 total amount of memory used by VASP MPI-rank0   168805. kBytes
=======================================================================

   base      :      30000. kBytes
   nonlr-proj:       5848. kBytes
   fftplans  :      14311. kBytes
   grid      :      10233. kBytes
   one-center:         97. kBytes
   wavefun   :     108316. kBytes
 
     INWAV:  cpu time      0.0000: real time      0.0002
 Broyden mixing: mesh for mixing (old mesh)
   NGX = 55   NGY = 55   NGZ = 61
  (NGX  =168   NGY  =168   NGZ  =180)
  gives a total of 184525 points

 initial charge density was supplied:
 charge density of overlapping atoms calculated
 number of electron     384.0000000 magnetization       1.0000000
 keeping initial charge density in first step


--------------------------------------------------------------------------------------------------------


 Maximum index for non-local projection operator          375
 Maximum index for augmentation-charges         5288 (set IRDMAX)


--------------------------------------------------------------------------------------------------------


 First call to EWALD:  gamma=   0.137
 Maximum number of real-space cells 3x 3x 3
 Maximum number of reciprocal cells 3x 3x 3

    FEWALD:  cpu time      0.0027: real time      0.0027


--------------------------------------- Ionic step        1  -------------------------------------------




--------------------------------------- Iteration      1(   1)  ---------------------------------------


    POTLOK:  cpu time      0.1796: real time      0.1812
    SETDIJ:  cpu time      1.4930: real time      1.4990
     EDDAV:  cpu time     19.3038: real time     19.4666
       DOS:  cpu time      0.0021: real time      0.0021
    --------------------------------------------
      LOOP:  cpu time     20.9785: real time     21.1491

 eigenvalue-minimisations  :  9280
 total energy-change (2. order) : 0.1419212E+04  (-0.1691884E+05)
 number of electron     384.0000000 magnetization       1.0000000
 augmentation part      384.0000000 magnetization       1.0000000

 Free energy of the ion-electron system (eV)
  ---------------------------------------------------
  alpha Z        PSCENC =       806.12556457
  Ewald energy   TEWEN  =    -10104.32220156
  -Hartree energ DENC   =     -1422.82650069
  -exchange      EXHF   =         0.00000000
  -V(xc)+E(xc)   XCENC  =      -736.35878274
  PAW double counting   =      8461.93788731    -7071.13096423
  entropy T*S    EENTRO =        -0.00107762
  eigenvalues    EBANDS =      1406.18050811
  atomic energy  EATOM  =     10079.60734648
  Solvation  Ediel_sol  =         0.00000000
  ---------------------------------------------------
  free energy    TOTEN  =      1419.21177963 eV

  energy without entropy =     1419.21285725  energy(sigma->0) =     1419.21231844


--------------------------------------------------------------------------------------------------------




--------------------------------------- Iteration      1(   2)  ---------------------------------------


     EDDAV:  cpu time     21.6849: real time     21.8712
       DOS:  cpu time      0.0021: real time      0.0021
    --------------------------------------------
      LOOP:  cpu time     21.6870: real time     21.8733

 eigenvalue-minimisations  : 10856
 total energy-change (2. order) :-0.2137124E+04  (-0.2069037E+04)
 number of electron     384.0000000 magnetization       1.0000000
 augmentation part      384.0000000 magnetization       1.0000000

 Free energy of the ion-electron system (eV)
  ---------------------------------------------------
  alpha Z        PSCENC =       806.12556457
  Ewald energy   TEWEN  =    -10104.32220156
  -Hartree energ DENC   =     -1422.82650069
  -exchange      EXHF   =         0.00000000
  -V(xc)+E(xc)   XCENC  =      -736.35878274
  PAW double counting   =      8461.93788731    -7071.13096423
  entropy T*S    EENTRO =        -0.00185747
  eigenvalues    EBANDS =      -730.94251848
  atomic energy  EATOM  =     10079.60734648
  Solvation  Ediel_sol  =         0.00000000
  ---------------------------------------------------
  free energy    TOTEN  =      -717.91202681 eV

  energy without entropy =     -717.91016934  energy(sigma->0) =     -717.91109807


--------------------------------------------------------------------------------------------------------




--------------------------------------- Iteration      1(   3)  ---------------------------------------


     EDDAV:  cpu time     22.7718: real time     22.9663
       DOS:  cpu time      0.0017: real time      0.0017
    --------------------------------------------
      LOOP:  cpu time     22.7736: real time     22.9680

 eigenvalue-minimisations  : 11480
 total energy-change (2. order) :-0.2281896E+03  (-0.2189369E+03)
 number of electron     384.0000000 magnetization       1.0000000
 augmentation part      384.0000000 magnetization       1.0000000

 Free energy of the ion-electron system (eV)
  ---------------------------------------------------
  alpha Z        PSCENC =       806.12556457
  Ewald energy   TEWEN  =    -10104.32220156
  -Hartree energ DENC   =     -1422.82650069
  -exchange      EXHF   =         0.00000000
  -V(xc)+E(xc)   XCENC  =      -736.35878274
  PAW double counting   =      8461.93788731    -7071.13096423
  entropy T*S    EENTRO =        -0.00196710
  eigenvalues    EBANDS =      -959.13202286
  atomic energy  EATOM  =     10079.60734648
  Solvation  Ediel_sol  =         0.00000000
  ---------------------------------------------------
  free energy    TOTEN  =      -946.10164082 eV

  energy without entropy =     -946.09967372  energy(sigma->0) =     -946.10065727


--------------------------------------------------------------------------------------------------------




--------------------------------------- Iteration      1(   4)  ---------------------------------------


     EDDAV:  cpu time     22.2913: real time     22.4806
       DOS:  cpu time      0.0018: real time      0.0018
    --------------------------------------------
      LOOP:  cpu time     22.2930: real time     22.4824

 eigenvalue-minimisations  : 11240
 total energy-change (2. order) :-0.1064828E+02  (-0.1024221E+02)
 number of electron     384.0000000 magnetization       1.0000000
 augmentation part      384.0000000 magnetization       1.0000000

 Free energy of the ion-electron system (eV)
  ---------------------------------------------------
  alpha Z        PSCENC =       806.12556457
  Ewald energy   TEWEN  =    -10104.32220156
  -Hartree energ DENC   =     -1422.82650069
  -exchange      EXHF   =         0.00000000
  -V(xc)+E(xc)   XCENC  =      -736.35878274
  PAW double counting   =      8461.93788731    -7071.13096423
  entropy T*S    EENTRO =        -0.00194839
  eigenvalues    EBANDS =      -969.78032047
  atomic energy  EATOM  =     10079.60734648
  Solvation  Ediel_sol  =         0.00000000
  ---------------------------------------------------
  free energy    TOTEN  =      -956.74991972 eV

  energy without entropy =     -956.74797133  energy(sigma->0) =     -956.74894553


--------------------------------------------------------------------------------------------------------




--------------------------------------- Iteration      1(   5)  ---------------------------------------


     EDDAV:  cpu time     23.6028: real time     23.8379
       DOS:  cpu time      0.0019: real time      0.0019
    CHARGE:  cpu time      1.0882: real time      1.0961
    MIXING:  cpu time      0.0073: real time      0.0074
    --------------------------------------------
      LOOP:  cpu time     24.7003: real time     24.9433

 eigenvalue-minimisations  : 12160
 total energy-change (2. order) :-0.5168169E+00  (-0.5093100E+00)
 number of electron     383.9999997 magnetization       1.0000000
 augmentation part      -60.4402865 magnetization      -0.0576858

 Broyden mixing:
  rms(total) = 0.65464E+01    rms(broyden)= 0.65464E+01
  rms(prec ) = 0.69958E+01
  weight for this iteration     100.00

 Free energy of the ion-electron system (eV)
  ---------------------------------------------------
  alpha Z        PSCENC =       806.12556457
  Ewald energy   TEWEN  =    -10104.32220156
  -Hartree energ DENC   =     -1422.82650069
  -exchange      EXHF   =         0.00000000
  -V(xc)+E(xc)   XCENC  =      -736.35878274
  PAW double counting   =      8461.93788731    -7071.13096423
  entropy T*S    EENTRO =        -0.00195850
  eigenvalues    EBANDS =      -970.29712728
  atomic energy  EATOM  =     10079.60734648
  Solvation  Ediel_sol  =         0.00000000
  ---------------------------------------------------
  free energy    TOTEN  =      -957.26673665 eV

  energy without entropy =     -957.26477814  energy(sigma->0) =     -957.26575740


--------------------------------------------------------------------------------------------------------




--------------------------------------- Iteration      1(   6)  ---------------------------------------


    POTLOK:  cpu time      0.1527: real time      0.1552
    SETDIJ:  cpu time      1.4852: real time      1.4915
     EDDAV:  cpu time     20.7247: real time     20.9001
       DOS:  cpu time      0.0017: real time      0.0017
    CHARGE:  cpu time      1.1233: real time      1.1312
    MIXING:  cpu time      0.0039: real time      0.0039
    --------------------------------------------
      LOOP:  cpu time     23.4914: real time     23.6835

 eigenvalue-minimisations  : 10248
 total energy-change (2. order) :-0.1824084E+02  (-0.5796238E+02)
 number of electron     383.9999996 magnetization       1.0000000
 augmentation part      -61.8163309 magnetization      -0.0922290

 Broyden mixing:
  rms(total) = 0.30318E+01    rms(broyden)= 0.30318E+01
  rms(prec ) = 0.53772E+01
  weight for this iteration     100.00

 eigenvalues of (default mixing * dielectric matrix)
  average eigenvalue GAMMA=   1.1561
  1.1561

 Free energy of the ion-electron system (eV)
  ---------------------------------------------------
  alpha Z        PSCENC =       806.12556457
  Ewald energy   TEWEN  =    -10104.32220156
  -Hartree energ DENC   =     -1622.45270811
  -exchange      EXHF   =         0.00000000
  -V(xc)+E(xc)   XCENC  =      -720.94499876
  PAW double counting   =     19034.39331157   -17683.23549612
  entropy T*S    EENTRO =        -0.00190842
  eigenvalues    EBANDS =      -764.67648183
  atomic energy  EATOM  =     10079.60734648
  Solvation  Ediel_sol  =         0.00000000
  ---------------------------------------------------
  free energy    TOTEN  =      -975.50757219 eV

  energy without entropy =     -975.50566377  energy(sigma->0) =     -975.50661798


--------------------------------------------------------------------------------------------------------




--------------------------------------- Iteration      1(   7)  ---------------------------------------


    POTLOK:  cpu time      0.1532: real time      0.1549
    SETDIJ:  cpu time      1.4888: real time      1.4948
     EDDAV:  cpu time     22.5297: real time     22.7185
       DOS:  cpu time      0.0019: real time      0.0019
    CHARGE:  cpu time      1.0943: real time      1.1012
    MIXING:  cpu time      0.0056: real time      0.0056
    --------------------------------------------
      LOOP:  cpu time     25.2735: real time     25.4769

 eigenvalue-minimisations  : 11392
 total energy-change (2. order) : 0.5074791E+02  (-0.9410283E+01)
 number of electron     383.9999997 magnetization       1.0000000
 augmentation part      -60.4498679 magnetization      -0.0775925

 Broyden mixing:
  rms(total) = 0.26438E+01    rms(broyden)= 0.26438E+01
  rms(prec ) = 0.31098E+01
  weight for this iteration     100.00

 eigenvalues of (default mixing * dielectric matrix)
  average eigenvalue GAMMA=   1.2015
  1.9320  0.4710

 Free energy of the ion-electron system (eV)
  ---------------------------------------------------
  alpha Z        PSCENC =       806.12556457
  Ewald energy   TEWEN  =    -10104.32220156
  -Hartree energ DENC   =     -1510.53698235
  -exchange      EXHF   =         0.00000000
  -V(xc)+E(xc)   XCENC  =      -717.34272705
  PAW double counting   =     21975.02007811   -20617.53633786
  entropy T*S    EENTRO =        -0.00253936
  eigenvalues    EBANDS =      -835.77186116
  atomic energy  EATOM  =     10079.60734648
  Solvation  Ediel_sol  =         0.00000000
  ---------------------------------------------------
  free energy    TOTEN  =      -924.75966018 eV

  energy without entropy =     -924.75712083  energy(sigma->0) =     -924.75839051


--------------------------------------------------------------------------------------------------------




--------------------------------------- Iteration      1(   8)  ---------------------------------------


    POTLOK:  cpu time      0.1533: real time      0.1554
    SETDIJ:  cpu time      1.4812: real time      1.4871
     EDDAV:  cpu time     22.7492: real time     22.9402
       DOS:  cpu time      0.0017: real time      0.0018
    CHARGE:  cpu time      1.0907: real time      1.0974
    MIXING:  cpu time      0.0040: real time      0.0040
    --------------------------------------------
      LOOP:  cpu time     25.4802: real time     25.6859

 eigenvalue-minimisations  : 11520
 total energy-change (2. order) :-0.8280877E+01  (-0.1124651E+02)
 number of electron     383.9999997 magnetization       1.0000000
 augmentation part      -59.2176889 magnetization      -0.0587223

 Broyden mixing:
  rms(total) = 0.21785E+01    rms(broyden)= 0.21785E+01
  rms(prec ) = 0.34497E+01
  weight for this iteration     100.00

 eigenvalues of (default mixing * dielectric matrix)
  average eigenvalue GAMMA=   1.0277
  2.1261  0.4785  0.4785

 Free energy of the ion-electron system (eV)
  ---------------------------------------------------
  alpha Z        PSCENC =       806.12556457
  Ewald energy   TEWEN  =    -10104.32220156
  -Hartree energ DENC   =     -1497.61966520
  -exchange      EXHF   =         0.00000000
  -V(xc)+E(xc)   XCENC  =      -709.43845912
  PAW double counting   =     30832.27164936   -29480.18201831
  entropy T*S    EENTRO =        -0.00214750
  eigenvalues    EBANDS =      -859.48060555
  atomic energy  EATOM  =     10079.60734648
  Solvation  Ediel_sol  =         0.00000000
  ---------------------------------------------------
  free energy    TOTEN  =      -933.04053683 eV

  energy without entropy =     -933.03838933  energy(sigma->0) =     -933.03946308


--------------------------------------------------------------------------------------------------------




--------------------------------------- Iteration      1(   9)  ---------------------------------------


    POTLOK:  cpu time      0.1538: real time      0.1548
    SETDIJ:  cpu time      1.4822: real time      1.4883
     EDDAV:  cpu time     20.4863: real time     20.6595
       DOS:  cpu time      0.0018: real time      0.0018
    CHARGE:  cpu time      1.0904: real time      1.0970
    MIXING:  cpu time      0.0040: real time      0.0040
    --------------------------------------------
      LOOP:  cpu time     23.2184: real time     23.4054

 eigenvalue-minimisations  : 10072
 total energy-change (2. order) : 0.9139564E+01  (-0.1364743E+02)
 number of electron     383.9999997 magnetization       1.0000000
 augmentation part      -61.1759986 magnetization      -0.0681661

 Broyden mixing:
  rms(total) = 0.81989E+00    rms(broyden)= 0.81988E+00
  rms(prec ) = 0.14456E+01
  weight for this iteration     100.00

 eigenvalues of (default mixing * dielectric matrix)
  average eigenvalue GAMMA=   0.9082
  2.2348  0.5227  0.5227  0.3525

 Free energy of the ion-electron system (eV)
  ---------------------------------------------------
  alpha Z        PSCENC =       806.12556457
  Ewald energy   TEWEN  =    -10104.32220156
  -Hartree energ DENC   =     -1543.56818748
  -exchange      EXHF   =         0.00000000
  -V(xc)+E(xc)   XCENC  =      -707.42110203
  PAW double counting   =     35120.64992707   -33782.19993372
  entropy T*S    EENTRO =        -0.00248845
  eigenvalues    EBANDS =      -792.76989776
  atomic energy  EATOM  =     10079.60734648
  Solvation  Ediel_sol  =         0.00000000
  ---------------------------------------------------
  free energy    TOTEN  =      -923.90097288 eV

  energy without entropy =     -923.89848443  energy(sigma->0) =     -923.89972865


--------------------------------------------------------------------------------------------------------




--------------------------------------- Iteration      1(  10)  ---------------------------------------


    POTLOK:  cpu time      0.1540: real time      0.1549
    SETDIJ:  cpu time      1.4822: real time      1.4883
     EDDAV:  cpu time     21.9843: real time     22.1679
       DOS:  cpu time      0.0018: real time      0.0018
    CHARGE:  cpu time      1.0878: real time      1.0946
    MIXING:  cpu time      0.0041: real time      0.0041
    --------------------------------------------
      LOOP:  cpu time     24.7141: real time     24.9116

 eigenvalue-minimisations  : 11024
 total energy-change (2. order) : 0.1017044E+01  (-0.2591354E+01)
 number of electron     383.9999996 magnetization       1.0000000
 augmentation part      -61.8311598 magnetization      -0.0802548

 Broyden mixing:
  rms(total) = 0.51403E+00    rms(broyden)= 0.51403E+00
  rms(prec ) = 0.72425E+00
  weight for this iteration     100.00

 eigenvalues of (default mixing * dielectric matrix)
  average eigenvalue GAMMA=   0.7990
  2.2421  0.5536  0.5536  0.3228  0.3228

 Free energy of the ion-electron system (eV)
  ---------------------------------------------------
  alpha Z        PSCENC =       806.12556457
  Ewald energy   TEWEN  =    -10104.32220156
  -Hartree energ DENC   =     -1547.84739445
  -exchange      EXHF   =         0.00000000
  -V(xc)+E(xc)   XCENC  =      -707.03782947
  PAW double counting   =     35916.97505503   -34579.33440731
  entropy T*S    EENTRO =        -0.00220849
  eigenvalues    EBANDS =      -787.04785350
  atomic energy  EATOM  =     10079.60734648
  Solvation  Ediel_sol  =         0.00000000
  ---------------------------------------------------
  free energy    TOTEN  =      -922.88392869 eV

  energy without entropy =     -922.88172021  energy(sigma->0) =     -922.88282445


--------------------------------------------------------------------------------------------------------




--------------------------------------- Iteration      1(  11)  ---------------------------------------


    POTLOK:  cpu time      0.1534: real time      0.1545
    SETDIJ:  cpu time      1.4860: real time      1.4918
     EDDAV:  cpu time     21.3690: real time     21.5452
       DOS:  cpu time      0.0017: real time      0.0018
    CHARGE:  cpu time      1.0887: real time      1.0953
    MIXING:  cpu time      0.0064: real time      0.0064
    --------------------------------------------
      LOOP:  cpu time     24.1053: real time     24.2950

 eigenvalue-minimisations  : 10672
 total energy-change (2. order) : 0.7328620E+00  (-0.5426626E+00)
 number of electron     383.9999996 magnetization       1.0000000
 augmentation part      -61.8866204 magnetization      -0.0794380

 Broyden mixing:
  rms(total) = 0.35709E+00    rms(broyden)= 0.35709E+00
  rms(prec ) = 0.49256E+00
  weight for this iteration     100.00

 eigenvalues of (default mixing * dielectric matrix)
  average eigenvalue GAMMA=   0.7893
  2.2538  0.6142  0.6142  0.4457  0.4457  0.3624

 Free energy of the ion-electron system (eV)
  ---------------------------------------------------
  alpha Z        PSCENC =       806.12556457
  Ewald energy   TEWEN  =    -10104.32220156
  -Hartree energ DENC   =     -1545.43090970
  -exchange      EXHF   =         0.00000000
  -V(xc)+E(xc)   XCENC  =      -707.25972455
  PAW double counting   =     35682.97075147   -34343.28238098
  entropy T*S    EENTRO =        -0.00194811
  eigenvalues    EBANDS =      -790.55756428
  atomic energy  EATOM  =     10079.60734648
  Solvation  Ediel_sol  =         0.00000000
  ---------------------------------------------------
  free energy    TOTEN  =      -922.15106667 eV

  energy without entropy =     -922.14911856  energy(sigma->0) =     -922.15009262


--------------------------------------------------------------------------------------------------------




--------------------------------------- Iteration      1(  12)  ---------------------------------------


    POTLOK:  cpu time      0.1557: real time      0.1580
    SETDIJ:  cpu time      1.4885: real time      1.4945
     EDDAV:  cpu time     20.7597: real time     20.9314
       DOS:  cpu time      0.0017: real time      0.0017
    CHARGE:  cpu time      1.0851: real time      1.0915
    MIXING:  cpu time      0.0056: real time      0.0056
    --------------------------------------------
      LOOP:  cpu time     23.4963: real time     23.6826

 eigenvalue-minimisations  : 10304
 total energy-change (2. order) : 0.6129333E+00  (-0.1999417E+00)
 number of electron     383.9999997 magnetization       1.0000000
 augmentation part      -61.6825586 magnetization      -0.0720034

 Broyden mixing:
  rms(total) = 0.19829E+00    rms(broyden)= 0.19829E+00
  rms(prec ) = 0.25295E+00
  weight for this iteration     100.00

 eigenvalues of (default mixing * dielectric matrix)
  average eigenvalue GAMMA=   0.9165
  2.2560  1.2147  1.2147  0.4472  0.4472  0.4179  0.4179

 Free energy of the ion-electron system (eV)
  ---------------------------------------------------
  alpha Z        PSCENC =       806.12556457
  Ewald energy   TEWEN  =    -10104.32220156
  -Hartree energ DENC   =     -1542.56711209
  -exchange      EXHF   =         0.00000000
  -V(xc)+E(xc)   XCENC  =      -707.64958438
  PAW double counting   =     35154.31214610   -33811.89512412
  entropy T*S    EENTRO =        -0.00236511
  eigenvalues    EBANDS =      -795.14680328
  atomic energy  EATOM  =     10079.60734648
  Solvation  Ediel_sol  =         0.00000000
  ---------------------------------------------------
  free energy    TOTEN  =      -921.53813340 eV

  energy without entropy =     -921.53576829  energy(sigma->0) =     -921.53695084


--------------------------------------------------------------------------------------------------------




--------------------------------------- Iteration      1(  13)  ---------------------------------------


    POTLOK:  cpu time      0.1521: real time      0.1543
    SETDIJ:  cpu time      1.4791: real time      1.4858
     EDDAV:  cpu time     21.7797: real time     21.9583
       DOS:  cpu time      0.0017: real time      0.0017
    CHARGE:  cpu time      1.0911: real time      1.0975
    MIXING:  cpu time      0.0099: real time      0.0100
    --------------------------------------------
      LOOP:  cpu time     24.5137: real time     24.7075

 eigenvalue-minimisations  : 10928
 total energy-change (2. order) : 0.1277669E+00  (-0.6572855E-01)
 number of electron     383.9999997 magnetization       1.0000000
 augmentation part      -61.6010496 magnetization      -0.0710501

 Broyden mixing:
  rms(total) = 0.81851E-01    rms(broyden)= 0.81851E-01
  rms(prec ) = 0.98412E-01
  weight for this iteration     100.00

 eigenvalues of (default mixing * dielectric matrix)
  average eigenvalue GAMMA=   0.9161
  2.1774  1.4017  1.4017  0.5954  0.4444  0.4444  0.4320  0.4320

 Free energy of the ion-electron system (eV)
  ---------------------------------------------------
  alpha Z        PSCENC =       806.12556457
  Ewald energy   TEWEN  =    -10104.32220156
  -Hartree energ DENC   =     -1542.64469455
  -exchange      EXHF   =         0.00000000
  -V(xc)+E(xc)   XCENC  =      -707.87693134
  PAW double counting   =     34604.05508513   -33259.90400548
  entropy T*S    EENTRO =        -0.00215377
  eigenvalues    EBANDS =      -796.44837596
  atomic energy  EATOM  =     10079.60734648
  Solvation  Ediel_sol  =         0.00000000
  ---------------------------------------------------
  free energy    TOTEN  =      -921.41036649 eV

  energy without entropy =     -921.40821272  energy(sigma->0) =     -921.40928960


--------------------------------------------------------------------------------------------------------




--------------------------------------- Iteration      1(  14)  ---------------------------------------


    POTLOK:  cpu time      0.1522: real time      0.1547
    SETDIJ:  cpu time      1.4821: real time      1.4882
     EDDAV:  cpu time     21.6082: real time     21.7862
       DOS:  cpu time      0.0036: real time      0.0037
    CHARGE:  cpu time      1.0876: real time      1.0941
    MIXING:  cpu time      0.0074: real time      0.0075
    --------------------------------------------
      LOOP:  cpu time     24.3413: real time     24.5343

 eigenvalue-minimisations  : 10800
 total energy-change (2. order) : 0.1169209E-01  (-0.9605921E-02)
 number of electron     383.9999997 magnetization       1.0000000
 augmentation part      -61.5831533 magnetization      -0.0706181

 Broyden mixing:
  rms(total) = 0.44745E-01    rms(broyden)= 0.44745E-01
  rms(prec ) = 0.55954E-01
  weight for this iteration     100.00

 eigenvalues of (default mixing * dielectric matrix)
  average eigenvalue GAMMA=   0.9340
  2.0615  1.5728  1.5728  0.7287  0.7287  0.4472  0.4472  0.4235  0.4235

 Free energy of the ion-electron system (eV)
  ---------------------------------------------------
  alpha Z        PSCENC =       806.12556457
  Ewald energy   TEWEN  =    -10104.32220156
  -Hartree energ DENC   =     -1542.98931207
  -exchange      EXHF   =         0.00000000
  -V(xc)+E(xc)   XCENC  =      -708.05230543
  PAW double counting   =     34165.63749742   -32820.64663767
  entropy T*S    EENTRO =        -0.00216367
  eigenvalues    EBANDS =      -796.75646247
  atomic energy  EATOM  =     10079.60734648
  Solvation  Ediel_sol  =         0.00000000
  ---------------------------------------------------
  free energy    TOTEN  =      -921.39867440 eV

  energy without entropy =     -921.39651073  energy(sigma->0) =     -921.39759257


--------------------------------------------------------------------------------------------------------




--------------------------------------- Iteration      1(  15)  ---------------------------------------


    POTLOK:  cpu time      0.1529: real time      0.1542
    SETDIJ:  cpu time      1.4831: real time      1.4890
     EDDAV:  cpu time     22.6664: real time     22.8531
       DOS:  cpu time      0.0018: real time      0.0018
    CHARGE:  cpu time      1.0917: real time      1.0980
    MIXING:  cpu time      0.0051: real time      0.0052
    --------------------------------------------
      LOOP:  cpu time     25.4010: real time     25.6012

 eigenvalue-minimisations  : 11464
 total energy-change (2. order) : 0.1249643E-02  (-0.1362619E-02)
 number of electron     383.9999997 magnetization       1.0000000
 augmentation part      -61.5961851 magnetization      -0.0712464

 Broyden mixing:
  rms(total) = 0.28246E-01    rms(broyden)= 0.28246E-01
  rms(prec ) = 0.33429E-01
  weight for this iteration     100.00

 eigenvalues of (default mixing * dielectric matrix)
  average eigenvalue GAMMA=   0.9516
  1.8199  1.7495  1.7495  0.9538  0.9538  0.4450  0.4450  0.4232  0.4232  0.5524

 Free energy of the ion-electron system (eV)
  ---------------------------------------------------
  alpha Z        PSCENC =       806.12556457
  Ewald energy   TEWEN  =    -10104.32220156
  -Hartree energ DENC   =     -1543.23810966
  -exchange      EXHF   =         0.00000000
  -V(xc)+E(xc)   XCENC  =      -708.12936859
  PAW double counting   =     33942.29949395   -32597.07721782
  entropy T*S    EENTRO =        -0.00220450
  eigenvalues    EBANDS =      -796.66072763
  atomic energy  EATOM  =     10079.60734648
  Solvation  Ediel_sol  =         0.00000000
  ---------------------------------------------------
  free energy    TOTEN  =      -921.39742476 eV

  energy without entropy =     -921.39522026  energy(sigma->0) =     -921.39632251


--------------------------------------------------------------------------------------------------------




--------------------------------------- Iteration      1(  16)  ---------------------------------------


    POTLOK:  cpu time      0.1541: real time      0.1552
    SETDIJ:  cpu time      1.4813: real time      1.4875
     EDDAV:  cpu time     21.8243: real time     22.0043
       DOS:  cpu time      0.0018: real time      0.0018
    CHARGE:  cpu time      1.0910: real time      1.0976
    MIXING:  cpu time      0.0066: real time      0.0066
    --------------------------------------------
      LOOP:  cpu time     24.5591: real time     24.7530

 eigenvalue-minimisations  : 10928
 total energy-change (2. order) : 0.1542948E-03  (-0.8621339E-03)
 number of electron     383.9999997 magnetization       1.0000000
 augmentation part      -61.5829023 magnetization      -0.0709507

 Broyden mixing:
  rms(total) = 0.16963E-01    rms(broyden)= 0.16963E-01
  rms(prec ) = 0.21316E-01
  weight for this iteration     100.00

 eigenvalues of (default mixing * dielectric matrix)
  average eigenvalue GAMMA=   0.9477
  1.8945  1.8945  1.6319  1.0701  1.0701  0.4460  0.4460  0.4246  0.4246  0.5609
  0.5609

 Free energy of the ion-electron system (eV)
  ---------------------------------------------------
  alpha Z        PSCENC =       806.12556457
  Ewald energy   TEWEN  =    -10104.32220156
  -Hartree energ DENC   =     -1543.09568377
  -exchange      EXHF   =         0.00000000
  -V(xc)+E(xc)   XCENC  =      -708.14718075
  PAW double counting   =     33825.36804571   -32479.94831145
  entropy T*S    EENTRO =        -0.00218482
  eigenvalues    EBANDS =      -796.98266486
  atomic energy  EATOM  =     10079.60734648
  Solvation  Ediel_sol  =         0.00000000
  ---------------------------------------------------
  free energy    TOTEN  =      -921.39727046 eV

  energy without entropy =     -921.39508564  energy(sigma->0) =     -921.39617805


--------------------------------------------------------------------------------------------------------




--------------------------------------- Iteration      1(  17)  ---------------------------------------


    POTLOK:  cpu time      0.1525: real time      0.1548
    SETDIJ:  cpu time      1.4885: real time      1.4947
     EDDAV:  cpu time     21.6439: real time     21.8213
       DOS:  cpu time      0.0027: real time      0.0027
    CHARGE:  cpu time      1.0892: real time      1.0959
    MIXING:  cpu time      0.0052: real time      0.0053
    --------------------------------------------
      LOOP:  cpu time     24.3819: real time     24.5747

 eigenvalue-minimisations  : 10832
 total energy-change (2. order) : 0.2165298E-03  (-0.1534789E-03)
 number of electron     383.9999997 magnetization       1.0000000
 augmentation part      -61.5847186 magnetization      -0.0711878

 Broyden mixing:
  rms(total) = 0.11400E-01    rms(broyden)= 0.11400E-01
  rms(prec ) = 0.14059E-01
  weight for this iteration     100.00

 eigenvalues of (default mixing * dielectric matrix)
  average eigenvalue GAMMA=   0.9677
  2.0299  2.0299  1.7434  0.9936  0.9936  0.8007  0.8007  0.4461  0.4461  0.4231
  0.4231  0.4827

 Free energy of the ion-electron system (eV)
  ---------------------------------------------------
  alpha Z        PSCENC =       806.12556457
  Ewald energy   TEWEN  =    -10104.32220156
[...]
   0.326E+02 0.248E+02 -.430E+01   -.331E+02 -.250E+02 0.497E+01   0.151E+00 -.610E+00 -.148E+00   -.562E-04 0.158E-03 0.333E-04
   -.125E+02 -.105E+02 0.116E+02   0.122E+02 0.110E+02 -.107E+02   0.488E+00 0.612E+00 -.184E+01   -.152E-03 0.285E-04 -.198E-04
   -.114E+01 0.476E+01 0.700E+01   0.152E+01 -.502E+01 -.729E+01   -.452E+00 0.374E-01 0.166E+00   -.786E-04 -.744E-04 0.591E-04
   0.220E+02 0.367E+02 -.439E+01   -.216E+02 -.380E+02 0.509E+01   0.103E+01 -.334E+01 0.203E+01   0.994E-04 0.645E-04 -.562E-04
   0.852E+01 0.480E+01 0.420E+02   -.960E+01 -.565E+01 -.439E+02   0.437E+00 0.460E+00 0.103E+01   0.457E-04 -.495E-04 0.258E-04
   0.143E+01 0.154E-02 0.144E+01   -.147E+01 -.217E+00 -.183E+01   0.232E+00 0.227E+00 0.612E+00   0.299E-04 -.458E-04 -.241E-04
   -.617E+02 -.440E+02 0.532E+01   0.620E+02 0.438E+02 -.566E+01   0.797E+00 0.811E+00 0.751E+00   0.409E-04 0.168E-03 0.416E-04
   0.176E+02 -.268E+02 0.479E+02   -.182E+02 0.275E+02 -.490E+02   -.124E+00 0.113E+01 -.145E+01   0.124E-04 0.606E-04 -.424E-04
   -.125E+02 -.105E+02 0.116E+02   0.122E+02 0.110E+02 -.107E+02   0.488E+00 0.612E+00 -.184E+01   -.152E-03 0.285E-04 -.198E-04
   0.219E+02 0.380E+02 -.125E+02   -.213E+02 -.393E+02 0.133E+02   0.984E+00 -.338E+01 0.194E+01   0.169E-04 0.153E-04 0.513E-04
   0.359E+01 0.776E+01 0.259E+02   -.424E+01 -.904E+01 -.268E+02   0.189E+00 0.712E+00 0.330E+00   -.524E-04 0.592E-04 0.730E-04
   -.110E+02 -.689E+01 -.958E+01   0.113E+02 0.685E+01 0.909E+01   0.139E+00 0.206E+00 0.821E+00   -.775E-04 0.307E-05 -.482E-04
   -.285E+02 -.200E+02 -.144E+02   0.296E+02 0.212E+02 0.163E+02   -.586E-01 0.243E+00 -.832E+00   0.153E-03 -.389E-04 0.862E-04
   -.383E+02 0.252E+01 0.839E+02   0.391E+02 -.199E+01 -.846E+02   0.497E+00 0.147E+00 -.300E+01   0.184E-03 -.129E-03 -.503E-03
   -.182E+01 -.514E+02 -.671E+02   0.195E+01 0.526E+02 0.690E+02   -.157E+00 0.186E+01 0.155E+01   0.987E-04 0.209E-03 0.151E-03
   -.267E+02 -.251E+01 -.235E+02   0.277E+02 0.858E+00 0.256E+02   0.123E+01 -.207E+01 0.248E+01   -.158E-04 -.291E-04 -.392E-04
   0.247E+02 0.121E+02 -.854E+01   -.248E+02 -.131E+02 0.967E+01   -.548E+00 0.869E+00 0.101E+00   0.784E-04 0.918E-04 -.655E-04
   0.793E+01 -.707E+01 0.247E+02   -.760E+01 0.721E+01 -.253E+02   -.244E+00 -.163E-01 0.122E+00   0.479E-05 -.694E-04 0.489E-05
   0.176E+02 0.578E+01 -.114E+02   -.179E+02 -.621E+01 0.110E+02   0.163E+00 0.198E+00 0.151E+00   -.514E-04 -.438E-04 -.829E-04
   0.852E+00 -.138E+02 0.219E+02   -.190E+01 0.131E+02 -.221E+02   0.353E+00 0.293E+00 -.641E-01   -.657E-04 0.114E-03 -.589E-04
   0.213E+02 -.165E+02 0.183E+02   -.217E+02 0.187E+02 -.186E+02   0.742E-01 -.111E+01 -.785E-01   0.434E-04 0.111E-03 0.125E-04
   -.292E+02 -.279E+01 -.287E+02   0.299E+02 0.155E+01 0.307E+02   0.149E+01 -.248E+01 0.258E+01   -.447E-04 -.303E-04 0.194E-04
   0.144E+02 0.166E+02 -.102E+02   -.143E+02 -.170E+02 0.119E+02   -.731E+00 0.453E+00 -.268E+00   0.843E-04 -.442E-06 0.100E-03
   -.116E+02 0.421E+01 0.241E+02   0.117E+02 -.385E+01 -.244E+02   -.646E-01 -.162E+00 -.324E+00   0.680E-05 0.162E-04 0.833E-04
   -.440E+01 0.206E+01 -.142E+02   0.423E+01 -.226E+01 0.136E+02   0.864E-01 0.690E-01 0.620E+00   0.502E-04 0.723E-04 -.467E-04
   -.254E+01 -.359E+01 0.156E+02   0.315E+01 0.391E+01 -.150E+02   -.445E+00 -.198E+00 -.703E+00   0.149E-03 0.102E-03 0.110E-03
   0.267E+02 0.251E+01 0.235E+02   -.277E+02 -.858E+00 -.256E+02   -.123E+01 0.207E+01 -.248E+01   0.132E-04 0.284E-04 0.441E-04
   0.269E+02 0.145E+02 0.566E+02   -.275E+02 -.149E+02 -.580E+02   -.395E+00 -.528E+00 -.159E+01   -.156E-04 -.212E-04 -.265E-04
   -.851E+00 0.138E+02 -.219E+02   0.190E+01 -.131E+02 0.221E+02   -.353E+00 -.293E+00 0.641E-01   0.623E-04 -.113E-03 0.545E-04
   -.783E+01 -.778E+01 0.109E+02   0.764E+01 0.763E+01 -.113E+02   0.133E+00 -.263E-02 0.522E+00   -.111E-03 -.486E-04 0.313E-04
   0.116E+02 -.421E+01 -.241E+02   -.117E+02 0.385E+01 0.244E+02   0.646E-01 0.162E+00 0.324E+00   -.313E-05 -.171E-04 -.825E-04
   -.231E+02 -.136E+02 0.160E+02   0.232E+02 0.143E+02 -.176E+02   0.761E+00 -.780E+00 0.354E+00   0.180E-04 -.130E-03 -.114E-04
   0.292E+02 0.279E+01 0.287E+02   -.299E+02 -.155E+01 -.307E+02   -.149E+01 0.248E+01 -.258E+01   0.475E-04 0.307E-04 -.133E-04
   0.359E+02 0.322E+02 0.486E+01   -.363E+02 -.318E+02 -.477E+01   -.509E-01 -.673E+00 -.322E-01   0.198E-04 0.156E-03 0.190E-04
   0.254E+01 0.359E+01 -.156E+02   -.315E+01 -.391E+01 0.150E+02   0.445E+00 0.198E+00 0.703E+00   -.149E-03 -.102E-03 -.111E-03
   -.326E+02 -.248E+02 0.430E+01   0.331E+02 0.250E+02 -.497E+01   -.151E+00 0.610E+00 0.148E+00   0.596E-04 -.159E-03 -.367E-04
   -.793E+01 0.707E+01 -.247E+02   0.760E+01 -.721E+01 0.253E+02   0.244E+00 0.163E-01 -.122E+00   -.815E-05 0.709E-04 -.268E-05
   -.186E+02 -.116E+02 0.272E+01   0.187E+02 0.127E+02 -.391E+01   0.587E+00 -.951E+00 -.432E-01   -.104E-03 0.223E-04 0.260E-04
   -.220E+02 -.367E+02 0.439E+01   0.216E+02 0.380E+02 -.509E+01   -.103E+01 0.334E+01 -.203E+01   -.100E-03 -.636E-04 0.619E-04
   0.548E+02 0.489E+02 -.305E+02   -.560E+02 -.498E+02 0.325E+02   0.633E-01 -.327E-01 -.102E+01   -.809E-04 -.166E-03 -.722E-05
   -.176E+02 0.268E+02 -.479E+02   0.182E+02 -.275E+02 0.490E+02   0.124E+00 -.113E+01 0.145E+01   -.156E-04 -.603E-04 0.379E-04
   0.111E+02 0.811E+01 0.704E+01   -.110E+02 -.786E+01 -.719E+01   -.191E+00 -.384E+00 0.454E-01   -.717E-04 0.632E-04 0.472E-04
   0.110E+02 0.689E+01 0.958E+01   -.113E+02 -.685E+01 -.909E+01   -.139E+00 -.206E+00 -.821E+00   0.799E-04 -.376E-05 0.496E-04
   -.122E+02 -.244E+01 -.288E+02   0.135E+02 0.295E+01 0.299E+02   -.511E+00 -.253E+00 -.499E+00   0.426E-04 -.153E-04 0.188E-04
   -.219E+02 -.380E+02 0.125E+02   0.213E+02 0.393E+02 -.133E+02   -.984E+00 0.338E+01 -.194E+01   -.164E-04 -.159E-04 -.460E-04
   0.395E+02 0.266E+02 0.818E+01   -.403E+02 -.263E+02 -.816E+01   0.862E-01 -.156E+00 -.527E-01   -.828E-04 0.163E-05 -.402E-04
   0.383E+02 -.252E+01 -.839E+02   -.391E+02 0.199E+01 0.846E+02   -.497E+00 -.147E+00 0.300E+01   -.180E-03 0.130E-03 0.500E-03
   -.186E+02 0.121E+02 0.185E+02   0.199E+02 -.126E+02 -.188E+02   -.542E+00 -.112E+00 -.232E+00   0.129E-03 -.864E-04 0.594E-04
   -.143E+01 -.172E-02 -.144E+01   0.147E+01 0.217E+00 0.183E+01   -.232E+00 -.227E+00 -.612E+00   -.322E-04 0.462E-04 0.254E-04
   -.238E+01 -.773E+01 -.395E+02   0.319E+01 0.847E+01 0.408E+02   -.307E+00 -.368E+00 -.481E+00   -.552E-04 0.290E-04 -.102E-03
   0.282E+02 0.284E+01 0.240E+02   -.291E+02 -.135E+01 -.261E+02   -.156E+01 0.222E+01 -.246E+01   -.691E-05 -.295E-04 0.464E-04
   0.182E+01 0.514E+02 0.671E+02   -.195E+01 -.526E+02 -.690E+02   0.157E+00 -.186E+01 -.155E+01   -.955E-04 -.209E-03 -.157E-03
   0.196E+02 0.272E+02 -.344E+01   -.196E+02 -.273E+02 0.410E+01   -.284E+00 -.373E+00 -.883E-01   -.455E-04 0.381E-04 0.626E-04
   0.440E+01 -.206E+01 0.142E+02   -.423E+01 0.226E+01 -.136E+02   -.864E-01 -.690E-01 -.620E+00   -.469E-04 -.743E-04 0.442E-04
   0.673E+01 0.682E+01 0.766E+01   -.740E+01 -.739E+01 -.812E+01   0.170E+00 0.865E-01 0.197E+00   0.127E-03 -.617E-04 -.204E-04
   -.247E+02 -.121E+02 0.854E+01   0.248E+02 0.131E+02 -.967E+01   0.548E+00 -.869E+00 -.101E+00   -.817E-04 -.914E-04 0.691E-04
   0.266E+02 0.247E+01 0.283E+02   -.275E+02 -.809E+00 -.304E+02   -.145E+01 0.211E+01 -.262E+01   0.789E-04 0.868E-04 -.218E-04
   -.213E+02 0.165E+02 -.183E+02   0.217E+02 -.187E+02 0.186E+02   -.742E-01 0.111E+01 0.785E-01   -.407E-04 -.111E-03 -.124E-04
   0.125E+02 0.105E+02 -.116E+02   -.122E+02 -.110E+02 0.107E+02   -.488E+00 -.612E+00 0.184E+01   0.150E-03 -.277E-04 0.140E-04
   -.176E+02 -.578E+01 0.114E+02   0.179E+02 0.621E+01 -.110E+02   -.163E+00 -.198E+00 -.151E+00   0.476E-04 0.451E-04 0.823E-04
   0.226E+00 -.950E+00 -.339E+02   -.566E+00 0.633E+00 0.342E+02   0.151E+00 0.133E+00 0.223E+00   -.600E-04 0.539E-04 -.544E-04
   -.144E+02 -.166E+02 0.102E+02   0.143E+02 0.170E+02 -.119E+02   0.731E+00 -.453E+00 0.268E+00   -.813E-04 0.181E-06 -.955E-04
   -.236E+02 -.372E+02 0.929E+01   0.229E+02 0.386E+02 -.101E+02   -.101E+01 0.342E+01 -.187E+01   -.486E-04 -.112E-03 0.559E-04
   0.125E+02 0.105E+02 -.116E+02   -.122E+02 -.110E+02 0.107E+02   -.488E+00 -.612E+00 0.184E+01   0.150E-03 -.277E-04 0.140E-04
   0.285E+02 0.200E+02 0.144E+02   -.296E+02 -.212E+02 -.163E+02   0.586E-01 -.243E+00 0.832E+00   -.150E-03 0.404E-04 -.911E-04
   0.617E+02 0.440E+02 -.532E+01   -.620E+02 -.438E+02 0.566E+01   -.797E+00 -.811E+00 -.751E+00   -.449E-04 -.167E-03 -.469E-04
   0.782E+01 -.500E+00 0.210E+01   -.751E+01 0.574E+00 -.151E+01   -.522E+00 -.122E+00 -.755E+00   -.418E-04 -.587E-04 -.218E-04
   -.359E+01 -.776E+01 -.259E+02   0.424E+01 0.904E+01 0.268E+02   -.189E+00 -.712E+00 -.330E+00   0.541E-04 -.603E-04 -.696E-04
   -.204E+02 -.376E+02 0.560E+01   0.201E+02 0.388E+02 -.624E+01   -.100E+01 0.333E+01 -.196E+01   -.604E-04 0.181E-05 -.114E-04
   0.114E+01 -.476E+01 -.700E+01   -.152E+01 0.502E+01 0.729E+01   0.452E+00 -.374E-01 -.166E+00   0.752E-04 0.741E-04 -.617E-04
   0.103E+02 0.135E+02 -.549E+02   -.991E+01 -.138E+02 0.569E+02   -.632E+00 -.488E+00 0.192E+01   -.142E-03 -.149E-03 0.179E-03
   0.285E+02 0.200E+02 0.144E+02   -.296E+02 -.212E+02 -.163E+02   0.586E-01 -.243E+00 0.832E+00   -.150E-03 0.404E-04 -.911E-04
   -.307E+01 0.348E+01 0.474E+01   0.316E+01 -.334E+01 -.413E+01   -.378E+00 -.237E+00 -.874E+00   0.870E-04 0.984E-04 0.745E-04
   -.852E+01 -.480E+01 -.420E+02   0.960E+01 0.565E+01 0.439E+02   -.437E+00 -.460E+00 -.103E+01   -.470E-04 0.507E-04 -.209E-04
 -----------------------------------------------------------------------------------------------
   -.752E-02 -.750E-02 0.216E-03   -.234E-12 -.222E-12 -.135E-12   -.333E-15 -.500E-15 -.688E-14   0.228E-05 0.278E-05 -.311E-05
 
 
 POSITION                                       TOTAL-FORCE (eV/Angst)
 -----------------------------------------------------------------------------------
      9.91796      1.99869      6.96696         1.135401      0.993840     -1.014384
     14.95649     11.75269      0.00000         1.708636     -4.777058      2.695697
     13.69137      8.13730      1.15489        -0.738170     -0.254048     -0.647811
     12.42624      4.52191      2.30979         0.290661      0.092814      0.263251
     11.16112      0.90652      3.46468        -0.740152      0.620432      0.493921
      8.02027      0.44923      6.96696         1.011896      1.505168      1.034272
      4.85747      8.19649      6.96696         0.660684     -0.136317      0.035006
      7.36576      5.55488      0.00000         1.303131     -4.536273      2.601366
      6.10063      1.93949      1.15489        -0.501977     -0.372390     -0.819881
      7.36575     10.71972      2.30979         0.208369      0.048333      0.167745
      6.10063      7.10433      3.46468         0.100437      0.131821      0.100783
      4.83551      3.48894      4.61958         0.276801      0.855760     -3.919924
      7.38771      5.09759      6.96696         0.379425      0.249425     -0.061827
      6.73320     10.20324      0.00000         2.417493     -3.711787      4.624102
      5.46807      6.58785      1.15489        -0.680350     -0.120989      1.235891
      4.20295      2.97246      2.30979         0.189221      0.183507     -0.561643
      5.46807     11.75269      3.46468         0.063239      0.153478     -0.127625
      4.20295      8.13730      4.61958         0.364750      0.449141     -0.567039
      2.95978      6.64704      6.96696         0.995221      0.961651      3.005533
     11.79369      4.00543      0.00000         2.377278     -3.771374      4.701857
     10.52856      0.39004      1.15489        -0.795692      0.112986      1.332334
     11.79368      9.17027      2.30979         0.490927      0.483670      0.263201
      9.28539      9.22946      8.12185        -0.388277     -0.788672      0.518010
     13.08076      9.74595      6.96696         0.186246      1.089954     -1.010755
     12.44820      4.06462      9.27675        -0.071535     -0.219877     -0.129719
      4.83551      8.65379      0.00000         1.475290     -4.617680      2.730059
      3.57039      5.03840      1.15489        -0.637888     -0.390101     -0.872663
      2.30526      1.42300      2.30979         0.186728      0.011594      0.224381
      2.32722     11.29540      6.96696         1.043060      0.651713      0.409288
      2.30526      6.58784      4.61958        -0.663588      1.777630     -2.620023
     13.08076      9.74595      6.96696         0.186246      1.089954     -1.010755
      9.89600      2.45598      0.00000         1.549718     -4.704456      2.748246
     11.16112     11.23620      1.15489        -0.461221     -0.567211     -0.545664
      9.89600      7.62081      2.30979         0.407175      0.165138      0.332619
      8.02027      0.44923      6.96696         1.011896      1.505168      1.034272
      7.36575      0.39003      4.61958         1.313750      0.672170     -3.721237
      5.49003      3.54814      6.96696        -0.019185      3.014464      3.387521
      1.67271      0.90652      0.00000         2.286532     -3.722304      4.587009
      2.93783      9.68675      1.15489        -0.686063     -0.081316      1.229055
      1.67270      6.07136      2.30979         0.085156      0.120626     -0.470883
     13.05880      2.45597      3.46468        -0.217477     -0.223035     -0.165279
     14.32393     11.23620      4.61958        -0.693054     -0.498778     -0.263766
      7.38771     10.26243      9.27675        -0.345052      1.096527     -0.331153
      9.26344      7.10433      0.00000         2.158042     -3.714551      4.556971
      7.99832      3.48894      1.15489        -0.613984      0.053859      1.441895
      9.26344     12.26917      2.30979         0.109646      0.196940     -0.670892
      7.99832      8.65378      3.46468        -0.084986     -0.130638      0.042694
      5.49003      8.71298      9.27675         0.167394      0.118392     -0.085394
     11.81563      0.96571     12.74143        -2.286532      3.722304     -4.587009
     13.05880      7.62081      5.77447        -0.995221     -0.961651     -3.005533
      1.69466      3.03165      8.12185         0.693054      0.498778      0.263766
     10.55051      2.51517      9.27675        -0.063239     -0.153478      0.127625
      6.75514      1.99868     10.43164        -0.109646     -0.196940      0.670892
      2.95978      1.48219     11.58653         0.795692     -0.112986     -1.332334
      6.75514      7.16352     12.74143        -2.158042      3.714551     -4.556971
      8.63087      9.17026      5.77447        -0.379425     -0.249425      0.061827
     10.52856      5.55488      3.46468        -0.167394     -0.118392      0.085394
      6.73319      5.03839      4.61958         0.388277      0.788672     -0.518010
      1.69466      8.19649     10.43164        -0.085156     -0.120626      0.470883
     10.55051      7.68001     11.58653         0.680350      0.120989     -1.235891
     11.18307      5.61407     12.74143        -1.475290      4.617680     -2.730059
      6.10063     12.26917      5.77447        -1.135401     -0.993840      1.014384
     13.71332      7.68001      8.12185         0.663588     -1.777630      2.620023
      9.91795      7.16352      9.27675        -0.100437     -0.131821     -0.100783
      6.12259      6.64704     10.43164        -0.407175     -0.165138     -0.332619
      2.32722      6.13055     11.58653         0.738170      0.254048      0.647811
      6.12258     11.81188     12.74143        -1.549718      4.704456     -2.748246
     11.16112      6.07136      5.77447        -0.660684      0.136317     -0.035006
      6.12259      1.48220      8.12185        -1.313750     -0.672170      3.721237
      2.32722      0.96571      9.27675         0.740152     -0.620432     -0.493921
     11.18308      0.44923     10.43164        -0.186728     -0.011594     -0.224381
      9.91795     12.32836     11.58653         0.501977      0.372390      0.819881
      9.28539      4.06462     12.74143        -2.417493      3.711787     -4.624102
     10.52856     10.71972      5.77447         0.019185     -3.014464     -3.387521
     11.81564      6.13056      8.12185        -0.364750     -0.449141      0.567039
      8.02027      5.61407      9.27675         0.084986      0.130638     -0.042694
      4.22490      5.09759     10.43164        -0.490927     -0.483670     -0.263201
     13.08076      4.58110     11.58653         0.686063      0.081316     -1.229055
      4.22490     10.26243     12.74143        -2.377278      3.771374     -4.701857
      8.63088      4.00543      3.46468         0.345052     -1.096527      0.331153
      2.93782      4.52191      5.77447        -0.186246     -1.089954      1.010755
      2.95978     11.81188      9.27675         0.217477      0.223035      0.165279
     11.81564     11.29540     10.43164        -0.189221     -0.183507      0.561643
      8.02027     10.77891     11.58653         0.613984     -0.053859     -1.441895
      1.06209      2.51516     12.74143        -1.708636      4.777058     -2.695697
      2.93782      4.52191      5.77447        -0.186246     -1.089954      1.010755
      5.46807      1.42300      5.77447        -1.011896     -1.505168     -1.034272
      1.04014      2.97245      5.77447        -1.043060     -0.651713     -0.409288
      8.65283      3.54813     10.43164        -0.208369     -0.048333     -0.167745
      4.85746      3.03165     11.58653         0.461221      0.567211      0.545664
      8.65283      8.71297     12.74143        -1.303131      4.536273     -2.601366
      3.57039     10.20324      3.46468         0.071535      0.219877      0.129719
     11.18308     10.77891      8.12185        -0.276801     -0.855760      3.919924
      5.46807      1.42300      5.77447        -1.011896     -1.505168     -1.034272
      3.59234      9.74594     10.43164        -0.290661     -0.092814     -0.263251
     12.44820      9.22946     11.58653         0.637888      0.390101      0.872663
 -----------------------------------------------------------------------------------
    total drift:                               -0.007521     -0.007498      0.000213


--------------------------------------------------------------------------------------------------------



  FREE ENERGIE OF THE ION-ELECTRON SYSTEM (eV)
  ---------------------------------------------------
  free  energy   TOTEN  =      -921.39686896 eV

  energy  without entropy=     -921.39472990  energy(sigma->0) =     -921.39579943
 


--------------------------------------------------------------------------------------------------------


    POTLOK:  cpu time      1.6399: real time      1.6467


--------------------------------------------------------------------------------------------------------


     LOOP+:  cpu time    603.6379: real time    608.8218
    4ORBIT:  cpu time      0.0000: real time      0.0000

 total amount of memory used by VASP MPI-rank0   168805. kBytes
=======================================================================

   base      :      30000. kBytes
   nonlr-proj:       5848. kBytes
   fftplans  :      14311. kBytes
   grid      :      10233. kBytes
   one-center:         97. kBytes
   wavefun   :     108316. kBytes
 
  
  
 General timing and accounting informations for this job:
 ========================================================
  
                  Total CPU time used (sec):      652.797
                            User time (sec):      612.108
                          System time (sec):       40.689
                         Elapsed time (sec):      659.758
  
                   Maximum memory used (kb):      440004.
                   Average memory used (kb):          N/A
  
                          Minor page faults:       124052
                          Major page faults:           33
                 Voluntary context switches:         1519
