<?xml version="1.0" encoding="ISO-8859-1"?>
<modeling>
 <generator>
  <i name="program" type="string">vasp </i>
  <i name="version" type="string">6.4.3  </i>
  <i name="subversion" type="string">19Mar24 (build Oct 22 2024 11:23:12) complex                          parallel </i>
  <i name="platform" type="string">LinuxIFC </i>
  <i name="date" type="string">2025 06 04 </i>
  <i name="time" type="string">00:18:25 </i>
 </generator>
 <incar>
  <i type="string" name="SYSTEM">Si and Ge interface calculation</i>
  <i type="int" name="ISTART">     0</i>
  <i type="logical" name="ADDGRID"> T  </i>
  <i type="int" name="ISPIN">     2</i>
  <i name="AMIX">      0.60000000</i>
  <i type="int" name="ICHARG">     2</i>
  <i type="int" name="NELM">   100</i>
  <i name="EDIFF">      0.00000010</i>
  <i name="ENCUT">    700.00000000</i>
  <i name="ENAUG">    900.00000000</i>
  <i type="int" name="NBANDS">   116</i>
  <i name="NUPDOWN">      1.00000000</i>
  <i name="NELECT">    192.00000000</i>
  <i type="string" name="LREAL">AUTO</i>
  <i type="int" name="ISMEAR">     0</i>
  <i name="SIGMA">      0.01000000</i>
  <i type="int" name="LMAXMIX">     6</i>
  <i type="logical" name="LWAVE"> F  </i>
  <i type="logical" name="LVTOT"> F  </i>
  <i type="logical" name="LVHAR"> T  </i>
  <i type="logical" name="LASPH"> T  </i>
  <i type="logical" name="LMIXTAU"> T  </i>
 </incar>
 <primitive_cell>
  <structure name="primitive_cell" >
   <crystal>
    <varray name="basis" >
     <v>       2.71549987      -2.71549946       0.00000000 </v>
     <v>       2.71549938       2.71550207       0.00000000 </v>
     <v>       0.00000000       0.00000000       6.78875065 </v>
    </varray>
    <i name="volume">    100.11969790 </i>
    <varray name="rec_basis" >
     <v>       0.18412827      -0.18412808       0.00000000 </v>
     <v>       0.18412809       0.18412812       0.00000000 </v>
     <v>       0.00000000       0.00000000       0.14730251 </v>
    </varray>
   </crystal>
   <varray name="positions" >
    <v>       0.01779687       0.01779685       0.00000000 </v>
    <v>       0.51779726       0.51779676       0.40000001 </v>
    <v>       0.01779689       0.01779687       0.79999995 </v>
    <v>       0.51779752       0.01779667       0.20000000 </v>
    <v>       0.51779758       0.01779673       0.00000000 </v>
    <v>       0.01779724       0.51779686       0.60000014 </v>
   </varray>
  </structure>
  <varray name="primitive_index" >
   <v type="int" >        1 </v>
   <v type="int" >       17 </v>
   <v type="int" >       30 </v>
   <v type="int" >        7 </v>
   <v type="int" >       48 </v>
   <v type="int" >       32 </v>
  </varray>
 </primitive_cell>
 <kpoints>
  <generation param="Gamma">
   <v type="int" name="divisions">       6        3        2 </v>
   <v name="usershift">      0.00000000       0.00000000       0.00000000 </v>
   <v name="genvec1">      0.16666667      -0.00000000       0.00000000 </v>
   <v name="genvec2">      0.00000000       0.33333333       0.00000000 </v>
   <v name="genvec3">      0.00000000       0.00000000       0.50000000 </v>
   <v name="shift">      0.00000000       0.00000000       0.00000000 </v>
  </generation>
  <varray name="kpointlist" >
   <v>       0.00000000       0.00000000       0.00000000 </v>
   <v>       0.16666667      -0.00000000       0.00000000 </v>
   <v>       0.16666667      -0.33333333       0.00000000 </v>
   <v>       0.33333333      -0.00000000       0.00000000 </v>
   <v>       0.33333333       0.33333333       0.00000000 </v>
   <v>       0.50000000      -0.00000000       0.00000000 </v>
   <v>       0.00000000       0.33333333       0.00000000 </v>
   <v>       0.16666667       0.33333333       0.00000000 </v>
   <v>       0.50000000       0.33333333       0.00000000 </v>
   <v>      -0.33333333       0.33333333       0.00000000 </v>
   <v>       0.00000000       0.00000000       0.50000000 </v>
   <v>       0.16666667      -0.00000000       0.50000000 </v>
   <v>       0.16666667      -0.33333333       0.50000000 </v>
   <v>       0.33333333      -0.00000000       0.50000000 </v>
   <v>       0.33333333       0.33333333       0.50000000 </v>
   <v>       0.50000000      -0.00000000       0.50000000 </v>
   <v>       0.00000000       0.33333333       0.50000000 </v>
   <v>       0.16666667       0.33333333       0.50000000 </v>
   <v>       0.50000000       0.33333333       0.50000000 </v>
   <v>      -0.33333333       0.33333333       0.50000000 </v>
  </varray>
  <varray name="weights" >
   <v>       0.02777778 </v>
   <v>       0.05555556 </v>
   <v>       0.05555556 </v>
   <v>       0.05555556 </v>
   <v>       0.05555556 </v>
   <v>       0.02777778 </v>
   <v>       0.05555556 </v>
   <v>       0.05555556 </v>
   <v>       0.05555556 </v>
   <v>       0.05555556 </v>
   <v>       0.02777778 </v>
   <v>       0.05555556 </v>
   <v>       0.05555556 </v>
   <v>       0.05555556 </v>
   <v>       0.05555556 </v>
   <v>       0.02777778 </v>
   <v>       0.05555556 </v>
   <v>       0.05555556 </v>
   <v>       0.05555556 </v>
   <v>       0.05555556 </v>
  </varray>
 </kpoints>
 <parameters>
  <separator name="general" >
   <i type="string" name="SYSTEM">Si and Ge interface calculation</i>
   <i type="logical" name="LCOMPAT"> F  </i>
  </separator>
  <separator name="electronic" >
   <i type="string" name="PREC">normal</i>
   <i name="ENMAX">    700.00000000</i>
   <i name="ENAUG">    900.00000000</i>
   <i name="EDIFF">      0.00000010</i>
   <i type="int" name="IALGO">    38</i>
   <i type="int" name="IWAVPR">    10</i>
   <i type="int" name="NBANDS">   116</i>
   <i type="int" name="NBANDSLOW">    -1</i>
   <i type="int" name="NBANDSHIGH">    -1</i>
   <i name="NELECT">    192.00000000</i>
   <i type="int" name="TURBO">     0</i>
   <i type="int" name="IRESTART">     0</i>
   <i type="int" name="NREBOOT">     0</i>
   <i type="int" name="NMIN">     0</i>
   <i name="EREF">      0.00000000</i>
   <separator name="electronic smearing" >
    <i type="int" name="ISMEAR">     0</i>
    <i name="SIGMA">      0.01000000</i>
    <i name="KSPACING">      0.50000000</i>
    <i type="logical" name="KGAMMA"> T  </i>
    <i type="logical" name="KBLOWUP"> T  </i>
   </separator>
   <separator name="electronic projectors" >
    <i type="logical" name="LREAL"> T  </i>
    <v name="ROPT">     -0.00050000</v>
    <i type="int" name="LMAXPAW">  -100</i>
    <i type="int" name="LMAXMIX">     6</i>
    <i type="logical" name="NLSPLINE"> F  </i>
   </separator>
   <separator name="electronic startup" >
    <i type="int" name="ISTART">     0</i>
    <i type="int" name="ICHARG">     2</i>
    <i type="int" name="INIWAV">     1</i>
   </separator>
   <separator name="electronic spin" >
    <i type="int" name="ISPIN">     2</i>
    <i type="logical" name="LNONCOLLINEAR"> F  </i>
    <v name="MAGMOM">      0.02083333      0.02083333      0.02083333      0.02083333      0.02083333      0.02083333      0.02083333      0.02083333      0.02083333      0.02083333      0.02083333      0.02083333      0.02083333      0.02083333      0.02083333      0.02083333      0.02083333      0.02083333      0.02083333      0.02083333
      0.02083333      0.02083333      0.02083333      0.02083333      0.02083333      0.02083333      0.02083333      0.02083333      0.02083333      0.02083333      0.02083333      0.02083333      0.02083333      0.02083333      0.02083333      0.02083333      0.02083333      0.02083333      0.02083333      0.02083333
      0.02083333      0.02083333      0.02083333      0.02083333      0.02083333      0.02083333      0.02083333      0.02083333</v>
    <i name="NUPDOWN">      1.00000000</i>
    <i type="logical" name="LSORBIT"> F  </i>
    <v name="SAXIS">      0.00000000      0.00000000      1.00000000</v>
    <i type="logical" name="LSPIRAL"> F  </i>
    <v name="QSPIRAL">      0.00000000      0.00000000      0.00000000</v>
    <i type="logical" name="LZEROZ"> F  </i>
   </separator>
   <separator name="electronic exchange-correlation" >
    <i type="logical" name="LASPH"> T  </i>
   </separator>
   <separator name="electronic convergence" >
    <i type="int" name="NELM">   100</i>
    <i type="int" name="NELMDL">    -5</i>
    <i type="int" name="NELMIN">     2</i>
    <i name="ENINI">    700.00000000</i>
    <separator name="electronic convergence detail" >
     <i type="logical" name="LDIAG"> T  </i>
     <i type="logical" name="LSUBROT"> F  </i>
     <i name="WEIMIN">      0.00000000</i>
     <i name="EBREAK">      0.00000000</i>
     <i name="DEPER">      0.30000000</i>
     <i type="int" name="NRMM">     4</i>
     <i name="TIME">      0.40000000</i>
    </separator>
   </separator>
   <separator name="electronic mixer" >
    <i name="AMIX">      0.60000000</i>
    <i name="BMIX">      1.00000000</i>
    <i name="AMIN">      0.10000000</i>
    <i name="AMIX_MAG">      2.40000000</i>
    <i name="BMIX_MAG">      1.00000000</i>
    <separator name="electronic mixer details" >
     <i type="int" name="IMIX">     4</i>
     <i type="logical" name="MIXFIRST"> F  </i>
     <i type="int" name="MAXMIX">   -45</i>
     <i name="WC">    100.00000000</i>
     <i type="int" name="INIMIX">     1</i>
     <i type="int" name="MIXPRE">     1</i>
     <i type="int" name="MREMOVE">     5</i>
    </separator>
   </separator>
   <separator name="electronic dipolcorrection" >
    <i type="logical" name="LDIPOL"> F  </i>
    <i type="logical" name="LMONO"> F  </i>
    <i type="int" name="IDIPOL">     0</i>
    <i name="EPSILON">      1.00000000</i>
    <v name="DIPOL">   -100.00000000   -100.00000000   -100.00000000</v>
    <i name="EFIELD">      0.00000000</i>
    <i type="logical" name="LVACPOTAV"> F  </i>
   </separator>
  </separator>
  <separator name="grids" >
   <i type="int" name="NGX">    36</i>
   <i type="int" name="NGY">    80</i>
   <i type="int" name="NGZ">    90</i>
   <i type="int" name="NGXF">    72</i>
   <i type="int" name="NGYF">   160</i>
   <i type="int" name="NGZF">   180</i>
   <i type="logical" name="ADDGRID"> T  </i>
  </separator>
  <separator name="ionic" >
   <i type="int" name="NSW">     0</i>
   <i type="int" name="IBRION">    -1</i>
   <i type="int" name="MDALGO">     0</i>
   <i type="int" name="ISIF">     2</i>
   <i name="PSTRESS">      0.00000000</i>
   <i name="EDIFFG">      0.00000100</i>
   <i type="int" name="NFREE">     0</i>
   <i name="POTIM">      0.50000000</i>
   <i name="SMASS">     -3.00000000</i>
   <i name="SCALEE">      1.00000000</i>
  </separator>
  <separator name="ionic md" >
   <i name="TEBEG">      0.00010000</i>
   <i name="TEEND">      0.00010000</i>
   <i type="int" name="NBLOCK">     1</i>
   <i type="int" name="KBLOCK">     1</i>
   <i type="int" name="NPACO">   256</i>
   <i name="APACO">     10.00000000</i>
  </separator>
  <separator name="symmetry" >
   <i type="int" name="ISYM">     2</i>
   <i name="SYMPREC">      0.00001000</i>
  </separator>
  <separator name="dos" >
   <i type="int" name="LORBIT">     0</i>
   <v name="RWIGS">     -1.00000000</v>
   <i type="int" name="NEDOS">   301</i>
   <i name="EMIN">     10.00000000</i>
   <i name="EMAX">    -10.00000000</i>
   <i name="EFERMI">      0.00000000</i>
  </separator>
  <separator name="writing" >
   <i type="int" name="NWRITE">     2</i>
   <i type="logical" name="LWAVE"> F  </i>
   <i type="logical" name="LDOWNSAMPLE"> F  </i>
   <i type="logical" name="LCHARG"> T  </i>
   <i type="logical" name="LPARD"> F  </i>
   <i type="logical" name="LVTOT"> F  </i>
   <i type="logical" name="LVHAR"> T  </i>
   <i type="logical" name="LELF"> F  </i>
   <i type="logical" name="LOPTICS"> F  </i>
   <v name="STM">      0.00000000      0.00000000      0.00000000      0.00000000      0.00000000      0.00000000      0.00000000</v>
  </separator>
  <separator name="performance" >
   <i type="int" name="NPAR">     4</i>
   <i type="int" name="NSIM">     4</i>
   <i type="int" name="NBLK">    -1</i>
   <i type="logical" name="LPLANE"> T  </i>
   <i type="logical" name="LSCALAPACK"> T  </i>
   <i type="logical" name="LSCAAWARE"> F  </i>
   <i type="logical" name="LSCALU"> F  </i>
   <i type="logical" name="LASYNC"> F  </i>
   <i type="logical" name="LORBITALREAL"> F  </i>
  </separator>
  <separator name="miscellaneous" >
   <i type="int" name="IDIOT">     3</i>
   <i type="int" name="PHON_NSTRUCT">    -1</i>
   <i type="logical" name="LMUSIC"> F  </i>
   <v name="POMASS">     28.08500000</v>
   <v name="DARWINR">      0.00000000</v>
   <v name="DARWINV">      1.00000000</v>
   <i type="logical" name="LCORR"> T  </i>
  </separator>
  <i type="logical" name="GGA_COMPAT"> T  </i>
  <i type="logical" name="LBERRY"> F  </i>
  <i type="int" name="ICORELEVEL">     0</i>
  <i type="logical" name="LDAU"> F  </i>
  <i type="int" name="I_CONSTRAINED_M">     0</i>
  <separator name="electronic exchange-correlation" >
   <i type="string" name="GGA    ">PE</i>
   <i type="string" name="XC_C">1</i>
   <i type="int" name="VOSKOWN">     0</i>
   <i type="logical" name="LHFCALC"> F  </i>
   <i type="string" name="PRECFOCK"></i>
   <i type="logical" name="LSYMGRAD"> F  </i>
   <i type="logical" name="LHFONE"> F  </i>
   <i type="logical" name="LRHFCALC"> F  </i>
   <i type="logical" name="LTHOMAS"> F  </i>
   <i type="logical" name="LMODELHF"> F  </i>
   <i type="logical" name="LFOCKACE"> F  </i>
   <i name="ENCUT4O">     -1.00000000</i>
   <i type="int" name="EXXOEP">     0</i>
   <i type="int" name="FOURORBIT">     0</i>
   <i name="AEXX">      0.00000000</i>
   <i name="HFALPHA">      0.00000000</i>
   <i name="MCALPHA">      0.00000000</i>
   <i name="ALDAX">      1.00000000</i>
   <i name="AGGAX">      1.00000000</i>
   <i name="AMGGAX">      1.00000000</i>
   <i name="ALDAC">      1.00000000</i>
   <i name="AGGAC">      1.00000000</i>
   <i name="AMGGAC">      1.00000000</i>
   <i type="int" name="NKREDX">     1</i>
   <i type="int" name="NKREDY">     1</i>
   <i type="int" name="NKREDZ">     1</i>
   <i type="logical" name="SHIFTRED"> F  </i>
   <i type="logical" name="ODDONLY"> F  </i>
   <i type="logical" name="EVENONLY"> F  </i>
   <i type="int" name="LMAXFOCK">     0</i>
   <i type="int" name="NMAXFOCKAE">     0</i>
   <i type="logical" name="LFOCKAEDFT"> F  </i>
   <i name="HFSCREEN">      0.00000000</i>
   <i name="HFSCREENC">      0.00000000</i>
   <i type="int" name="NBANDSGWLOW">     0</i>
  </separator>
  <separator name="vdW DFT" >
   <i type="logical" name="LUSE_VDW"> F  </i>
   <i type="int" name="IVDW_NL">    -1</i>
   <i type="logical" name="LSPIN_VDW"> F  </i>
   <i name="ZAB_VDW">     -0.84910000</i>
   <i name="GAMMA_VDW">      1.39626340</i>
   <i name="ALPHA_VDW">      0.00000000</i>
   <i name="PARAM1">      0.12340000</i>
   <i name="PARAM2">      1.00000000</i>
   <i name="BPARAM">      6.30000000</i>
   <i name="CPARAM">      0.00930000</i>
  </separator>
  <separator name="model GW" >
   <i type="int" name="MODEL_GW">     0</i>
   <i name="MODEL_EPS0">     10.01196919</i>
   <i name="MODEL_ALPHA">      1.00000000</i>
  </separator>
  <separator name="linear response parameters" >
   <i type="logical" name="LEPSILON"> F  </i>
   <i type="logical" name="LRPA"> F  </i>
   <i type="logical" name="LNABLA"> F  </i>
   <i type="logical" name="LVEL"> F  </i>
   <i name="CSHIFT">      0.10000000</i>
   <i name="OMEGAMAX">     -1.00000000</i>
   <i name="DEG_THRESHOLD">      0.00200000</i>
   <i name="RTIME">     -0.10000000</i>
   <i name="WPLASMAI">      0.00000000</i>
   <v name="DFIELD">      0.00000000      0.00000000      0.00000000</v>
   <v name="WPLASMA">      0.00000000      0.00000000      0.00000000      0.00000000      0.00000000      0.00000000      0.00000000      0.00000000      0.00000000</v>
  </separator>
  <separator name="orbital magnetization" >
   <i type="logical" name="NUCIND"> F  </i>
   <v name="MAGPOS">      0.00000000      0.00000000      0.00000000</v>
   <i type="logical" name="LNICSALL"> T  </i>
   <i type="logical" name="ORBITALMAG"> F  </i>
   <i type="logical" name="LMAGBLOCH"> F  </i>
   <i type="logical" name="LCHIMAG"> F  </i>
   <i type="logical" name="LGAUGE"> T  </i>
   <i type="int" name="MAGATOM">     0</i>
   <v name="MAGDIPOL">      0.00000000      0.00000000      0.00000000</v>
   <v name="AVECCONST">      0.00000000      0.00000000      0.00000000</v>
  </separator>
  <separator name="response functions" >
   <i type="logical" name="LALL_IN_ONE"> F  </i>
   <i type="int" name="IALL_IN_ONE">    -1</i>
   <i type="int" name="NBANDS_WAVE">    -1</i>
   <i type="logical" name="LFINITE_TEMPERATURE"> F  </i>
   <i type="logical" name="LADDER"> F  </i>
   <i type="logical" name="LRPAFORCE"> F  </i>
   <i type="logical" name="LFXC"> F  </i>
   <i type="logical" name="LHARTREE"> T  </i>
   <i type="int" name="IBSE">     0</i>
   <v type="int" name="KPOINT">    -1     0     0     0</v>
   <i type="logical" name="LTCTC"> F  </i>
   <i type="logical" name="LTCTE"> F  </i>
   <i type="logical" name="LTETE"> F  </i>
   <i type="logical" name="LTRIPLET"> F  </i>
   <i type="logical" name="LFXCEPS"> F  </i>
   <i type="logical" name="LFXHEG"> F  </i>
   <i type="int" name="NATURALO">     2</i>
   <i type="logical" name="LHOLEGF"> F  </i>
   <i type="logical" name="L2ORDER"> F  </i>
   <i type="logical" name="LDMP1"> F  </i>
   <i type="logical" name="LMP2LT"> F  </i>
   <i type="logical" name="LSMP2LT"> F  </i>
   <i type="logical" name="LGWLF"> F  </i>
   <i name="ENCUTGW">     -1.60000002</i>
   <i name="ENCUTGWSOFT">     -1.60000002</i>
   <i name="ENCUTLF">     -1.00000000</i>
   <i type="logical" name="ESF_SPLINES"> F  </i>
   <i name="ESF_CONV">      0.01000000</i>
   <i type="int" name="ESF_NINTER">    15</i>
   <i type="int" name="LMAXMP2">    -1</i>
   <i name="SCISSOR">      0.00000000</i>
   <i type="int" name="NOMEGA">     0</i>
   <i type="int" name="NOMEGAR">     0</i>
   <i type="int" name="NBANDSGW">    -1</i>
   <i type="int" name="NBANDSO">    -1</i>
   <i type="int" name="NBANDSV">    -1</i>
   <i type="int" name="NELMGW">     1</i>
   <i type="int" name="NELMHF">     1</i>
   <i type="int" name="DIM">     3</i>
   <i type="int" name="IESPILON">     4</i>
   <i type="int" name="ANTIRES">     0</i>
   <i name="OMEGAMAX">    -30.00000000</i>
   <i name="OMEGAMIN">    -30.00000000</i>
   <i name="OMEGATL">   -200.00000000</i>
   <i type="int" name="OMEGAGRID">     0</i>
   <i name="CSHIFT">     -0.10000000</i>
   <i type="logical" name="LSELFENERGY"> F  </i>
   <i type="logical" name="LSPECTRAL"> F  </i>
   <i type="logical" name="LSPECTRALGW"> F  </i>
   <i type="logical" name="LSINGLES"> F  </i>
   <i type="logical" name="LFERMIGW"> F  </i>
   <i type="logical" name="ODDONLYGW"> F  </i>
   <i type="logical" name="EVENONLYGW"> F  </i>
   <i type="int" name="NKREDLFX">     1</i>
   <i type="int" name="NKREDLFY">     1</i>
   <i type="int" name="NKREDLFZ">     1</i>
   <i type="int" name="MAXMEM">  2800</i>
   <i type="int" name="TELESCOPE">     0</i>
   <i type="int" name="NTAUPAR">    -1</i>
   <i type="int" name="NOMEGAPAR">    -1</i>
   <i name="DAMP_NEWTON">      0.80000001</i>
   <i name="LAMBDA">      1.00000000</i>
  </separator>
  <separator name="External order field" >
   <i name="OFIELD_KAPPA">      0.00000000</i>
   <v name="OFIELD_K">      0.00000000      0.00000000      0.00000000</v>
   <i name="OFIELD_Q6_NEAR">      0.00000000</i>
   <i name="OFIELD_Q6_FAR">      0.00000000</i>
   <i name="OFIELD_A">      0.00000000</i>
  </separator>
  <separator name="optional k-points parameters" >
   <i type="int" name="KPOINTS_OPT_MODE">     1</i>
   <i type="logical" name="LKPOINTS_OPT"> F  </i>
  </separator>
 </parameters>
 <atominfo>
  <atoms>      48 </atoms>
  <types>       1 </types>
  <array name="atoms" >
   <dimension dim="1">ion</dimension>
   <field type="string">element</field>
   <field type="int">atomtype</field>
   <set>
    <rc><c>Si</c><c>   1</c></rc>
    <rc><c>Si</c><c>   1</c></rc>
    <rc><c>Si</c><c>   1</c></rc>
    <rc><c>Si</c><c>   1</c></rc>
    <rc><c>Si</c><c>   1</c></rc>
    <rc><c>Si</c><c>   1</c></rc>
    <rc><c>Si</c><c>   1</c></rc>
    <rc><c>Si</c><c>   1</c></rc>
    <rc><c>Si</c><c>   1</c></rc>
    <rc><c>Si</c><c>   1</c></rc>
    <rc><c>Si</c><c>   1</c></rc>
    <rc><c>Si</c><c>   1</c></rc>
    <rc><c>Si</c><c>   1</c></rc>
    <rc><c>Si</c><c>   1</c></rc>
    <rc><c>Si</c><c>   1</c></rc>
    <rc><c>Si</c><c>   1</c></rc>
    <rc><c>Si</c><c>   1</c></rc>
    <rc><c>Si</c><c>   1</c></rc>
    <rc><c>Si</c><c>   1</c></rc>
    <rc><c>Si</c><c>   1</c></rc>
    <rc><c>Si</c><c>   1</c></rc>
    <rc><c>Si</c><c>   1</c></rc>
    <rc><c>Si</c><c>   1</c></rc>
    <rc><c>Si</c><c>   1</c></rc>
    <rc><c>Si</c><c>   1</c></rc>
    <rc><c>Si</c><c>   1</c></rc>
    <rc><c>Si</c><c>   1</c></rc>
    <rc><c>Si</c><c>   1</c></rc>
    <rc><c>Si</c><c>   1</c></rc>
    <rc><c>Si</c><c>   1</c></rc>
    <rc><c>Si</c><c>   1</c></rc>
    <rc><c>Si</c><c>   1</c></rc>
    <rc><c>Si</c><c>   1</c></rc>
    <rc><c>Si</c><c>   1</c></rc>
    <rc><c>Si</c><c>   1</c></rc>
    <rc><c>Si</c><c>   1</c></rc>
    <rc><c>Si</c><c>   1</c></rc>
    <rc><c>Si</c><c>   1</c></rc>
    <rc><c>Si</c><c>   1</c></rc>
    <rc><c>Si</c><c>   1</c></rc>
    <rc><c>Si</c><c>   1</c></rc>
    <rc><c>Si</c><c>   1</c></rc>
    <rc><c>Si</c><c>   1</c></rc>
    <rc><c>Si</c><c>   1</c></rc>
    <rc><c>Si</c><c>   1</c></rc>
    <rc><c>Si</c><c>   1</c></rc>
    <rc><c>Si</c><c>   1</c></rc>
    <rc><c>Si</c><c>   1</c></rc>
   </set>
  </array>
  <array name="atomtypes" >
   <dimension dim="1">type</dimension>
   <field type="int">atomspertype</field>
   <field type="string">element</field>
   <field>mass</field>
   <field>valence</field>
   <field type="string">pseudopotential</field>
   <set>
    <rc><c>  48</c><c>Si</c><c>     28.08500000</c><c>      4.00000000</c><c>  PAW_PBE Si 05Jan2001                  </c></rc>
   </set>
  </array>
 </atominfo>
 <structure name="initialpos" >
  <crystal>
   <varray name="basis" >
    <v>       5.43100023       0.00000000       0.00000000 </v>
    <v>      -5.43100023      10.86200046       0.00000000 </v>
    <v>       0.00000000       0.00000000      13.57750130 </v>
   </varray>
   <i name="volume">    800.95753512 </i>
   <varray name="rec_basis" >
    <v>       0.18412815       0.09206407       0.00000000 </v>
    <v>       0.00000000       0.09206407       0.00000000 </v>
    <v>       0.00000000       0.00000000       0.07365125 </v>
   </varray>
  </crystal>
  <varray name="positions" >
   <v>       0.01779686       0.00000000       0.00000000 </v>
   <v>       0.51779687       0.00000000       0.20000000 </v>
   <v>       0.01779687       0.00000000       0.40000001 </v>
   <v>       0.14279699       0.87500006       0.10000000 </v>
   <v>       0.26779687       0.75000006       0.50000000 </v>
   <v>       0.64279699       0.37500003       0.50000000 </v>
   <v>       0.89279693       0.12500000       0.10000000 </v>
   <v>       0.64279699       0.37500003       0.00000000 </v>
   <v>       0.89279699       0.12500000       0.50000000 </v>
   <v>       0.26779687       0.75000006       0.00000000 </v>
   <v>       0.89279687       0.62500000       0.30000004 </v>
   <v>       0.76779699       0.25000000       0.40000001 </v>
   <v>       0.76779687       0.25000000       0.00000000 </v>
   <v>       0.26779687       0.25000000       0.20000000 </v>
   <v>       0.39279699       0.62500000       0.50000000 </v>
   <v>       0.39279684       0.62500000       0.10000000 </v>
   <v>       0.76779693       0.75000006       0.20000000 </v>
   <v>       0.26779699       0.75000006       0.40000001 </v>
   <v>       0.64279693       0.37500003       0.10000000 </v>
   <v>       0.14279699       0.37500003       0.30000004 </v>
   <v>       0.51779687       0.50000000       0.40000001 </v>
   <v>       0.51779687       0.50000000       0.00000000 </v>
   <v>       0.64279699       0.87500006       0.30000004 </v>
   <v>       0.14279699       0.87500006       0.50000000 </v>
   <v>       0.51779687       0.50000000       0.50000000 </v>
   <v>       0.01779687       0.50000000       0.69999999 </v>
   <v>       0.51779687       0.50000000       0.89999998 </v>
   <v>       0.01779686       0.00000000       0.50000000 </v>
   <v>       0.51779687       0.00000000       0.69999999 </v>
   <v>       0.01779687       0.00000000       0.89999998 </v>
   <v>       0.14279699       0.87500006       0.60000002 </v>
   <v>       0.64279699       0.87500006       0.80000007 </v>
   <v>       0.14279699       0.87500006       0.00000000 </v>
   <v>       0.64279693       0.37500003       0.60000002 </v>
   <v>       0.14279699       0.37500003       0.80000007 </v>
   <v>       0.39279687       0.12500000       0.30000004 </v>
   <v>       0.01779687       0.50000000       0.20000000 </v>
   <v>       0.76779693       0.75000006       0.69999999 </v>
   <v>       0.26779699       0.75000006       0.89999998 </v>
   <v>       0.76779687       0.25000000       0.50000000 </v>
   <v>       0.26779687       0.25000000       0.69999999 </v>
   <v>       0.76779699       0.25000000       0.89999998 </v>
   <v>       0.39279684       0.62500000       0.60000002 </v>
   <v>       0.89279687       0.62500000       0.80000007 </v>
   <v>       0.39279699       0.62500000       0.00000000 </v>
   <v>       0.89279693       0.12500000       0.60000002 </v>
   <v>       0.39279687       0.12500000       0.80000007 </v>
   <v>       0.89279699       0.12500000       0.00000000 </v>
  </varray>
 </structure>
 <calculation>
  <scstep>
   <time name="dav">    6.72    6.93</time>
   <time name="total">    7.08    7.30</time>
   <energy>
    <i name="alphaZ">     96.83391436 </i>
    <i name="ewald">  -4841.89827068 </i>
    <i name="hartreedc">   -593.11515712 </i>
    <i name="XCdc">   -420.98734267 </i>
    <i name="pawpsdc">   4229.94053997 </i>
    <i name="pawaedc">  -3385.46287860 </i>
    <i name="eentropy">     -0.00072652 </i>
    <i name="bandstr">   1160.45256634 </i>
    <i name="atom">   4947.19793617 </i>
    <i name="e_fr_energy">   1192.96058125 </i>
    <i name="e_wo_entrp">   1192.96130777 </i>
    <i name="e_0_energy">   1192.96094451 </i>
   </energy>
  </scstep>
  <scstep>
   <time name="dav">    7.63    7.72</time>
   <time name="total">    7.63    7.72</time>
   <energy>
    <i name="e_fr_energy">    131.39629948 </i>
    <i name="e_wo_entrp">    131.39665774 </i>
    <i name="e_0_energy">    131.39647861 </i>
   </energy>
  </scstep>
  <scstep>
   <time name="dav">    8.16    8.27</time>
   <time name="total">    8.16    8.27</time>
   <energy>
    <i name="e_fr_energy">     26.60704736 </i>
    <i name="e_wo_entrp">     26.60786327 </i>
    <i name="e_0_energy">     26.60745532 </i>
   </energy>
  </scstep>
  <scstep>
   <time name="dav">    8.07    8.18</time>
   <time name="total">    8.07    8.18</time>
   <energy>
    <i name="e_fr_energy">     21.33004176 </i>
    <i name="e_wo_entrp">     21.33127677 </i>
    <i name="e_0_energy">     21.33065927 </i>
   </energy>
  </scstep>
  <scstep>
   <time name="dav">    8.21    8.31</time>
   <time name="total">    8.73    8.83</time>
   <energy>
    <i name="e_fr_energy">     21.11006309 </i>
    <i name="e_wo_entrp">     21.11132146 </i>
    <i name="e_0_energy">     21.11069227 </i>
   </energy>
  </scstep>
  <scstep>
   <time name="dav">    7.52    7.61</time>
   <time name="total">    8.38    8.47</time>
   <energy>
    <i name="e_fr_energy">     80.01447201 </i>
    <i name="e_wo_entrp">     80.01501622 </i>
    <i name="e_0_energy">     80.01474412 </i>
   </energy>
  </scstep>
  <scstep>
   <time name="dav">    7.34    7.42</time>
   <time name="total">    8.22    8.31</time>
   <energy>
    <i name="e_fr_energy">     78.14056988 </i>
    <i name="e_wo_entrp">     78.14144622 </i>
    <i name="e_0_energy">     78.14100805 </i>
   </energy>
  </scstep>
  <scstep>
   <time name="dav">    7.69    7.78</time>
   <time name="total">    8.55    8.64</time>
   <energy>
    <i name="e_fr_energy">     78.14440524 </i>
    <i name="e_wo_entrp">     78.14506877 </i>
    <i name="e_0_energy">     78.14473700 </i>
   </energy>
  </scstep>
  <scstep>
   <time name="dav">    7.45    7.54</time>
   <time name="total">    8.31    8.41</time>
   <energy>
    <i name="e_fr_energy">     78.27741233 </i>
    <i name="e_wo_entrp">     78.27858461 </i>
    <i name="e_0_energy">     78.27799847 </i>
   </energy>
  </scstep>
  <scstep>
   <time name="dav">    7.47    7.57</time>
   <time name="total">    8.33    8.43</time>
   <energy>
    <i name="e_fr_energy">     78.27165109 </i>
    <i name="e_wo_entrp">     78.27279621 </i>
    <i name="e_0_energy">     78.27222365 </i>
   </energy>
  </scstep>
  <scstep>
   <time name="dav">    7.65    7.74</time>
   <time name="total">    8.51    8.60</time>
   <energy>
    <i name="e_fr_energy">     78.26624426 </i>
    <i name="e_wo_entrp">     78.26749226 </i>
    <i name="e_0_energy">     78.26686826 </i>
   </energy>
  </scstep>
  <scstep>
   <time name="dav">    7.67    7.76</time>
   <time name="total">    8.52    8.62</time>
   <energy>
    <i name="e_fr_energy">     78.26676568 </i>
    <i name="e_wo_entrp">     78.26788642 </i>
    <i name="e_0_energy">     78.26732605 </i>
   </energy>
  </scstep>
  <scstep>
   <time name="dav">    7.42    7.51</time>
   <time name="total">    8.28    8.37</time>
   <energy>
    <i name="e_fr_energy">     78.26631634 </i>
    <i name="e_wo_entrp">     78.26746212 </i>
    <i name="e_0_energy">     78.26688923 </i>
   </energy>
  </scstep>
  <scstep>
   <time name="dav">    7.70    7.80</time>
   <time name="total">    8.57    8.67</time>
   <energy>
    <i name="e_fr_energy">     78.26623871 </i>
    <i name="e_wo_entrp">     78.26739142 </i>
    <i name="e_0_energy">     78.26681507 </i>
   </energy>
  </scstep>
  <scstep>
   <time name="dav">    7.50    7.58</time>
   <time name="total">    8.37    8.46</time>
   <energy>
    <i name="e_fr_energy">     78.26622845 </i>
    <i name="e_wo_entrp">     78.26737438 </i>
    <i name="e_0_energy">     78.26680142 </i>
   </energy>
  </scstep>
  <scstep>
   <time name="dav">    7.41    7.50</time>
   <time name="total">    8.27    8.36</time>
   <energy>
    <i name="e_fr_energy">     78.26623070 </i>
    <i name="e_wo_entrp">     78.26737405 </i>
    <i name="e_0_energy">     78.26680238 </i>
   </energy>
  </scstep>
  <scstep>
   <time name="dav">    7.37    7.46</time>
   <time name="total">    8.23    8.32</time>
   <energy>
    <i name="e_fr_energy">     78.26623042 </i>
    <i name="e_wo_entrp">     78.26737551 </i>
    <i name="e_0_energy">     78.26680297 </i>
   </energy>
  </scstep>
  <scstep>
   <time name="dav">    7.24    7.32</time>
   <time name="total">    7.59    7.67</time>
   <energy>
    <i name="alphaZ">     96.83391436 </i>
    <i name="ewald">  -4841.89827068 </i>
    <i name="hartreedc">   -845.05250172 </i>
    <i name="XCdc">   -394.39644527 </i>
    <i name="pawpsdc">  41582.52679276 </i>
    <i name="pawaedc"> -40760.89369390 </i>
    <i name="eentropy">     -0.00114500 </i>
    <i name="bandstr">    293.94964363 </i>
    <i name="atom">   4947.19793617 </i>
    <i name="e_fr_energy">     78.26623036 </i>
    <i name="e_wo_entrp">     78.26737536 </i>
    <i name="e_0_energy">     78.26680286 </i>
   </energy>
  </scstep>
  <structure>
   <crystal>
    <varray name="basis" >
     <v>       5.43100023       0.00000000       0.00000000 </v>
     <v>      -5.43100023      10.86200046       0.00000000 </v>
     <v>       0.00000000       0.00000000      13.57750130 </v>
    </varray>
    <i name="volume">    800.95753512 </i>
    <varray name="rec_basis" >
     <v>       0.18412815       0.09206407       0.00000000 </v>
     <v>       0.00000000       0.09206407       0.00000000 </v>
     <v>       0.00000000       0.00000000       0.07365125 </v>
    </varray>
   </crystal>
   <varray name="positions" >
    <v>       0.01779686       0.00000000       0.00000000 </v>
    <v>       0.51779687       0.00000000       0.20000000 </v>
    <v>       0.01779687       0.00000000       0.40000001 </v>
    <v>       0.14279699       0.87500006       0.10000000 </v>
    <v>       0.26779687       0.75000006       0.50000000 </v>
    <v>       0.64279699       0.37500003       0.50000000 </v>
    <v>       0.89279693       0.12500000       0.10000000 </v>
    <v>       0.64279699       0.37500003       0.00000000 </v>
    <v>       0.89279699       0.12500000       0.50000000 </v>
    <v>       0.26779687       0.75000006       0.00000000 </v>
    <v>       0.89279687       0.62500000       0.30000004 </v>
    <v>       0.76779699       0.25000000       0.40000001 </v>
    <v>       0.76779687       0.25000000       0.00000000 </v>
    <v>       0.26779687       0.25000000       0.20000000 </v>
    <v>       0.39279699       0.62500000       0.50000000 </v>
    <v>       0.39279684       0.62500000       0.10000000 </v>
    <v>       0.76779693       0.75000006       0.20000000 </v>
    <v>       0.26779699       0.75000006       0.40000001 </v>
    <v>       0.64279693       0.37500003       0.10000000 </v>
    <v>       0.14279699       0.37500003       0.30000004 </v>
    <v>       0.51779687       0.50000000       0.40000001 </v>
    <v>       0.51779687       0.50000000       0.00000000 </v>
    <v>       0.64279699       0.87500006       0.30000004 </v>
    <v>       0.14279699       0.87500006       0.50000000 </v>
    <v>       0.51779687       0.50000000       0.50000000 </v>
    <v>       0.01779687       0.50000000       0.69999999 </v>
    <v>       0.51779687       0.50000000       0.89999998 </v>
    <v>       0.01779686       0.00000000       0.50000000 </v>
    <v>       0.51779687       0.00000000       0.69999999 </v>
    <v>       0.01779687       0.00000000       0.89999998 </v>
    <v>       0.14279699       0.87500006       0.60000002 </v>
    <v>       0.64279699       0.87500006       0.80000007 </v>
    <v>       0.14279699       0.87500006       0.00000000 </v>
    <v>       0.64279693       0.37500003       0.60000002 </v>
    <v>       0.14279699       0.37500003       0.80000007 </v>
    <v>       0.39279687       0.12500000       0.30000004 </v>
    <v>       0.01779687       0.50000000       0.20000000 </v>
    <v>       0.76779693       0.75000006       0.69999999 </v>
    <v>       0.26779699       0.75000006       0.89999998 </v>
    <v>       0.76779687       0.25000000       0.50000000 </v>
    <v>       0.26779687       0.25000000       0.69999999 </v>
    <v>       0.76779699       0.25000000       0.89999998 </v>
    <v>       0.39279684       0.62500000       0.60000002 </v>
    <v>       0.89279687       0.62500000       0.80000007 </v>
    <v>       0.39279699       0.62500000       0.00000000 </v>
    <v>       0.89279693       0.12500000       0.60000002 </v>
    <v>       0.39279687       0.12500000       0.80000007 </v>
    <v>       0.89279699       0.12500000       0.00000000 </v>
   </varray>
  </structure>
  <varray name="forces" >
   <v>      -0.00000000       0.00000000      68.92887581 </v>
   <v>      -0.00000000       0.00000000       1.10404729 </v>
   <v>       0.00000000       0.00000000     -68.00466318 </v>
   <v>       0.00000000      -0.00000000      68.00466318 </v>
   <v>       0.00000000       0.00000000      68.92887581 </v>
   <v>       0.00000000       0.00000000     -68.92887581 </v>
   <v>      -0.00000000      -0.00000000      68.00466318 </v>
   <v>      -0.00000000      -0.00000000     -68.92887581 </v>
   <v>       0.00000000       0.00000000     -68.92887581 </v>
   <v>      -0.00000000       0.00000000      68.92887581 </v>
   <v>       0.00000000      -0.00000000      -1.10404729 </v>
   <v>      -0.00000000      -0.00000000     -68.00466318 </v>
   <v>       0.00000000       0.00000000      68.92887581 </v>
   <v>       0.00000000      -0.00000000       1.10404729 </v>
   <v>       0.00000000       0.00000000     -68.92887581 </v>
   <v>      -0.00000000       0.00000000      68.00466318 </v>
   <v>      -0.00000000      -0.00000000       1.10404729 </v>
   <v>      -0.00000000       0.00000000     -68.00466318 </v>
   <v>      -0.00000000      -0.00000000      68.00466318 </v>
   <v>      -0.00000000      -0.00000000      -1.10404729 </v>
   <v>       0.00000000       0.00000000     -68.00466318 </v>
   <v>       0.00000000       0.00000000      68.92887581 </v>
   <v>       0.00000000       0.00000000      -1.10404729 </v>
   <v>       0.00000000       0.00000000     -68.92887581 </v>
   <v>       0.00000000      -0.00000000      68.92887581 </v>
   <v>      -0.00000000      -0.00000000       1.10404729 </v>
   <v>       0.00000000       0.00000000     -68.00466318 </v>
   <v>       0.00000000      -0.00000000      68.92887581 </v>
   <v>      -0.00000000      -0.00000000       1.10404729 </v>
   <v>      -0.00000000       0.00000000     -68.00466318 </v>
   <v>      -0.00000000      -0.00000000      68.00466318 </v>
   <v>      -0.00000000       0.00000000      -1.10404729 </v>
   <v>      -0.00000000      -0.00000000     -68.92887581 </v>
   <v>      -0.00000000       0.00000000      68.00466318 </v>
   <v>      -0.00000000       0.00000000      -1.10404729 </v>
   <v>       0.00000000       0.00000000      -1.10404729 </v>
   <v>       0.00000000      -0.00000000       1.10404729 </v>
   <v>       0.00000000      -0.00000000       1.10404729 </v>
   <v>      -0.00000000       0.00000000     -68.00466318 </v>
   <v>       0.00000000      -0.00000000      68.92887581 </v>
   <v>       0.00000000      -0.00000000       1.10404729 </v>
   <v>       0.00000000      -0.00000000     -68.00466318 </v>
   <v>      -0.00000000       0.00000000      68.00466318 </v>
   <v>      -0.00000000       0.00000000      -1.10404729 </v>
   <v>       0.00000000       0.00000000     -68.92887581 </v>
   <v>      -0.00000000       0.00000000      68.00466318 </v>
   <v>      -0.00000000       0.00000000      -1.10404729 </v>
   <v>       0.00000000      -0.00000000     -68.92887581 </v>
  </varray>
  <varray name="stress" >
   <v>     258.58003201    -232.20861774       0.00000000 </v>
   <v>    -232.20861768     257.86821209       0.00000000 </v>
   <v>       0.00000000       0.00000000    3071.54781073 </v>
  </varray>
  <energy>
   <i name="e_fr_energy">     78.26623036 </i>
   <i name="e_wo_entrp">     78.26737536 </i>
   <i name="e_0_energy">     78.26680286 </i>
  </energy>
  <time name="totalsc">  159.23  161.19</time>
  <eigenvalues>
   <array>
    <dimension dim="1">band</dimension>
    <dimension dim="2">kpoint</dimension>
    <dimension dim="3">spin</dimension>
    <field>eigene</field>
    <field>occ</field>
    <set>
     <set comment="spin 1">
      <set comment="kpoint 1">
       <r>   -7.7347    1.0000 </r>
       <r>   -7.6793    1.0000 </r>
       <r>   -6.9821    1.0000 </r>
       <r>   -6.9821    1.0000 </r>
       <r>   -6.9457    1.0000 </r>
       <r>   -6.9457    1.0000 </r>
       <r>   -5.1982    1.0000 </r>
       <r>   -5.1982    1.0000 </r>
       <r>   -5.1888    1.0000 </r>
       <r>   -5.1888    1.0000 </r>
       <r>   -4.3620    1.0000 </r>
       <r>   -3.7820    1.0000 </r>
       <r>   -3.7820    1.0000 </r>
       <r>   -3.4514    1.0000 </r>
       <r>   -3.4514    1.0000 </r>
       <r>   -3.2885    1.0000 </r>
       <r>   -3.0258    1.0000 </r>
       <r>   -2.2476    1.0000 </r>
       <r>   -2.2476    1.0000 </r>
       <r>   -2.1780    1.0000 </r>
       <r>   -2.1780    1.0000 </r>
       <r>   -1.2851    1.0000 </r>
       <r>   -1.2851    1.0000 </r>
       <r>   -0.6837    1.0000 </r>
       <r>   -0.6744    1.0000 </r>
       <r>   -0.6502    1.0000 </r>
       <r>   -0.5823    1.0000 </r>
       <r>   -0.5822    1.0000 </r>
       <r>   -0.5090    1.0000 </r>
       <r>   -0.5090    1.0000 </r>
       <r>   -0.0683    1.0000 </r>
       <r>   -0.0683    1.0000 </r>
       <r>   -0.0475    1.0000 </r>
       <r>   -0.0475    1.0000 </r>
       <r>    0.1029    1.0000 </r>
       <r>    0.1030    1.0000 </r>
       <r>    0.2100    1.0000 </r>
       <r>    0.2933    1.0000 </r>
       <r>    0.2933    1.0000 </r>
       <r>    1.4023    1.0000 </r>
       <r>    1.4023    1.0000 </r>
       <r>    1.6421    1.0000 </r>
       <r>    1.6421    1.0000 </r>
       <r>    1.7028    1.0000 </r>
       <r>    1.7028    1.0000 </r>
       <r>    2.1605    1.0000 </r>
       <r>    2.1741    1.0000 </r>
       <r>    2.1741    1.0000 </r>
       <r>    2.2524    1.0000 </r>
       <r>    2.4011    1.0000 </r>
       <r>    2.4011    1.0000 </r>
       <r>    2.6841    1.0000 </r>
       <r>    2.6841    1.0000 </r>
       <r>    2.9522    1.0000 </r>
       <r>    3.3085    1.0000 </r>
       <r>    3.3085    1.0000 </r>
       <r>    3.4724    1.0000 </r>
       <r>    3.4724    1.0000 </r>
       <r>    3.7274    1.0000 </r>
       <r>    3.7274    1.0000 </r>
       <r>    3.8186    1.0000 </r>
       <r>    3.8186    1.0000 </r>
       <r>    3.9945    1.0000 </r>
       <r>    3.9945    1.0000 </r>
       <r>    4.1585    1.0000 </r>
       <r>    4.1585    1.0000 </r>
       <r>    4.1688    1.0000 </r>
       <r>    4.1688    1.0000 </r>
       <r>    4.3230    1.0000 </r>
       <r>    4.4422    1.0000 </r>
       <r>    4.5176    1.0000 </r>
       <r>    4.7893    1.0000 </r>
       <r>    4.7893    1.0000 </r>
       <r>    5.0050    1.0000 </r>
       <r>    5.0397    1.0000 </r>
       <r>    5.0526    1.0000 </r>
       <r>    5.0526    1.0000 </r>
       <r>    5.1241    1.0000 </r>
       <r>    5.1284    1.0000 </r>
       <r>    5.1284    1.0000 </r>
       <r>    5.1694    1.0000 </r>
       <r>    5.6833    1.0000 </r>
       <r>    6.3375    1.0000 </r>
       <r>    6.3572    1.0000 </r>
       <r>    6.3572    1.0000 </r>
       <r>    6.5125    1.0000 </r>
       <r>    6.5125    1.0000 </r>
       <r>    6.6362    1.0000 </r>
       <r>    6.8057    1.0000 </r>
       <r>    6.8076    1.0000 </r>
       <r>    6.8076    1.0000 </r>
       <r>    7.1279    1.0000 </r>
       <r>    7.1279    1.0000 </r>
       <r>    7.4459    1.0000 </r>
       <r>    7.4459    1.0000 </r>
       <r>    7.4817    1.0000 </r>
       <r>    7.6735    1.0000 </r>
       <r>    7.6735    1.0000 </r>
       <r>    7.7527    0.9487 </r>
       <r>    7.7527    0.9487 </r>
       <r>    7.8698    0.0000 </r>
       <r>    8.0454    0.0000 </r>
       <r>    8.0454    0.0000 </r>
       <r>    8.4197    0.0000 </r>
       <r>    8.4810    0.0000 </r>
       <r>    8.5765    0.0000 </r>
       <r>    8.7851    0.0000 </r>
       <r>    8.8126    0.0000 </r>
       <r>    8.8126    0.0000 </r>
       <r>    8.9641    0.0000 </r>
       <r>    9.2169    0.0000 </r>
       <r>    9.2169    0.0000 </r>
       <r>    9.3480    0.0000 </r>
       <r>    9.7962    0.0000 </r>
       <r>    9.8055    0.0000 </r>
       <r>    9.8782    0.0000 </r>
      </set>
      <set comment="kpoint 2">
       <r>   -7.6599    1.0000 </r>
       <r>   -7.6092    1.0000 </r>
       <r>   -6.9764    1.0000 </r>
       <r>   -6.9546    1.0000 </r>
       <r>   -6.9433    1.0000 </r>
       <r>   -6.8959    1.0000 </r>
       <r>   -5.5910    1.0000 </r>
       <r>   -5.5748    1.0000 </r>
       <r>   -4.9414    1.0000 </r>
       <r>   -4.9324    1.0000 </r>
       <r>   -4.2225    1.0000 </r>
       <r>   -4.1841    1.0000 </r>
       <r>   -3.9340    1.0000 </r>
       <r>   -3.2332    1.0000 </r>
       <r>   -3.1865    1.0000 </r>
       <r>   -2.9411    1.0000 </r>
       <r>   -2.9352    1.0000 </r>
       <r>   -2.4616    1.0000 </r>
       <r>   -2.2627    1.0000 </r>
       <r>   -2.2236    1.0000 </r>
       <r>   -1.9222    1.0000 </r>
       <r>   -1.4757    1.0000 </r>
       <r>   -1.1816    1.0000 </r>
       <r>   -1.0217    1.0000 </r>
       <r>   -0.9826    1.0000 </r>
       <r>   -0.8889    1.0000 </r>
       <r>   -0.7524    1.0000 </r>
       <r>   -0.7119    1.0000 </r>
       <r>   -0.6720    1.0000 </r>
       <r>   -0.6381    1.0000 </r>
       <r>   -0.5131    1.0000 </r>
       <r>   -0.3260    1.0000 </r>
       <r>   -0.2786    1.0000 </r>
       <r>    0.1955    1.0000 </r>
       <r>    0.3899    1.0000 </r>
       <r>    0.4018    1.0000 </r>
       <r>    0.4279    1.0000 </r>
       <r>    0.6882    1.0000 </r>
       <r>    0.8495    1.0000 </r>
       <r>    0.8603    1.0000 </r>
       <r>    1.1390    1.0000 </r>
       <r>    1.6833    1.0000 </r>
       <r>    1.7332    1.0000 </r>
       <r>    1.8127    1.0000 </r>
       <r>    1.8198    1.0000 </r>
       <r>    1.9752    1.0000 </r>
       <r>    2.0590    1.0000 </r>
       <r>    2.2496    1.0000 </r>
       <r>    2.2856    1.0000 </r>
       <r>    2.3241    1.0000 </r>
       <r>    2.3465    1.0000 </r>
       <r>    2.4719    1.0000 </r>
       <r>    2.7322    1.0000 </r>
       <r>    2.7518    1.0000 </r>
       <r>    3.0808    1.0000 </r>
       <r>    3.3480    1.0000 </r>
       <r>    3.7566    1.0000 </r>
       <r>    3.8076    1.0000 </r>
       <r>    3.8325    1.0000 </r>
       <r>    3.8804    1.0000 </r>
       <r>    3.9743    1.0000 </r>
       <r>    3.9818    1.0000 </r>
       <r>    3.9985    1.0000 </r>
       <r>    4.1332    1.0000 </r>
       <r>    4.1493    1.0000 </r>
       <r>    4.1840    1.0000 </r>
       <r>    4.2059    1.0000 </r>
       <r>    4.2101    1.0000 </r>
       <r>    4.2478    1.0000 </r>
       <r>    4.2568    1.0000 </r>
       <r>    4.5216    1.0000 </r>
       <r>    4.7384    1.0000 </r>
       <r>    5.0272    1.0000 </r>
       <r>    5.0710    1.0000 </r>
       <r>    5.1029    1.0000 </r>
       <r>    5.1336    1.0000 </r>
       <r>    5.1835    1.0000 </r>
       <r>    5.1840    1.0000 </r>
       <r>    5.2313    1.0000 </r>
       <r>    5.2887    1.0000 </r>
       <r>    5.4519    1.0000 </r>
       <r>    5.6939    1.0000 </r>
       <r>    5.7847    1.0000 </r>
       <r>    6.1447    1.0000 </r>
       <r>    6.1548    1.0000 </r>
       <r>    6.3021    1.0000 </r>
       <r>    6.4690    1.0000 </r>
       <r>    6.6356    1.0000 </r>
       <r>    6.7479    1.0000 </r>
       <r>    6.7843    1.0000 </r>
       <r>    6.9180    1.0000 </r>
       <r>    7.1905    1.0000 </r>
       <r>    7.2507    1.0000 </r>
       <r>    7.2924    1.0000 </r>
       <r>    7.3374    1.0000 </r>
       <r>    7.3674    1.0000 </r>
       <r>    7.8091    0.0000 </r>
       <r>    7.8939    0.0000 </r>
       <r>    7.9425    0.0000 </r>
       <r>    8.1798    0.0000 </r>
       <r>    8.4414    0.0000 </r>
       <r>    8.5022    0.0000 </r>
       <r>    8.5067    0.0000 </r>
       <r>    8.6198    0.0000 </r>
       <r>    8.7753    0.0000 </r>
       <r>    9.0887    0.0000 </r>
       <r>    9.1069    0.0000 </r>
       <r>    9.1539    0.0000 </r>
       <r>    9.1778    0.0000 </r>
       <r>    9.2568    0.0000 </r>
       <r>    9.3491    0.0000 </r>
       <r>    9.4906    0.0000 </r>
       <r>    9.5581    0.0000 </r>
       <r>    9.5984    0.0000 </r>
       <r>    9.6059    0.0000 </r>
       <r>    9.9315    0.0000 </r>
      </set>
      <set comment="kpoint 3">
       <r>   -7.5917    1.0000 </r>
       <r>   -7.5374    1.0000 </r>
       <r>   -7.3257    1.0000 </r>
       <r>   -7.2932    1.0000 </r>
       <r>   -6.3833    1.0000 </r>
       <r>   -6.3463    1.0000 </r>
       <r>   -6.0892    1.0000 </r>
       <r>   -6.0756    1.0000 </r>
       <r>   -4.5208    1.0000 </r>
       <r>   -4.4840    1.0000 </r>
       <r>   -4.2711    1.0000 </r>
       <r>   -4.1648    1.0000 </r>
       <r>   -4.1619    1.0000 </r>
       <r>   -3.6043    1.0000 </r>
       <r>   -3.3273    1.0000 </r>
       <r>   -2.8864    1.0000 </r>
       <r>   -2.8454    1.0000 </r>
       <r>   -2.5639    1.0000 </r>
       <r>   -2.2153    1.0000 </r>
       <r>   -1.7362    1.0000 </r>
       <r>   -1.4774    1.0000 </r>
       <r>   -1.4607    1.0000 </r>
       <r>   -1.3864    1.0000 </r>
       <r>   -1.2885    1.0000 </r>
       <r>   -1.2021    1.0000 </r>
       <r>   -1.0809    1.0000 </r>
       <r>   -0.9138    1.0000 </r>
       <r>   -0.6809    1.0000 </r>
       <r>   -0.5712    1.0000 </r>
       <r>   -0.5546    1.0000 </r>
       <r>   -0.4629    1.0000 </r>
       <r>   -0.1995    1.0000 </r>
       <r>   -0.1775    1.0000 </r>
       <r>   -0.1300    1.0000 </r>
       <r>    0.1500    1.0000 </r>
       <r>    0.2735    1.0000 </r>
       <r>    0.7251    1.0000 </r>
       <r>    0.8736    1.0000 </r>
       <r>    0.9741    1.0000 </r>
       <r>    1.0404    1.0000 </r>
       <r>    1.0469    1.0000 </r>
       <r>    1.3786    1.0000 </r>
       <r>    1.7247    1.0000 </r>
       <r>    1.7687    1.0000 </r>
       <r>    1.8929    1.0000 </r>
       <r>    1.9632    1.0000 </r>
       <r>    2.2178    1.0000 </r>
       <r>    2.2424    1.0000 </r>
       <r>    2.2437    1.0000 </r>
       <r>    2.3213    1.0000 </r>
       <r>    2.4003    1.0000 </r>
       <r>    2.8063    1.0000 </r>
       <r>    2.8094    1.0000 </r>
       <r>    3.0025    1.0000 </r>
       <r>    3.0240    1.0000 </r>
       <r>    3.1744    1.0000 </r>
       <r>    3.3571    1.0000 </r>
       <r>    3.3940    1.0000 </r>
       <r>    3.4840    1.0000 </r>
       <r>    3.6541    1.0000 </r>
       <r>    3.7254    1.0000 </r>
       <r>    3.8695    1.0000 </r>
       <r>    3.9219    1.0000 </r>
       <r>    4.2175    1.0000 </r>
       <r>    4.2359    1.0000 </r>
       <r>    4.3963    1.0000 </r>
       <r>    4.4290    1.0000 </r>
       <r>    4.5748    1.0000 </r>
       <r>    4.5749    1.0000 </r>
       <r>    4.6201    1.0000 </r>
       <r>    4.6427    1.0000 </r>
       <r>    4.8146    1.0000 </r>
       <r>    4.9418    1.0000 </r>
       <r>    5.0851    1.0000 </r>
       <r>    5.1100    1.0000 </r>
       <r>    5.1332    1.0000 </r>
       <r>    5.1446    1.0000 </r>
       <r>    5.1806    1.0000 </r>
       <r>    5.2522    1.0000 </r>
       <r>    5.6977    1.0000 </r>
       <r>    5.7525    1.0000 </r>
       <r>    5.8563    1.0000 </r>
       <r>    5.9225    1.0000 </r>
       <r>    5.9983    1.0000 </r>
       <r>    6.1598    1.0000 </r>
       <r>    6.1603    1.0000 </r>
       <r>    6.3180    1.0000 </r>
       <r>    6.3850    1.0000 </r>
       <r>    6.4374    1.0000 </r>
       <r>    6.4910    1.0000 </r>
       <r>    6.5778    1.0000 </r>
       <r>    6.6001    1.0000 </r>
       <r>    6.7218    1.0000 </r>
       <r>    6.9294    1.0000 </r>
       <r>    7.0352    1.0000 </r>
       <r>    7.7639    0.5142 </r>
       <r>    8.0057    0.0000 </r>
       <r>    8.1012    0.0000 </r>
       <r>    8.2547    0.0000 </r>
       <r>    8.3405    0.0000 </r>
       <r>    8.4746    0.0000 </r>
       <r>    8.5102    0.0000 </r>
       <r>    8.7276    0.0000 </r>
       <r>    8.8177    0.0000 </r>
       <r>    8.8386    0.0000 </r>
       <r>    8.9476    0.0000 </r>
       <r>    9.0395    0.0000 </r>
       <r>    9.0973    0.0000 </r>
       <r>    9.4082    0.0000 </r>
       <r>    9.4197    0.0000 </r>
       <r>    9.5594    0.0000 </r>
       <r>    9.5633    0.0000 </r>
       <r>    9.7916    0.0000 </r>
       <r>    9.9143    0.0000 </r>
       <r>   10.1734    0.0000 </r>
       <r>   10.2096    0.0000 </r>
      </set>
      <set comment="kpoint 4">
       <r>   -7.4610    1.0000 </r>
       <r>   -7.4231    1.0000 </r>
       <r>   -7.0351    1.0000 </r>
       <r>   -7.0205    1.0000 </r>
       <r>   -6.7837    1.0000 </r>
       <r>   -6.7336    1.0000 </r>
       <r>   -6.0551    1.0000 </r>
       <r>   -6.0247    1.0000 </r>
       <r>   -4.7742    1.0000 </r>
       <r>   -4.7717    1.0000 </r>
       <r>   -4.4538    1.0000 </r>
       <r>   -4.3174    1.0000 </r>
       <r>   -3.8148    1.0000 </r>
       <r>   -2.9146    1.0000 </r>
       <r>   -2.7202    1.0000 </r>
       <r>   -2.7042    1.0000 </r>
       <r>   -2.5857    1.0000 </r>
       <r>   -2.5633    1.0000 </r>
       <r>   -2.2964    1.0000 </r>
       <r>   -2.1467    1.0000 </r>
       <r>   -2.0978    1.0000 </r>
       <r>   -1.9071    1.0000 </r>
       <r>   -1.5081    1.0000 </r>
       <r>   -1.4458    1.0000 </r>
       <r>   -1.2031    1.0000 </r>
       <r>   -1.0284    1.0000 </r>
       <r>   -0.9808    1.0000 </r>
       <r>   -0.8518    1.0000 </r>
       <r>   -0.8454    1.0000 </r>
       <r>   -0.7784    1.0000 </r>
       <r>   -0.6648    1.0000 </r>
       <r>   -0.5413    1.0000 </r>
       <r>   -0.5339    1.0000 </r>
       <r>   -0.0188    1.0000 </r>
       <r>    0.7265    1.0000 </r>
       <r>    0.7898    1.0000 </r>
       <r>    0.7947    1.0000 </r>
       <r>    0.8329    1.0000 </r>
       <r>    0.9657    1.0000 </r>
       <r>    1.0069    1.0000 </r>
       <r>    1.0322    1.0000 </r>
       <r>    1.0874    1.0000 </r>
       <r>    1.3441    1.0000 </r>
       <r>    1.6456    1.0000 </r>
       <r>    1.7130    1.0000 </r>
       <r>    1.7413    1.0000 </r>
       <r>    2.0237    1.0000 </r>
       <r>    2.2573    1.0000 </r>
       <r>    2.2941    1.0000 </r>
       <r>    2.6703    1.0000 </r>
       <r>    2.7522    1.0000 </r>
       <r>    2.9418    1.0000 </r>
       <r>    3.0091    1.0000 </r>
       <r>    3.0212    1.0000 </r>
       <r>    3.0587    1.0000 </r>
       <r>    3.0866    1.0000 </r>
       <r>    3.1199    1.0000 </r>
       <r>    3.1611    1.0000 </r>
       <r>    3.5917    1.0000 </r>
       <r>    3.6219    1.0000 </r>
       <r>    3.7265    1.0000 </r>
       <r>    3.9410    1.0000 </r>
       <r>    4.3735    1.0000 </r>
       <r>    4.4122    1.0000 </r>
       <r>    4.4342    1.0000 </r>
       <r>    4.4818    1.0000 </r>
       <r>    4.5711    1.0000 </r>
       <r>    4.6052    1.0000 </r>
       <r>    4.6452    1.0000 </r>
       <r>    4.7043    1.0000 </r>
       <r>    4.9198    1.0000 </r>
       <r>    4.9294    1.0000 </r>
       <r>    4.9564    1.0000 </r>
       <r>    5.0033    1.0000 </r>
       <r>    5.0427    1.0000 </r>
       <r>    5.0614    1.0000 </r>
       <r>    5.1321    1.0000 </r>
       <r>    5.3384    1.0000 </r>
       <r>    5.5254    1.0000 </r>
       <r>    5.6570    1.0000 </r>
       <r>    5.7434    1.0000 </r>
       <r>    5.7775    1.0000 </r>
       <r>    5.9707    1.0000 </r>
       <r>    6.1082    1.0000 </r>
       <r>    6.1547    1.0000 </r>
       <r>    6.3147    1.0000 </r>
       <r>    6.4303    1.0000 </r>
       <r>    6.4947    1.0000 </r>
       <r>    6.7210    1.0000 </r>
       <r>    6.7790    1.0000 </r>
       <r>    6.8638    1.0000 </r>
       <r>    6.8964    1.0000 </r>
       <r>    7.0594    1.0000 </r>
       <r>    7.1297    1.0000 </r>
       <r>    7.4650    1.0000 </r>
       <r>    8.0030    0.0000 </r>
       <r>    8.0419    0.0000 </r>
       <r>    8.1758    0.0000 </r>
       <r>    8.3053    0.0000 </r>
       <r>    8.3450    0.0000 </r>
       <r>    8.5266    0.0000 </r>
       <r>    8.7062    0.0000 </r>
       <r>    8.7641    0.0000 </r>
       <r>    8.8540    0.0000 </r>
       <r>    9.1241    0.0000 </r>
       <r>    9.2259    0.0000 </r>
       <r>    9.2474    0.0000 </r>
       <r>    9.3705    0.0000 </r>
       <r>    9.6893    0.0000 </r>
       <r>    9.7138    0.0000 </r>
       <r>    9.7717    0.0000 </r>
       <r>    9.8052    0.0000 </r>
       <r>    9.8102    0.0000 </r>
       <r>    9.8265    0.0000 </r>
       <r>   10.0061    0.0000 </r>
       <r>   10.1141    0.0000 </r>
      </set>
      <set comment="kpoint 5">
       <r>   -7.4036    1.0000 </r>
       <r>   -7.3762    1.0000 </r>
       <r>   -7.1678    1.0000 </r>
       <r>   -7.1168    1.0000 </r>
       <r>   -6.7722    1.0000 </r>
       <r>   -6.7546    1.0000 </r>
       <r>   -5.5590    1.0000 </r>
       <r>   -5.5590    1.0000 </r>
       <r>   -5.5328    1.0000 </r>
       <r>   -5.5328    1.0000 </r>
       <r>   -4.1553    1.0000 </r>
       <r>   -3.7054    1.0000 </r>
       <r>   -3.4615    1.0000 </r>
       <r>   -3.2561    1.0000 </r>
       <r>   -3.1512    1.0000 </r>
       <r>   -2.6360    1.0000 </r>
       <r>   -2.6331    1.0000 </r>
       <r>   -2.4801    1.0000 </r>
       <r>   -2.3438    1.0000 </r>
       <r>   -2.0318    1.0000 </r>
       <r>   -1.9052    1.0000 </r>
       <r>   -1.6405    1.0000 </r>
       <r>   -1.6404    1.0000 </r>
       <r>   -1.5067    1.0000 </r>
       <r>   -1.3627    1.0000 </r>
       <r>   -1.2650    1.0000 </r>
       <r>   -1.2648    1.0000 </r>
       <r>   -0.9304    1.0000 </r>
       <r>   -0.8468    1.0000 </r>
       <r>   -0.5521    1.0000 </r>
       <r>   -0.5474    1.0000 </r>
       <r>   -0.3511    1.0000 </r>
       <r>   -0.2887    1.0000 </r>
       <r>   -0.1629    1.0000 </r>
       <r>    0.2655    1.0000 </r>
       <r>    0.6183    1.0000 </r>
       <r>    0.7048    1.0000 </r>
       <r>    0.7050    1.0000 </r>
       <r>    0.8715    1.0000 </r>
       <r>    0.9752    1.0000 </r>
       <r>    1.4475    1.0000 </r>
       <r>    1.6133    1.0000 </r>
       <r>    1.7192    1.0000 </r>
       <r>    1.7195    1.0000 </r>
       <r>    1.7626    1.0000 </r>
       <r>    1.9307    1.0000 </r>
       <r>    1.9840    1.0000 </r>
       <r>    2.0329    1.0000 </r>
       <r>    2.3897    1.0000 </r>
       <r>    2.4578    1.0000 </r>
       <r>    2.4617    1.0000 </r>
       <r>    2.7987    1.0000 </r>
       <r>    3.0378    1.0000 </r>
       <r>    3.0380    1.0000 </r>
       <r>    3.1290    1.0000 </r>
       <r>    3.1291    1.0000 </r>
       <r>    3.1901    1.0000 </r>
       <r>    3.2889    1.0000 </r>
       <r>    3.3019    1.0000 </r>
       <r>    3.6708    1.0000 </r>
       <r>    3.8222    1.0000 </r>
       <r>    4.0548    1.0000 </r>
       <r>    4.1380    1.0000 </r>
       <r>    4.1384    1.0000 </r>
       <r>    4.2519    1.0000 </r>
       <r>    4.2581    1.0000 </r>
       <r>    4.4714    1.0000 </r>
       <r>    4.5246    1.0000 </r>
       <r>    4.5761    1.0000 </r>
       <r>    4.6142    1.0000 </r>
       <r>    4.8765    1.0000 </r>
       <r>    5.0126    1.0000 </r>
       <r>    5.0796    1.0000 </r>
       <r>    5.0875    1.0000 </r>
       <r>    5.2073    1.0000 </r>
       <r>    5.3362    1.0000 </r>
       <r>    5.3364    1.0000 </r>
       <r>    5.3932    1.0000 </r>
       <r>    5.5397    1.0000 </r>
       <r>    5.5692    1.0000 </r>
       <r>    5.6512    1.0000 </r>
       <r>    5.8177    1.0000 </r>
       <r>    6.0412    1.0000 </r>
       <r>    6.1801    1.0000 </r>
       <r>    6.4518    1.0000 </r>
       <r>    6.4525    1.0000 </r>
       <r>    6.5013    1.0000 </r>
       <r>    6.6644    1.0000 </r>
       <r>    6.6654    1.0000 </r>
       <r>    6.6658    1.0000 </r>
       <r>    6.7280    1.0000 </r>
       <r>    6.9345    1.0000 </r>
       <r>    7.2058    1.0000 </r>
       <r>    7.4160    1.0000 </r>
       <r>    7.4878    1.0000 </r>
       <r>    7.6974    1.0000 </r>
       <r>    7.7005    1.0000 </r>
       <r>    7.7561    0.8745 </r>
       <r>    7.8383    0.0000 </r>
       <r>    8.4765    0.0000 </r>
       <r>    8.5287    0.0000 </r>
       <r>    8.6196    0.0000 </r>
       <r>    8.9750    0.0000 </r>
       <r>    9.0704    0.0000 </r>
       <r>    9.1359    0.0000 </r>
       <r>    9.5072    0.0000 </r>
       <r>    9.5080    0.0000 </r>
       <r>    9.5868    0.0000 </r>
       <r>    9.5965    0.0000 </r>
       <r>    9.7471    0.0000 </r>
       <r>    9.7480    0.0000 </r>
       <r>    9.7670    0.0000 </r>
       <r>    9.8467    0.0000 </r>
       <r>    9.8528    0.0000 </r>
       <r>    9.8604    0.0000 </r>
       <r>    9.8607    0.0000 </r>
      </set>
      <set comment="kpoint 6">
       <r>   -7.2162    1.0000 </r>
       <r>   -7.2162    1.0000 </r>
       <r>   -7.1939    1.0000 </r>
       <r>   -7.1939    1.0000 </r>
       <r>   -6.4788    1.0000 </r>
       <r>   -6.4788    1.0000 </r>
       <r>   -6.4351    1.0000 </r>
       <r>   -6.4351    1.0000 </r>
       <r>   -4.6352    1.0000 </r>
       <r>   -4.6352    1.0000 </r>
       <r>   -4.5878    1.0000 </r>
       <r>   -4.5878    1.0000 </r>
       <r>   -3.1898    1.0000 </r>
       <r>   -3.1898    1.0000 </r>
       <r>   -2.6150    1.0000 </r>
       <r>   -2.6150    1.0000 </r>
       <r>   -2.4562    1.0000 </r>
       <r>   -2.4562    1.0000 </r>
       <r>   -2.3850    1.0000 </r>
       <r>   -2.3850    1.0000 </r>
       <r>   -1.8627    1.0000 </r>
       <r>   -1.8627    1.0000 </r>
       <r>   -1.6934    1.0000 </r>
       <r>   -1.6933    1.0000 </r>
       <r>   -1.3517    1.0000 </r>
       <r>   -1.3517    1.0000 </r>
       <r>   -0.8492    1.0000 </r>
       <r>   -0.8492    1.0000 </r>
       <r>   -0.8325    1.0000 </r>
       <r>   -0.8325    1.0000 </r>
       <r>   -0.7567    1.0000 </r>
       <r>   -0.7567    1.0000 </r>
       <r>   -0.4097    1.0000 </r>
       <r>   -0.4097    1.0000 </r>
       <r>    0.6668    1.0000 </r>
       <r>    0.6668    1.0000 </r>
       <r>    0.9079    1.0000 </r>
       <r>    0.9079    1.0000 </r>
       <r>    1.0540    1.0000 </r>
       <r>    1.0540    1.0000 </r>
       <r>    1.1955    1.0000 </r>
       <r>    1.1956    1.0000 </r>
       <r>    1.3422    1.0000 </r>
       <r>    1.3422    1.0000 </r>
       <r>    1.7161    1.0000 </r>
       <r>    1.7161    1.0000 </r>
       <r>    2.0185    1.0000 </r>
       <r>    2.0186    1.0000 </r>
       <r>    2.5028    1.0000 </r>
       <r>    2.5028    1.0000 </r>
       <r>    2.7163    1.0000 </r>
       <r>    2.7163    1.0000 </r>
       <r>    2.9235    1.0000 </r>
       <r>    2.9235    1.0000 </r>
       <r>    3.1243    1.0000 </r>
       <r>    3.1243    1.0000 </r>
       <r>    3.5588    1.0000 </r>
       <r>    3.5588    1.0000 </r>
       <r>    3.8323    1.0000 </r>
       <r>    3.8323    1.0000 </r>
       <r>    3.9709    1.0000 </r>
       <r>    3.9709    1.0000 </r>
       <r>    4.2669    1.0000 </r>
       <r>    4.2669    1.0000 </r>
       <r>    4.4120    1.0000 </r>
       <r>    4.4120    1.0000 </r>
       <r>    4.6929    1.0000 </r>
       <r>    4.6929    1.0000 </r>
       <r>    4.7127    1.0000 </r>
       <r>    4.7127    1.0000 </r>
       <r>    4.7239    1.0000 </r>
       <r>    4.7239    1.0000 </r>
       <r>    4.7363    1.0000 </r>
       <r>    4.7364    1.0000 </r>
       <r>    5.2328    1.0000 </r>
       <r>    5.2328    1.0000 </r>
       <r>    5.2941    1.0000 </r>
       <r>    5.2941    1.0000 </r>
       <r>    5.3411    1.0000 </r>
       <r>    5.3411    1.0000 </r>
       <r>    5.9141    1.0000 </r>
       <r>    5.9141    1.0000 </r>
       <r>    6.3159    1.0000 </r>
       <r>    6.3159    1.0000 </r>
       <r>    6.4289    1.0000 </r>
       <r>    6.4289    1.0000 </r>
       <r>    6.7765    1.0000 </r>
       <r>    6.7765    1.0000 </r>
       <r>    6.9539    1.0000 </r>
       <r>    6.9539    1.0000 </r>
       <r>    7.1539    1.0000 </r>
       <r>    7.1540    1.0000 </r>
       <r>    7.2208    1.0000 </r>
       <r>    7.2208    1.0000 </r>
       <r>    7.3881    1.0000 </r>
       <r>    7.3881    1.0000 </r>
       <r>    7.6291    1.0000 </r>
       <r>    7.6291    1.0000 </r>
       <r>    8.6181    0.0000 </r>
       <r>    8.6181    0.0000 </r>
       <r>    8.8360    0.0000 </r>
       <r>    8.8360    0.0000 </r>
       <r>    8.9593    0.0000 </r>
       <r>    8.9593    0.0000 </r>
       <r>    9.2555    0.0000 </r>
       <r>    9.2555    0.0000 </r>
       <r>    9.4931    0.0000 </r>
       <r>    9.4932    0.0000 </r>
       <r>    9.7247    0.0000 </r>
       <r>    9.7247    0.0000 </r>
       <r>    9.7269    0.0000 </r>
       <r>    9.7269    0.0000 </r>
       <r>    9.8319    0.0000 </r>
       <r>    9.8319    0.0000 </r>
       <r>   10.1923    0.0000 </r>
       <r>   10.2199    0.0000 </r>
      </set>
      <set comment="kpoint 7">
       <r>   -7.6471    1.0000 </r>
       <r>   -7.5940    1.0000 </r>
       <r>   -7.3902    1.0000 </r>
       <r>   -7.3437    1.0000 </r>
       <r>   -6.4533    1.0000 </r>
       <r>   -6.4285    1.0000 </r>
       <r>   -5.8445    1.0000 </r>
       <r>   -5.8296    1.0000 </r>
       <r>   -4.5499    1.0000 </r>
       <r>   -4.5470    1.0000 </r>
       <r>   -4.2681    1.0000 </r>
       <r>   -4.0169    1.0000 </r>
       <r>   -3.9864    1.0000 </r>
       <r>   -3.9374    1.0000 </r>
       <r>   -3.2585    1.0000 </r>
       <r>   -3.2437    1.0000 </r>
       <r>   -2.9330    1.0000 </r>
       <r>   -2.6637    1.0000 </r>
       <r>   -1.9727    1.0000 </r>
       <r>   -1.7445    1.0000 </r>
       <r>   -1.7333    1.0000 </r>
       <r>   -1.2362    1.0000 </r>
       <r>   -1.2103    1.0000 </r>
       <r>   -1.1679    1.0000 </r>
       <r>   -1.1489    1.0000 </r>
       <r>   -0.9678    1.0000 </r>
       <r>   -0.8717    1.0000 </r>
       <r>   -0.4744    1.0000 </r>
       <r>   -0.3520    1.0000 </r>
       <r>   -0.3250    1.0000 </r>
       <r>   -0.2080    1.0000 </r>
       <r>   -0.1621    1.0000 </r>
       <r>   -0.1085    1.0000 </r>
       <r>   -0.0731    1.0000 </r>
       <r>    0.1060    1.0000 </r>
       <r>    0.1897    1.0000 </r>
       <r>    0.2685    1.0000 </r>
       <r>    0.8327    1.0000 </r>
       <r>    0.8577    1.0000 </r>
       <r>    0.9584    1.0000 </r>
       <r>    1.2442    1.0000 </r>
       <r>    1.3314    1.0000 </r>
       <r>    1.6654    1.0000 </r>
       <r>    1.9170    1.0000 </r>
       <r>    1.9224    1.0000 </r>
       <r>    1.9979    1.0000 </r>
       <r>    2.1025    1.0000 </r>
       <r>    2.1501    1.0000 </r>
       <r>    2.1924    1.0000 </r>
       <r>    2.3823    1.0000 </r>
       <r>    2.6086    1.0000 </r>
       <r>    2.8323    1.0000 </r>
       <r>    2.9891    1.0000 </r>
       <r>    3.0636    1.0000 </r>
       <r>    3.0637    1.0000 </r>
       <r>    3.1276    1.0000 </r>
       <r>    3.3600    1.0000 </r>
       <r>    3.3680    1.0000 </r>
       <r>    3.5722    1.0000 </r>
       <r>    3.6633    1.0000 </r>
       <r>    3.8318    1.0000 </r>
       <r>    3.8850    1.0000 </r>
       <r>    3.9664    1.0000 </r>
       <r>    4.0273    1.0000 </r>
       <r>    4.1494    1.0000 </r>
       <r>    4.1501    1.0000 </r>
       <r>    4.1806    1.0000 </r>
       <r>    4.2033    1.0000 </r>
       <r>    4.2468    1.0000 </r>
       <r>    4.4190    1.0000 </r>
       <r>    4.5552    1.0000 </r>
       <r>    4.8576    1.0000 </r>
       <r>    4.9379    1.0000 </r>
       <r>    5.0503    1.0000 </r>
       <r>    5.0662    1.0000 </r>
       <r>    5.0944    1.0000 </r>
       <r>    5.1071    1.0000 </r>
       <r>    5.3348    1.0000 </r>
       <r>    5.3954    1.0000 </r>
       <r>    5.5600    1.0000 </r>
       <r>    5.5790    1.0000 </r>
       <r>    5.8313    1.0000 </r>
       <r>    5.8665    1.0000 </r>
       <r>    5.9588    1.0000 </r>
       <r>    6.0299    1.0000 </r>
       <r>    6.3094    1.0000 </r>
       <r>    6.3134    1.0000 </r>
       <r>    6.3347    1.0000 </r>
       <r>    6.3356    1.0000 </r>
       <r>    6.3590    1.0000 </r>
       <r>    6.5758    1.0000 </r>
       <r>    6.6772    1.0000 </r>
       <r>    6.7910    1.0000 </r>
       <r>    7.0157    1.0000 </r>
       <r>    7.0984    1.0000 </r>
       <r>    7.7233    1.0000 </r>
       <r>    8.0497    0.0000 </r>
       <r>    8.1223    0.0000 </r>
       <r>    8.2096    0.0000 </r>
       <r>    8.2489    0.0000 </r>
       <r>    8.4423    0.0000 </r>
       <r>    8.5278    0.0000 </r>
       <r>    8.6291    0.0000 </r>
       <r>    8.6365    0.0000 </r>
       <r>    8.6486    0.0000 </r>
       <r>    8.9498    0.0000 </r>
       <r>    8.9706    0.0000 </r>
       <r>    9.2665    0.0000 </r>
       <r>    9.2901    0.0000 </r>
       <r>    9.3384    0.0000 </r>
       <r>    9.3673    0.0000 </r>
       <r>    9.3694    0.0000 </r>
       <r>    9.4992    0.0000 </r>
       <r>    9.5068    0.0000 </r>
       <r>    9.6939    0.0000 </r>
       <r>    9.7721    0.0000 </r>
      </set>
      <set comment="kpoint 8">
       <r>   -7.5642    1.0000 </r>
       <r>   -7.5213    1.0000 </r>
       <r>   -7.3516    1.0000 </r>
       <r>   -7.2983    1.0000 </r>
       <r>   -6.5543    1.0000 </r>
       <r>   -6.5396    1.0000 </r>
       <r>   -5.7013    1.0000 </r>
       <r>   -5.6780    1.0000 </r>
       <r>   -5.0543    1.0000 </r>
       <r>   -5.0428    1.0000 </r>
       <r>   -4.1901    1.0000 </r>
       <r>   -3.9938    1.0000 </r>
       <r>   -3.5306    1.0000 </r>
       <r>   -3.4758    1.0000 </r>
       <r>   -3.4441    1.0000 </r>
       <r>   -3.0088    1.0000 </r>
       <r>   -2.8167    1.0000 </r>
       <r>   -2.6587    1.0000 </r>
       <r>   -2.1005    1.0000 </r>
       <r>   -1.8273    1.0000 </r>
       <r>   -1.6858    1.0000 </r>
       <r>   -1.5251    1.0000 </r>
       <r>   -1.4413    1.0000 </r>
       <r>   -1.1546    1.0000 </r>
       <r>   -0.9875    1.0000 </r>
       <r>   -0.9512    1.0000 </r>
       <r>   -0.9029    1.0000 </r>
       <r>   -0.8989    1.0000 </r>
       <r>   -0.7713    1.0000 </r>
       <r>   -0.6706    1.0000 </r>
       <r>   -0.5603    1.0000 </r>
       <r>   -0.2547    1.0000 </r>
       <r>   -0.0261    1.0000 </r>
       <r>    0.0862    1.0000 </r>
       <r>    0.1055    1.0000 </r>
       <r>    0.6277    1.0000 </r>
       <r>    0.6285    1.0000 </r>
       <r>    0.8284    1.0000 </r>
       <r>    0.8913    1.0000 </r>
       <r>    1.1017    1.0000 </r>
       <r>    1.2089    1.0000 </r>
       <r>    1.3511    1.0000 </r>
       <r>    1.5187    1.0000 </r>
       <r>    1.6233    1.0000 </r>
       <r>    1.7564    1.0000 </r>
       <r>    2.3047    1.0000 </r>
       <r>    2.3402    1.0000 </r>
       <r>    2.3670    1.0000 </r>
       <r>    2.4175    1.0000 </r>
       <r>    2.4674    1.0000 </r>
       <r>    2.5070    1.0000 </r>
       <r>    2.6812    1.0000 </r>
       <r>    2.7770    1.0000 </r>
       <r>    2.7867    1.0000 </r>
       <r>    2.8609    1.0000 </r>
       <r>    3.1284    1.0000 </r>
       <r>    3.2238    1.0000 </r>
       <r>    3.2632    1.0000 </r>
       <r>    3.3907    1.0000 </r>
       <r>    3.4059    1.0000 </r>
       <r>    3.6370    1.0000 </r>
       <r>    3.8724    1.0000 </r>
       <r>    4.1189    1.0000 </r>
       <r>    4.2508    1.0000 </r>
       <r>    4.2667    1.0000 </r>
       <r>    4.3553    1.0000 </r>
       <r>    4.4411    1.0000 </r>
       <r>    4.5791    1.0000 </r>
       <r>    4.6216    1.0000 </r>
       <r>    4.6773    1.0000 </r>
       <r>    4.7532    1.0000 </r>
       <r>    4.7583    1.0000 </r>
       <r>    4.9671    1.0000 </r>
       <r>    5.0455    1.0000 </r>
       <r>    5.1450    1.0000 </r>
       <r>    5.2737    1.0000 </r>
       <r>    5.3223    1.0000 </r>
       <r>    5.4362    1.0000 </r>
       <r>    5.5608    1.0000 </r>
       <r>    5.5702    1.0000 </r>
       <r>    5.6808    1.0000 </r>
       <r>    5.6820    1.0000 </r>
       <r>    5.7808    1.0000 </r>
       <r>    5.8818    1.0000 </r>
       <r>    5.9061    1.0000 </r>
       <r>    6.1724    1.0000 </r>
       <r>    6.3222    1.0000 </r>
       <r>    6.3318    1.0000 </r>
       <r>    6.3393    1.0000 </r>
       <r>    6.4795    1.0000 </r>
       <r>    6.6259    1.0000 </r>
       <r>    6.6509    1.0000 </r>
       <r>    6.6590    1.0000 </r>
       <r>    6.8537    1.0000 </r>
       <r>    7.2940    1.0000 </r>
       <r>    7.9555    0.0000 </r>
       <r>    7.9828    0.0000 </r>
       <r>    8.0799    0.0000 </r>
       <r>    8.1574    0.0000 </r>
       <r>    8.2397    0.0000 </r>
       <r>    8.5744    0.0000 </r>
       <r>    8.7405    0.0000 </r>
       <r>    8.8855    0.0000 </r>
       <r>    9.0957    0.0000 </r>
       <r>    9.1113    0.0000 </r>
       <r>    9.1522    0.0000 </r>
       <r>    9.1525    0.0000 </r>
       <r>    9.1996    0.0000 </r>
       <r>    9.2395    0.0000 </r>
       <r>    9.3116    0.0000 </r>
       <r>    9.5846    0.0000 </r>
       <r>    9.6020    0.0000 </r>
       <r>    9.8245    0.0000 </r>
       <r>    9.8308    0.0000 </r>
       <r>    9.9067    0.0000 </r>
       <r>    9.9205    0.0000 </r>
      </set>
      <set comment="kpoint 9">
       <r>   -7.2700    1.0000 </r>
       <r>   -7.2541    1.0000 </r>
       <r>   -7.0858    1.0000 </r>
       <r>   -7.0540    1.0000 </r>
       <r>   -6.8479    1.0000 </r>
       <r>   -6.8078    1.0000 </r>
       <r>   -5.9691    1.0000 </r>
       <r>   -5.9307    1.0000 </r>
       <r>   -5.3278    1.0000 </r>
       <r>   -5.3119    1.0000 </r>
       <r>   -4.0229    1.0000 </r>
       <r>   -3.8160    1.0000 </r>
       <r>   -3.5782    1.0000 </r>
       <r>   -3.1221    1.0000 </r>
       <r>   -2.7324    1.0000 </r>
       <r>   -2.5235    1.0000 </r>
       <r>   -2.3443    1.0000 </r>
       <r>   -2.3408    1.0000 </r>
       <r>   -2.3334    1.0000 </r>
       <r>   -2.1410    1.0000 </r>
       <r>   -2.1322    1.0000 </r>
       <r>   -2.0812    1.0000 </r>
       <r>   -1.9505    1.0000 </r>
       <r>   -1.5441    1.0000 </r>
       <r>   -1.5358    1.0000 </r>
       <r>   -1.3478    1.0000 </r>
       <r>   -1.3476    1.0000 </r>
       <r>   -1.1714    1.0000 </r>
       <r>   -0.6751    1.0000 </r>
       <r>   -0.5523    1.0000 </r>
       <r>   -0.5479    1.0000 </r>
       <r>   -0.3866    1.0000 </r>
       <r>   -0.2110    1.0000 </r>
       <r>   -0.0689    1.0000 </r>
       <r>    0.2598    1.0000 </r>
       <r>    0.6520    1.0000 </r>
       <r>    0.6531    1.0000 </r>
       <r>    0.7723    1.0000 </r>
       <r>    0.8577    1.0000 </r>
       <r>    1.0689    1.0000 </r>
       <r>    1.0729    1.0000 </r>
       <r>    1.5637    1.0000 </r>
       <r>    1.5962    1.0000 </r>
       <r>    1.6244    1.0000 </r>
       <r>    1.6486    1.0000 </r>
       <r>    1.7700    1.0000 </r>
       <r>    1.8309    1.0000 </r>
       <r>    2.1547    1.0000 </r>
       <r>    2.2470    1.0000 </r>
       <r>    2.3796    1.0000 </r>
       <r>    2.4120    1.0000 </r>
       <r>    2.8636    1.0000 </r>
       <r>    3.1355    1.0000 </r>
       <r>    3.4617    1.0000 </r>
       <r>    3.5053    1.0000 </r>
       <r>    3.5147    1.0000 </r>
       <r>    3.5620    1.0000 </r>
       <r>    3.7238    1.0000 </r>
       <r>    3.7646    1.0000 </r>
       <r>    3.8471    1.0000 </r>
       <r>    3.8940    1.0000 </r>
       <r>    3.9342    1.0000 </r>
       <r>    3.9703    1.0000 </r>
       <r>    3.9791    1.0000 </r>
       <r>    3.9857    1.0000 </r>
       <r>    4.0055    1.0000 </r>
       <r>    4.0692    1.0000 </r>
       <r>    4.1726    1.0000 </r>
       <r>    4.3442    1.0000 </r>
       <r>    4.4067    1.0000 </r>
       <r>    4.6547    1.0000 </r>
       <r>    4.7879    1.0000 </r>
       <r>    4.8626    1.0000 </r>
       <r>    5.1318    1.0000 </r>
       <r>    5.1433    1.0000 </r>
       <r>    5.3247    1.0000 </r>
       <r>    5.3899    1.0000 </r>
       <r>    5.4766    1.0000 </r>
       <r>    5.6645    1.0000 </r>
       <r>    5.8778    1.0000 </r>
       <r>    6.0090    1.0000 </r>
       <r>    6.0711    1.0000 </r>
       <r>    6.1119    1.0000 </r>
       <r>    6.1824    1.0000 </r>
       <r>    6.6714    1.0000 </r>
       <r>    6.7424    1.0000 </r>
       <r>    6.8992    1.0000 </r>
       <r>    7.0383    1.0000 </r>
       <r>    7.0481    1.0000 </r>
       <r>    7.1553    1.0000 </r>
       <r>    7.2552    1.0000 </r>
       <r>    7.3334    1.0000 </r>
       <r>    7.4289    1.0000 </r>
       <r>    7.4330    1.0000 </r>
       <r>    7.4854    1.0000 </r>
       <r>    7.5339    1.0000 </r>
       <r>    7.7677    0.3107 </r>
       <r>    7.9275    0.0000 </r>
       <r>    7.9612    0.0000 </r>
       <r>    8.0726    0.0000 </r>
       <r>    8.2150    0.0000 </r>
       <r>    8.8350    0.0000 </r>
       <r>    8.9646    0.0000 </r>
       <r>    9.0746    0.0000 </r>
       <r>    9.0813    0.0000 </r>
       <r>    9.0891    0.0000 </r>
       <r>    9.1661    0.0000 </r>
       <r>    9.2476    0.0000 </r>
       <r>    9.2748    0.0000 </r>
       <r>    9.3416    0.0000 </r>
       <r>    9.5799    0.0000 </r>
       <r>    9.6228    0.0000 </r>
       <r>    9.7207    0.0000 </r>
       <r>    9.8330    0.0000 </r>
       <r>    9.9380    0.0000 </r>
       <r>   10.0900    0.0000 </r>
      </set>
      <set comment="kpoint 10">
       <r>   -7.3902    1.0000 </r>
       <r>   -7.3437    1.0000 </r>
       <r>   -7.2508    1.0000 </r>
       <r>   -7.2324    1.0000 </r>
       <r>   -6.4533    1.0000 </r>
       <r>   -6.4285    1.0000 </r>
       <r>   -6.2414    1.0000 </r>
       <r>   -6.1989    1.0000 </r>
       <r>   -4.9749    1.0000 </r>
       <r>   -4.9669    1.0000 </r>
       <r>   -4.0169    1.0000 </r>
       <r>   -3.9863    1.0000 </r>
       <r>   -3.9373    1.0000 </r>
       <r>   -3.2437    1.0000 </r>
       <r>   -2.9715    1.0000 </r>
       <r>   -2.6637    1.0000 </r>
       <r>   -2.4972    1.0000 </r>
       <r>   -2.4467    1.0000 </r>
       <r>   -2.2692    1.0000 </r>
       <r>   -1.9728    1.0000 </r>
       <r>   -1.8671    1.0000 </r>
       <r>   -1.7446    1.0000 </r>
       <r>   -1.7332    1.0000 </r>
       <r>   -1.7011    1.0000 </r>
       <r>   -1.3348    1.0000 </r>
       <r>   -1.2103    1.0000 </r>
       <r>   -1.2023    1.0000 </r>
       <r>   -0.9680    1.0000 </r>
       <r>   -0.6718    1.0000 </r>
       <r>   -0.6651    1.0000 </r>
       <r>   -0.5702    1.0000 </r>
       <r>   -0.2077    1.0000 </r>
       <r>   -0.1621    1.0000 </r>
       <r>   -0.0729    1.0000 </r>
       <r>    0.1061    1.0000 </r>
       <r>    0.6118    1.0000 </r>
       <r>    0.8023    1.0000 </r>
       <r>    0.9588    1.0000 </r>
       <r>    0.9931    1.0000 </r>
       <r>    1.0178    1.0000 </r>
       <r>    1.2325    1.0000 </r>
       <r>    1.2437    1.0000 </r>
       <r>    1.3307    1.0000 </r>
       <r>    1.3634    1.0000 </r>
       <r>    1.6654    1.0000 </r>
       <r>    1.9175    1.0000 </r>
       <r>    1.9221    1.0000 </r>
       <r>    2.2364    1.0000 </r>
       <r>    2.3825    1.0000 </r>
       <r>    2.5526    1.0000 </r>
       <r>    2.8806    1.0000 </r>
       <r>    2.9895    1.0000 </r>
       <r>    3.0633    1.0000 </r>
       <r>    3.1207    1.0000 </r>
       <r>    3.1277    1.0000 </r>
       <r>    3.1425    1.0000 </r>
       <r>    3.3677    1.0000 </r>
       <r>    3.5720    1.0000 </r>
       <r>    3.6223    1.0000 </r>
       <r>    3.6631    1.0000 </r>
       <r>    3.8320    1.0000 </r>
       <r>    3.9005    1.0000 </r>
       <r>    3.9668    1.0000 </r>
       <r>    4.0240    1.0000 </r>
       <r>    4.0736    1.0000 </r>
       <r>    4.1501    1.0000 </r>
       <r>    4.2040    1.0000 </r>
       <r>    4.4186    1.0000 </r>
       <r>    4.4837    1.0000 </r>
       <r>    4.5551    1.0000 </r>
       <r>    4.8122    1.0000 </r>
       <r>    4.8577    1.0000 </r>
       <r>    5.0556    1.0000 </r>
       <r>    5.1063    1.0000 </r>
       <r>    5.1067    1.0000 </r>
       <r>    5.3350    1.0000 </r>
       <r>    5.3430    1.0000 </r>
       <r>    5.5791    1.0000 </r>
       <r>    5.5916    1.0000 </r>
       <r>    5.6840    1.0000 </r>
       <r>    5.8661    1.0000 </r>
       <r>    5.9584    1.0000 </r>
       <r>    6.0445    1.0000 </r>
       <r>    6.0498    1.0000 </r>
       <r>    6.2141    1.0000 </r>
       <r>    6.3135    1.0000 </r>
[...]
       <r>     9.2309    25.2408   214.3781 </r>
       <r>     9.2968    25.5379   216.0616 </r>
       <r>     9.3627    23.4039   217.6045 </r>
       <r>     9.4286    15.4010   218.6210 </r>
       <r>     9.4946    18.6184   219.8485 </r>
       <r>     9.5605    27.4934   221.6609 </r>
       <r>     9.6264    26.4799   223.4088 </r>
       <r>     9.6923    12.9621   224.2636 </r>
       <r>     9.7582    35.5582   226.6096 </r>
       <r>     9.8242    19.1808   227.8763 </r>
       <r>     9.8901    25.3335   229.5469 </r>
       <r>     9.9560    18.3870   230.7645 </r>
       <r>    10.0219     6.4115   231.1878 </r>
       <r>    10.0878     2.6050   231.3610 </r>
       <r>    10.1538     4.6416   231.6670 </r>
       <r>    10.2197     4.4898   231.9629 </r>
       <r>    10.2856     0.5622   232.0000 </r>
       <r>    10.3515     0.0000   232.0000 </r>
       <r>    10.4175     0.0000   232.0000 </r>
       <r>    10.4834     0.0000   232.0000 </r>
       <r>    10.5493     0.0000   232.0000 </r>
       <r>    10.6152     0.0000   232.0000 </r>
       <r>    10.6811     0.0000   232.0000 </r>
       <r>    10.7471     0.0000   232.0000 </r>
       <r>    10.8130     0.0000   232.0000 </r>
       <r>    10.8789     0.0000   232.0000 </r>
       <r>    10.9448     0.0000   232.0000 </r>
       <r>    11.0107     0.0000   232.0000 </r>
       <r>    11.0767     0.0000   232.0000 </r>
       <r>    11.1426     0.0000   232.0000 </r>
      </set>
      <set comment="spin 2">
       <r>    -8.6336     0.0000     0.0000 </r>
       <r>    -8.5677     0.0000     0.0000 </r>
       <r>    -8.5017     0.0000     0.0000 </r>
       <r>    -8.4358     0.0000     0.0000 </r>
       <r>    -8.3699     0.0000     0.0000 </r>
       <r>    -8.3040     0.0000     0.0000 </r>
       <r>    -8.2381     0.0000     0.0000 </r>
       <r>    -8.1721     0.0000     0.0000 </r>
       <r>    -8.1062     0.0000     0.0000 </r>
       <r>    -8.0403     0.0000     0.0000 </r>
       <r>    -7.9744     0.0000     0.0000 </r>
       <r>    -7.9085     0.0000     0.0000 </r>
       <r>    -7.8425     0.0000     0.0000 </r>
       <r>    -7.7766     0.0000     0.0000 </r>
       <r>    -7.7107     0.1786     0.0118 </r>
       <r>    -7.6448     3.0041     0.2098 </r>
       <r>    -7.5788    11.0857     0.9406 </r>
       <r>    -7.5129    11.4610     1.6961 </r>
       <r>    -7.4470     4.6290     2.0015 </r>
       <r>    -7.3811     6.9210     2.4578 </r>
       <r>    -7.3152    19.5247     3.7449 </r>
       <r>    -7.2492    14.1374     4.6771 </r>
       <r>    -7.1833    14.8795     5.6608 </r>
       <r>    -7.1174     7.7889     6.1746 </r>
       <r>    -7.0515     5.5730     6.5422 </r>
       <r>    -6.9856    11.4975     7.3001 </r>
       <r>    -6.9196    12.7352     8.1399 </r>
       <r>    -6.8537     7.8430     8.6627 </r>
       <r>    -6.7878     5.0767     8.9973 </r>
       <r>    -6.7219    12.4463     9.8178 </r>
       <r>    -6.6560     2.7613    10.0000 </r>
       <r>    -6.5900     0.0000    10.0000 </r>
       <r>    -6.5241     1.6044    10.1058 </r>
       <r>    -6.4582     5.3512    10.4585 </r>
       <r>    -6.3923    19.4239    11.7390 </r>
       <r>    -6.3264     5.5238    12.1043 </r>
       <r>    -6.2604     1.7895    12.2222 </r>
       <r>    -6.1945     2.9085    12.4140 </r>
       <r>    -6.1286     3.8262    12.6667 </r>
       <r>    -6.0627     0.9926    12.7321 </r>
       <r>    -5.9968    11.5163    13.4913 </r>
       <r>    -5.9308     2.8397    13.6825 </r>
       <r>    -5.8649     4.8166    14.0000 </r>
       <r>    -5.7990     5.7715    14.3805 </r>
       <r>    -5.7331     0.9567    14.4444 </r>
       <r>    -5.6672     2.0901    14.5822 </r>
       <r>    -5.6012     4.6520    14.8889 </r>
       <r>    -5.5353     7.6682    15.3944 </r>
       <r>    -5.4694    12.5480    16.2222 </r>
       <r>    -5.4035     0.0000    16.2222 </r>
       <r>    -5.3376     0.0000    16.2222 </r>
       <r>    -5.2716     6.6863    16.6630 </r>
       <r>    -5.2057     0.0509    16.6667 </r>
       <r>    -5.1398     6.7393    17.1109 </r>
       <r>    -5.0739     0.0000    17.1111 </r>
       <r>    -5.0079     6.3987    17.5329 </r>
       <r>    -4.9420     4.5039    17.8302 </r>
       <r>    -4.8761     9.3180    18.4444 </r>
       <r>    -4.8102     0.0000    18.4444 </r>
       <r>    -4.7443     4.1425    18.7175 </r>
       <r>    -4.6783     2.5996    18.8889 </r>
       <r>    -4.6124     0.6532    18.9319 </r>
       <r>    -4.5465     6.0677    19.3319 </r>
       <r>    -4.4806     9.2833    19.9454 </r>
       <r>    -4.4147     5.8394    20.3321 </r>
       <r>    -4.3487     3.4389    20.5600 </r>
       <r>    -4.2828     2.3292    20.7136 </r>
       <r>    -4.2169     3.5832    20.9498 </r>
       <r>    -4.1510     5.1098    21.2866 </r>
       <r>    -4.0851     8.2909    21.8333 </r>
       <r>    -4.0191     4.7590    22.1470 </r>
       <r>    -3.9532    11.4459    22.9018 </r>
       <r>    -3.8873    30.5446    24.9154 </r>
       <r>    -3.8214     0.4396    24.9445 </r>
       <r>    -3.7555     4.7637    25.2585 </r>
       <r>    -3.6895     8.6907    25.8314 </r>
       <r>    -3.6236     3.5416    26.0649 </r>
       <r>    -3.5577     5.9275    26.4556 </r>
       <r>    -3.4918     5.7199    26.8327 </r>
       <r>    -3.4259     7.8952    27.3538 </r>
       <r>    -3.3599     5.5539    27.7204 </r>
       <r>    -3.2940     5.0344    28.0523 </r>
       <r>    -3.2281     4.8080    28.3693 </r>
       <r>    -3.1622    14.0426    29.2950 </r>
       <r>    -3.0963     3.7932    29.5455 </r>
       <r>    -3.0303     3.5250    29.7779 </r>
       <r>    -2.9644     6.0109    30.1741 </r>
       <r>    -2.8985     7.1185    30.6435 </r>
       <r>    -2.8326     3.1260    30.8505 </r>
       <r>    -2.7667     6.4813    31.2778 </r>
       <r>    -2.7007     2.4626    31.4401 </r>
       <r>    -2.6348     8.7416    32.0164 </r>
       <r>    -2.5689    11.1936    32.7542 </r>
       <r>    -2.5030     5.8001    33.1366 </r>
       <r>    -2.4370     6.0059    33.5325 </r>
       <r>    -2.3711    10.9727    34.2558 </r>
       <r>    -2.3052    10.2911    34.9342 </r>
       <r>    -2.2393    12.4591    35.7582 </r>
       <r>    -2.1734    17.6180    36.9204 </r>
       <r>    -2.1074     6.9209    37.3775 </r>
       <r>    -2.0415    15.3108    38.3878 </r>
       <r>    -1.9756    17.3162    39.5297 </r>
       <r>    -1.9097    13.2920    40.4059 </r>
       <r>    -1.8438    28.6779    42.2970 </r>
       <r>    -1.7778    12.7255    43.1409 </r>
       <r>    -1.7119    13.1048    44.0048 </r>
       <r>    -1.6460     7.5127    44.5000 </r>
       <r>    -1.5801     3.3705    44.7222 </r>
       <r>    -1.5142     2.7550    44.9038 </r>
       <r>    -1.4482    13.6593    45.8043 </r>
       <r>    -1.3823     8.9327    46.3931 </r>
       <r>    -1.3164    15.4794    47.4135 </r>
       <r>    -1.2505     6.8240    47.8634 </r>
       <r>    -1.1846     8.8213    48.4450 </r>
       <r>    -1.1186    19.1629    49.7082 </r>
       <r>    -1.0527     4.8545    50.0290 </r>
       <r>    -0.9868    10.3275    50.7103 </r>
       <r>    -0.9209    32.7476    52.8696 </r>
       <r>    -0.8550    26.6591    54.6274 </r>
       <r>    -0.7890    33.2480    56.8198 </r>
       <r>    -0.7231     8.0158    57.3535 </r>
       <r>    -0.6572    16.7823    58.4599 </r>
       <r>    -0.5913    25.0313    60.1111 </r>
       <r>    -0.5254    18.4325    61.3262 </r>
       <r>    -0.4594    17.2065    62.4625 </r>
       <r>    -0.3935     6.5179    62.8922 </r>
       <r>    -0.3276     4.9775    63.2205 </r>
       <r>    -0.2617     5.9086    63.6100 </r>
       <r>    -0.1958     7.0957    64.0777 </r>
       <r>    -0.1298    13.8052    64.9878 </r>
       <r>    -0.0639     7.7035    65.4957 </r>
       <r>     0.0020    12.7686    66.3374 </r>
       <r>     0.0679     1.6768    66.4480 </r>
       <r>     0.1339    14.4860    67.4029 </r>
       <r>     0.1998    10.1213    68.0730 </r>
       <r>     0.2657    12.0708    68.8687 </r>
       <r>     0.3316    12.9266    69.7208 </r>
       <r>     0.3975     3.1668    69.9310 </r>
       <r>     0.4635     5.2461    70.2768 </r>
       <r>     0.5294     6.4872    70.7054 </r>
       <r>     0.5953     0.5972    70.7448 </r>
       <r>     0.6612     9.7814    71.3896 </r>
       <r>     0.7271    18.7277    72.6245 </r>
       <r>     0.7931    14.3223    73.5695 </r>
       <r>     0.8590    21.7763    75.0050 </r>
       <r>     0.9249    19.9652    76.3211 </r>
       <r>     0.9908    15.0405    77.3130 </r>
       <r>     1.0567    16.8184    78.4242 </r>
       <r>     1.1227    11.8713    79.2080 </r>
       <r>     1.1886    11.7824    79.9872 </r>
       <r>     1.2545     8.8583    80.5745 </r>
       <r>     1.3204    12.6028    81.4052 </r>
       <r>     1.3863    30.9255    83.4439 </r>
       <r>     1.4523    24.4493    85.0561 </r>
       <r>     1.5182     4.3586    85.3441 </r>
       <r>     1.5841    22.3625    86.8182 </r>
       <r>     1.6500     9.5562    87.4484 </r>
       <r>     1.7159    14.4737    88.4033 </r>
       <r>     1.7819    13.9031    89.3235 </r>
       <r>     1.8478    10.6414    90.0272 </r>
       <r>     1.9137    14.1088    90.9573 </r>
       <r>     1.9796    16.7183    92.0594 </r>
       <r>     2.0455    10.7813    92.7707 </r>
       <r>     2.1115     6.0299    93.1682 </r>
       <r>     2.1774    13.1200    94.0331 </r>
       <r>     2.2433    14.3241    94.9774 </r>
       <r>     2.3092    20.2683    96.3143 </r>
       <r>     2.3751    14.4470    97.2669 </r>
       <r>     2.4411    36.9349    99.7025 </r>
       <r>     2.5070    18.2732   100.9167 </r>
       <r>     2.5729     7.9143   101.4413 </r>
       <r>     2.6388     5.4868   101.8030 </r>
       <r>     2.7048     6.5717   102.2374 </r>
       <r>     2.7707     9.9872   102.8982 </r>
       <r>     2.8366    18.7329   104.1343 </r>
       <r>     2.9025    11.5150   104.8945 </r>
       <r>     2.9684     6.2284   105.3063 </r>
       <r>     3.0344    14.2187   106.2436 </r>
       <r>     3.1003    25.0227   107.8935 </r>
       <r>     3.1662    33.0867   110.0761 </r>
       <r>     3.2321    12.6468   110.9111 </r>
       <r>     3.2980     6.4315   111.3353 </r>
       <r>     3.3640    11.5686   112.0979 </r>
       <r>     3.4299    19.7936   113.4027 </r>
       <r>     3.4958    14.3396   114.3487 </r>
       <r>     3.5617    16.0195   115.4062 </r>
       <r>     3.6276    11.2553   116.1496 </r>
       <r>     3.6936    15.6569   117.1817 </r>
       <r>     3.7595    12.9908   118.0382 </r>
       <r>     3.8254    23.3696   119.5788 </r>
       <r>     3.8913    31.7195   121.6704 </r>
       <r>     3.9572    20.0807   122.9941 </r>
       <r>     4.0232    33.3219   125.1910 </r>
       <r>     4.0891    16.5837   126.2856 </r>
       <r>     4.1550    11.2698   127.0287 </r>
       <r>     4.2209    32.2801   129.1587 </r>
       <r>     4.2868    40.2378   131.8133 </r>
       <r>     4.3528    12.1151   132.6136 </r>
       <r>     4.4187    21.2717   134.0158 </r>
       <r>     4.4846    32.2697   136.1431 </r>
       <r>     4.5505    15.2320   137.1475 </r>
       <r>     4.6164    25.3920   138.8230 </r>
       <r>     4.6824    23.5187   140.3738 </r>
       <r>     4.7483    29.2483   142.3030 </r>
       <r>     4.8142    20.1751   143.6336 </r>
       <r>     4.8801    20.6381   144.9941 </r>
       <r>     4.9460     6.4093   145.4167 </r>
       <r>     5.0120    25.6830   147.1098 </r>
       <r>     5.0779    15.7674   148.1492 </r>
       <r>     5.1438    27.7341   149.9782 </r>
       <r>     5.2097    24.8575   151.6197 </r>
       <r>     5.2757    13.5437   152.5127 </r>
       <r>     5.3416    12.7300   153.3519 </r>
       <r>     5.4075    27.9565   155.1950 </r>
       <r>     5.4734    14.8352   156.1730 </r>
       <r>     5.5393    16.3593   157.2514 </r>
       <r>     5.6053    23.4147   158.7949 </r>
       <r>     5.6712    11.1399   159.5322 </r>
       <r>     5.7371    28.4175   161.4055 </r>
       <r>     5.8030    15.5567   162.4346 </r>
       <r>     5.8689    11.1679   163.1708 </r>
       <r>     5.9349    16.0203   164.2268 </r>
       <r>     6.0008    12.9090   165.0778 </r>
       <r>     6.0667    12.9647   165.9358 </r>
       <r>     6.1326    16.2483   167.0082 </r>
       <r>     6.1985    25.8771   168.7167 </r>
       <r>     6.2645    17.6428   169.8807 </r>
       <r>     6.3304    22.6341   171.3730 </r>
       <r>     6.3963    30.6898   173.3985 </r>
       <r>     6.4622     7.3788   173.8898 </r>
       <r>     6.5281    22.9858   175.4064 </r>
       <r>     6.5941     9.4065   176.0273 </r>
       <r>     6.6600    13.2431   176.9004 </r>
       <r>     6.7259    18.5053   178.1203 </r>
       <r>     6.7918    20.8974   179.4979 </r>
       <r>     6.8577    10.1962   180.1701 </r>
       <r>     6.9237    17.6409   181.3330 </r>
       <r>     6.9896     8.9731   181.9293 </r>
       <r>     7.0555    18.4302   183.1442 </r>
       <r>     7.1214    14.1516   184.0771 </r>
       <r>     7.1873    29.0217   185.9910 </r>
       <r>     7.2533    10.5877   186.6890 </r>
       <r>     7.3192     9.3118   187.3034 </r>
       <r>     7.3851    11.8336   188.0835 </r>
       <r>     7.4510    11.8203   188.8631 </r>
       <r>     7.5169    20.1744   190.1930 </r>
       <r>     7.5829     3.8042   190.4441 </r>
       <r>     7.6488     5.1042   190.7809 </r>
       <r>     7.7147     5.5177   191.1446 </r>
       <r>     7.7806    19.3572   192.4207 </r>
       <r>     7.8466    13.9328   193.3391 </r>
       <r>     7.9125     4.1216   193.6108 </r>
       <r>     7.9784     4.1288   193.8836 </r>
       <r>     8.0443    12.1094   194.6818 </r>
       <r>     8.1102    14.2753   195.6229 </r>
       <r>     8.1762    16.5881   196.7164 </r>
       <r>     8.2421    10.0514   197.3790 </r>
       <r>     8.3080    11.9467   198.1667 </r>
       <r>     8.3739    12.8147   199.0115 </r>
       <r>     8.4398    14.6344   199.9771 </r>
       <r>     8.5058     9.9583   200.6335 </r>
       <r>     8.5717    14.5948   201.5956 </r>
       <r>     8.6376     9.9662   202.2534 </r>
       <r>     8.7035    28.2610   204.1195 </r>
       <r>     8.7694     9.3194   204.7346 </r>
       <r>     8.8354    13.6105   205.6319 </r>
       <r>     8.9013    22.9391   207.1440 </r>
       <r>     8.9672    11.8053   207.9225 </r>
       <r>     9.0331    27.4391   209.7335 </r>
       <r>     9.0990    13.1476   210.6015 </r>
       <r>     9.1650    25.6732   212.2965 </r>
       <r>     9.2309    22.7265   213.7985 </r>
       <r>     9.2968    24.7672   215.4314 </r>
       <r>     9.3627    18.4907   216.6512 </r>
       <r>     9.4286    25.8242   218.3535 </r>
       <r>     9.4946    17.2368   219.4898 </r>
       <r>     9.5605    19.0594   220.7488 </r>
       <r>     9.6264    32.5652   222.8956 </r>
       <r>     9.6923    14.9236   223.8825 </r>
       <r>     9.7582    32.1894   226.0046 </r>
       <r>     9.8242    20.1245   227.3323 </r>
       <r>     9.8901    23.6648   228.8923 </r>
       <r>     9.9560    23.6831   230.4540 </r>
       <r>    10.0219     8.3427   231.0065 </r>
       <r>    10.0878     3.2355   231.2222 </r>
       <r>    10.1538     6.7374   231.6664 </r>
       <r>    10.2197     3.9789   231.9290 </r>
       <r>    10.2856     1.0714   232.0000 </r>
       <r>    10.3515     0.0000   232.0000 </r>
       <r>    10.4175     0.0000   232.0000 </r>
       <r>    10.4834     0.0000   232.0000 </r>
       <r>    10.5493     0.0000   232.0000 </r>
       <r>    10.6152     0.0000   232.0000 </r>
       <r>    10.6811     0.0000   232.0000 </r>
       <r>    10.7471     0.0000   232.0000 </r>
       <r>    10.8130     0.0000   232.0000 </r>
       <r>    10.8789     0.0000   232.0000 </r>
       <r>    10.9448     0.0000   232.0000 </r>
       <r>    11.0107     0.0000   232.0000 </r>
       <r>    11.0767     0.0000   232.0000 </r>
       <r>    11.1426     0.0000   232.0000 </r>
      </set>
     </set>
    </array>
   </total>
  </dos>
 </calculation>
 <structure name="finalpos" >
  <crystal>
   <varray name="basis" >
    <v>       5.43100023       0.00000000       0.00000000 </v>
    <v>      -5.43100023      10.86200046       0.00000000 </v>
    <v>       0.00000000       0.00000000      13.57750130 </v>
   </varray>
   <i name="volume">    800.95753512 </i>
   <varray name="rec_basis" >
    <v>       0.18412815       0.09206407       0.00000000 </v>
    <v>       0.00000000       0.09206407       0.00000000 </v>
    <v>       0.00000000       0.00000000       0.07365125 </v>
   </varray>
  </crystal>
  <varray name="positions" >
   <v>       0.01779686       0.00000000       0.00000000 </v>
   <v>       0.51779687       0.00000000       0.20000000 </v>
   <v>       0.01779687       0.00000000       0.40000001 </v>
   <v>       0.14279699       0.87500006       0.10000000 </v>
   <v>       0.26779687       0.75000006       0.50000000 </v>
   <v>       0.64279699       0.37500003       0.50000000 </v>
   <v>       0.89279693       0.12500000       0.10000000 </v>
   <v>       0.64279699       0.37500003       0.00000000 </v>
   <v>       0.89279699       0.12500000       0.50000000 </v>
   <v>       0.26779687       0.75000006       0.00000000 </v>
   <v>       0.89279687       0.62500000       0.30000004 </v>
   <v>       0.76779699       0.25000000       0.40000001 </v>
   <v>       0.76779687       0.25000000       0.00000000 </v>
   <v>       0.26779687       0.25000000       0.20000000 </v>
   <v>       0.39279699       0.62500000       0.50000000 </v>
   <v>       0.39279684       0.62500000       0.10000000 </v>
   <v>       0.76779693       0.75000006       0.20000000 </v>
   <v>       0.26779699       0.75000006       0.40000001 </v>
   <v>       0.64279693       0.37500003       0.10000000 </v>
   <v>       0.14279699       0.37500003       0.30000004 </v>
   <v>       0.51779687       0.50000000       0.40000001 </v>
   <v>       0.51779687       0.50000000       0.00000000 </v>
   <v>       0.64279699       0.87500006       0.30000004 </v>
   <v>       0.14279699       0.87500006       0.50000000 </v>
   <v>       0.51779687       0.50000000       0.50000000 </v>
   <v>       0.01779687       0.50000000       0.69999999 </v>
   <v>       0.51779687       0.50000000       0.89999998 </v>
   <v>       0.01779686       0.00000000       0.50000000 </v>
   <v>       0.51779687       0.00000000       0.69999999 </v>
   <v>       0.01779687       0.00000000       0.89999998 </v>
   <v>       0.14279699       0.87500006       0.60000002 </v>
   <v>       0.64279699       0.87500006       0.80000007 </v>
   <v>       0.14279699       0.87500006       0.00000000 </v>
   <v>       0.64279693       0.37500003       0.60000002 </v>
   <v>       0.14279699       0.37500003       0.80000007 </v>
   <v>       0.39279687       0.12500000       0.30000004 </v>
   <v>       0.01779687       0.50000000       0.20000000 </v>
   <v>       0.76779693       0.75000006       0.69999999 </v>
   <v>       0.26779699       0.75000006       0.89999998 </v>
   <v>       0.76779687       0.25000000       0.50000000 </v>
   <v>       0.26779687       0.25000000       0.69999999 </v>
   <v>       0.76779699       0.25000000       0.89999998 </v>
   <v>       0.39279684       0.62500000       0.60000002 </v>
   <v>       0.89279687       0.62500000       0.80000007 </v>
   <v>       0.39279699       0.62500000       0.00000000 </v>
   <v>       0.89279693       0.12500000       0.60000002 </v>
   <v>       0.39279687       0.12500000       0.80000007 </v>
   <v>       0.89279699       0.12500000       0.00000000 </v>
  </varray>
 </structure>
</modeling>
