Si and Ge interface calculation         
           1
     5.431000    0.000000    0.000000
    -5.431000   10.862000    0.000000
     0.000000    0.000000   13.577501
   Si
    48
Direct configuration=     1
   0.01779686  0.00000000  0.00000000
   0.51779687  0.00000000  0.20000000
   0.01779687  0.00000000  0.40000001
   0.14279699  0.87500006  0.10000000
   0.26779687  0.75000006  0.50000000
   0.64279699  0.37500003  0.50000000
   0.89279693  0.12500000  0.10000000
   0.64279699  0.37500003  0.00000000
   0.89279699  0.12500000  0.50000000
   0.26779687  0.75000006  0.00000000
   0.89279687  0.62500000  0.30000004
   0.76779699  0.25000000  0.40000001
   0.76779687  0.25000000  0.00000000
   0.26779687  0.25000000  0.20000000
   0.39279699  0.62500000  0.50000000
   0.39279684  0.62500000  0.10000000
   0.76779693  0.75000006  0.20000000
   0.26779699  0.75000006  0.40000001
   0.64279693  0.37500003  0.10000000
   0.14279699  0.37500003  0.30000004
   0.51779687  0.50000000  0.40000001
   0.51779687  0.50000000  0.00000000
   0.64279699  0.87500006  0.30000004
   0.14279699  0.87500006  0.50000000
   0.51779687  0.50000000  0.50000000
   0.01779687  0.50000000  0.69999999
   0.51779687  0.50000000  0.89999998
   0.01779686  0.00000000  0.50000000
   0.51779687  0.00000000  0.69999999
   0.01779687  0.00000000  0.89999998
   0.14279699  0.87500006  0.60000002
   0.64279699  0.87500006  0.80000007
   0.14279699  0.87500006  0.00000000
   0.64279693  0.37500003  0.60000002
   0.14279699  0.37500003  0.80000007
   0.39279687  0.12500000  0.30000004
   0.01779687  0.50000000  0.20000000
   0.76779693  0.75000006  0.69999999
   0.26779699  0.75000006  0.89999998
   0.76779687  0.25000000  0.50000000
   0.26779687  0.25000000  0.69999999
   0.76779699  0.25000000  0.89999998
   0.39279684  0.62500000  0.60000002
   0.89279687  0.62500000  0.80000007
   0.39279699  0.62500000  0.00000000
   0.89279693  0.12500000  0.60000002
   0.39279687  0.12500000  0.80000007
   0.89279699  0.12500000  0.00000000
