  48  48   0   0
  0.2323126E+02  0.8001338E-09  0.1265123E-08  0.1161174E-08  0.5000000E-15
  1.000000000000000E-004
  CAR 
 Si and Ge interface calculation         
      6.60528009    -11.05154740  301      3.32726904      1.00000000
    -11.052  0.0000E+00  0.0000E+00  0.0000E+00  0.0000E+00
    -10.993  0.0000E+00  0.0000E+00  0.0000E+00  0.0000E+00
    -10.934  0.0000E+00  0.0000E+00  0.0000E+00  0.0000E+00
    -10.875  0.0000E+00  0.0000E+00  0.0000E+00  0.0000E+00
    -10.816  0.0000E+00  0.0000E+00  0.0000E+00  0.0000E+00
    -10.757  0.0000E+00  0.0000E+00  0.0000E+00  0.0000E+00
    -10.698  0.0000E+00  0.0000E+00  0.0000E+00  0.0000E+00
    -10.640  0.0000E+00  0.0000E+00  0.0000E+00  0.0000E+00
    -10.581  0.0000E+00  0.0000E+00  0.0000E+00  0.0000E+00
    -10.522  0.0000E+00  0.0000E+00  0.0000E+00  0.0000E+00
    -10.463  0.0000E+00  0.0000E+00  0.0000E+00  0.0000E+00
    -10.404  0.0000E+00  0.0000E+00  0.0000E+00  0.0000E+00
    -10.345  0.0000E+00  0.0000E+00  0.0000E+00  0.0000E+00
    -10.286  0.5565E-07  0.4559E-14  0.3275E-08  0.2683E-15
    -10.228  0.4911E+01  0.1103E+01  0.2890E+00  0.6494E-01
    -10.169  0.3583E+01  0.7392E+01  0.5000E+00  0.5000E+00
    -10.110  0.8470E+00  0.2313E-02  0.5499E+00  0.5001E+00
    -10.051  0.2464E+02  0.2481E+02  0.2000E+01  0.1960E+01
     -9.992  0.1834E-02  0.6708E+00  0.2000E+01  0.2000E+01
     -9.933  0.1455E+02  0.5470E+01  0.2857E+01  0.2322E+01
     -9.874  0.2436E+01  0.1152E+02  0.3000E+01  0.3000E+01
     -9.816  0.0000E+00  0.0000E+00  0.3000E+01  0.3000E+01
     -9.757  0.0000E+00  0.0000E+00  0.3000E+01  0.3000E+01
     -9.698  0.3291E-01  0.4681E-05  0.3002E+01  0.3000E+01
     -9.639  0.1689E+02  0.1244E+02  0.3996E+01  0.3732E+01
     -9.580  0.6085E-01  0.4547E+01  0.4000E+01  0.4000E+01
     -9.521  0.8081E+01  0.3385E+00  0.4476E+01  0.4020E+01
     -9.462  0.8909E+01  0.1665E+02  0.5000E+01  0.5000E+01
     -9.404  0.0000E+00  0.0000E+00  0.5000E+01  0.5000E+01
     -9.345  0.0000E+00  0.0000E+00  0.5000E+01  0.5000E+01
     -9.286  0.0000E+00  0.0000E+00  0.5000E+01  0.5000E+01
     -9.227  0.0000E+00  0.0000E+00  0.5000E+01  0.5000E+01
     -9.168  0.0000E+00  0.0000E+00  0.5000E+01  0.5000E+01
     -9.109  0.0000E+00  0.0000E+00  0.5000E+01  0.5000E+01
     -9.050  0.0000E+00  0.0000E+00  0.5000E+01  0.5000E+01
     -8.992  0.1013E+01  0.1133E-01  0.5060E+01  0.5001E+01
     -8.933  0.1598E+02  0.1654E+02  0.6000E+01  0.5974E+01
     -8.874  0.1062E-06  0.4428E+00  0.6000E+01  0.6000E+01
     -8.815  0.1373E+02  0.5421E+01  0.6808E+01  0.6319E+01
     -8.756  0.5284E+01  0.1340E+02  0.7119E+01  0.7108E+01
     -8.697  0.4577E+01  0.4482E+01  0.7389E+01  0.7371E+01
     -8.638  0.7323E+01  0.5093E+01  0.7820E+01  0.7671E+01
     -8.580  0.6018E+01  0.7410E+01  0.8174E+01  0.8107E+01
     -8.521  0.7521E+01  0.7760E+01  0.8617E+01  0.8564E+01
     -8.462  0.6371E+01  0.6247E+01  0.8992E+01  0.8932E+01
     -8.403  0.2970E+01  0.3940E+01  0.9167E+01  0.9164E+01
     -8.344  0.1950E-05  0.5178E-01  0.9167E+01  0.9167E+01
     -8.285  0.8119E+01  0.4973E+01  0.9645E+01  0.9459E+01
     -8.226  0.1157E+02  0.1070E+02  0.1033E+02  0.1009E+02
     -8.168  0.2180E+02  0.1619E+02  0.1161E+02  0.1104E+02
     -8.109  0.1115E+02  0.1956E+02  0.1226E+02  0.1219E+02
     -8.050  0.2755E+01  0.2491E+01  0.1243E+02  0.1234E+02
     -7.991  0.3491E+01  0.4613E+01  0.1263E+02  0.1261E+02
     -7.932  0.1001E+02  0.9528E+01  0.1322E+02  0.1317E+02
     -7.873  0.9953E+01  0.9461E+01  0.1381E+02  0.1373E+02
     -7.814  0.4251E+01  0.3494E+01  0.1406E+02  0.1393E+02
     -7.756  0.8133E+01  0.8340E+01  0.1454E+02  0.1443E+02
     -7.697  0.1654E+02  0.1425E+02  0.1551E+02  0.1526E+02
     -7.638  0.1938E+02  0.1231E+02  0.1665E+02  0.1599E+02
     -7.579  0.1359E+02  0.2172E+02  0.1745E+02  0.1727E+02
     -7.520  0.1856E+02  0.1618E+02  0.1854E+02  0.1822E+02
     -7.461  0.1172E+02  0.1119E+02  0.1923E+02  0.1888E+02
     -7.402  0.1225E+02  0.1569E+02  0.1995E+02  0.1980E+02
     -7.344  0.1445E+02  0.1228E+02  0.2080E+02  0.2052E+02
     -7.285  0.1295E+02  0.1405E+02  0.2157E+02  0.2135E+02
     -7.226  0.2253E+02  0.2109E+02  0.2289E+02  0.2259E+02
     -7.167  0.1422E+02  0.1405E+02  0.2373E+02  0.2342E+02
     -7.108  0.1418E+02  0.1364E+02  0.2456E+02  0.2422E+02
     -7.049  0.1626E+02  0.1781E+02  0.2552E+02  0.2527E+02
     -6.990  0.2083E+02  0.1753E+02  0.2675E+02  0.2630E+02
     -6.932  0.2911E+02  0.2891E+02  0.2846E+02  0.2800E+02
     -6.873  0.2226E+02  0.2349E+02  0.2977E+02  0.2939E+02
     -6.814  0.2130E+02  0.2222E+02  0.3102E+02  0.3069E+02
     -6.755  0.1584E+02  0.1647E+02  0.3196E+02  0.3166E+02
     -6.696  0.1314E+02  0.1739E+02  0.3273E+02  0.3269E+02
     -6.637  0.1994E+02  0.1662E+02  0.3390E+02  0.3367E+02
     -6.578  0.1466E+02  0.1347E+02  0.3477E+02  0.3446E+02
     -6.520  0.8950E+01  0.1065E+02  0.3529E+02  0.3509E+02
     -6.461  0.1583E+02  0.1387E+02  0.3623E+02  0.3590E+02
     -6.402  0.1333E+02  0.1515E+02  0.3701E+02  0.3679E+02
     -6.343  0.9078E+01  0.1024E+02  0.3755E+02  0.3740E+02
     -6.284  0.6124E+01  0.6707E+01  0.3791E+02  0.3779E+02
     -6.225  0.1398E+02  0.8720E+01  0.3873E+02  0.3830E+02
     -6.166  0.1445E+02  0.1656E+02  0.3958E+02  0.3928E+02
     -6.108  0.1375E+02  0.1857E+02  0.4039E+02  0.4037E+02
     -6.049  0.3567E+01  0.2072E+01  0.4060E+02  0.4049E+02
     -5.990  0.1143E+02  0.9961E+01  0.4127E+02  0.4108E+02
     -5.931  0.4533E+01  0.7123E+01  0.4154E+02  0.4150E+02
     -5.872  0.8716E+01  0.7702E+01  0.4205E+02  0.4195E+02
     -5.813  0.1173E+02  0.6217E+01  0.4274E+02  0.4232E+02
     -5.754  0.8096E+01  0.1407E+02  0.4322E+02  0.4315E+02
     -5.696  0.1366E+02  0.1093E+02  0.4402E+02  0.4379E+02
     -5.637  0.1694E+02  0.1522E+02  0.4502E+02  0.4469E+02
     -5.578  0.9098E+01  0.1398E+02  0.4556E+02  0.4551E+02
     -5.519  0.8801E+01  0.7457E+01  0.4607E+02  0.4595E+02
     -5.460  0.7240E+01  0.6703E+01  0.4650E+02  0.4634E+02
     -5.401  0.1422E+02  0.9468E+01  0.4734E+02  0.4690E+02
     -5.343  0.9114E+01  0.1238E+02  0.4787E+02  0.4763E+02
     -5.284  0.7208E+01  0.8020E+01  0.4830E+02  0.4810E+02
     -5.225  0.1409E+02  0.1526E+02  0.4913E+02  0.4900E+02
     -5.166  0.1697E+02  0.1284E+02  0.5013E+02  0.4975E+02
     -5.107  0.8293E+01  0.1074E+02  0.5061E+02  0.5039E+02
     -5.048  0.7020E+01  0.1041E+02  0.5103E+02  0.5100E+02
     -4.989  0.9901E+01  0.8560E+01  0.5161E+02  0.5150E+02
     -4.931  0.8743E+01  0.9400E+01  0.5212E+02  0.5206E+02
     -4.872  0.6601E+01  0.7276E+01  0.5251E+02  0.5248E+02
     -4.813  0.8286E+01  0.5603E+01  0.5300E+02  0.5281E+02
     -4.754  0.6552E+01  0.6345E+01  0.5339E+02  0.5319E+02
     -4.695  0.1166E+02  0.8902E+01  0.5407E+02  0.5371E+02
     -4.636  0.1306E+02  0.1573E+02  0.5484E+02  0.5464E+02
     -4.577  0.7061E+01  0.8724E+01  0.5526E+02  0.5515E+02
     -4.519  0.1736E+02  0.1519E+02  0.5628E+02  0.5605E+02
     -4.460  0.2469E+02  0.2224E+02  0.5773E+02  0.5735E+02
     -4.401  0.9976E+01  0.1231E+02  0.5832E+02  0.5808E+02
     -4.342  0.5188E+01  0.8964E+01  0.5862E+02  0.5861E+02
     -4.283  0.1205E+02  0.5066E+01  0.5933E+02  0.5891E+02
     -4.224  0.3426E+02  0.3105E+02  0.6135E+02  0.6073E+02
     -4.165  0.2262E+02  0.2681E+02  0.6268E+02  0.6231E+02
     -4.107  0.1979E+02  0.1971E+02  0.6385E+02  0.6347E+02
     -4.048  0.1927E+02  0.1596E+02  0.6498E+02  0.6441E+02
     -3.989  0.1366E+02  0.2005E+02  0.6578E+02  0.6559E+02
     -3.930  0.1400E+02  0.1172E+02  0.6661E+02  0.6628E+02
     -3.871  0.2253E+02  0.2495E+02  0.6793E+02  0.6775E+02
     -3.812  0.1626E+02  0.1606E+02  0.6889E+02  0.6869E+02
     -3.753  0.8447E+01  0.1016E+02  0.6939E+02  0.6929E+02
     -3.695  0.1376E+02  0.9660E+01  0.7020E+02  0.6986E+02
     -3.636  0.1036E+02  0.1032E+02  0.7081E+02  0.7047E+02
     -3.577  0.2203E+02  0.2024E+02  0.7210E+02  0.7166E+02
     -3.518  0.9626E+01  0.1408E+02  0.7267E+02  0.7249E+02
     -3.459  0.1658E+02  0.1438E+02  0.7365E+02  0.7333E+02
     -3.400  0.1523E+02  0.1635E+02  0.7454E+02  0.7430E+02
     -3.341  0.1711E+02  0.1368E+02  0.7555E+02  0.7510E+02
     -3.283  0.2095E+02  0.2256E+02  0.7678E+02  0.7643E+02
     -3.224  0.1503E+02  0.1448E+02  0.7767E+02  0.7728E+02
     -3.165  0.2906E+01  0.8005E+01  0.7784E+02  0.7775E+02
     -3.106  0.1053E+02  0.8212E+01  0.7846E+02  0.7824E+02
     -3.047  0.1424E+01  0.4495E+01  0.7854E+02  0.7850E+02
     -2.988  0.6291E+01  0.4998E+01  0.7891E+02  0.7880E+02
     -2.929  0.1404E+02  0.1366E+02  0.7974E+02  0.7960E+02
     -2.871  0.1041E+02  0.1016E+02  0.8035E+02  0.8020E+02
     -2.812  0.5419E+01  0.6416E+01  0.8067E+02  0.8058E+02
     -2.753  0.1237E+02  0.1077E+02  0.8140E+02  0.8121E+02
     -2.694  0.6725E+01  0.6958E+01  0.8180E+02  0.8162E+02
     -2.635  0.6885E+01  0.9306E+01  0.8220E+02  0.8217E+02
     -2.576  0.8254E+01  0.5921E+01  0.8269E+02  0.8251E+02
     -2.517  0.1480E+02  0.1320E+02  0.8356E+02  0.8329E+02
     -2.459  0.1468E+02  0.1325E+02  0.8442E+02  0.8407E+02
     -2.400  0.1041E+02  0.1334E+02  0.8504E+02  0.8486E+02
     -2.341  0.2677E+01  0.4334E+01  0.8519E+02  0.8511E+02
     -2.282  0.3884E+01  0.3376E+01  0.8542E+02  0.8531E+02
     -2.223  0.6518E+01  0.6433E+01  0.8581E+02  0.8569E+02
     -2.164  0.1235E+02  0.8145E+01  0.8653E+02  0.8617E+02
     -2.105  0.1549E+02  0.2121E+02  0.8744E+02  0.8742E+02
     -2.047  0.9634E+01  0.2554E+01  0.8801E+02  0.8757E+02
     -1.988  0.7430E+01  0.1144E+02  0.8845E+02  0.8824E+02
     -1.929  0.3947E+01  0.5685E+01  0.8868E+02  0.8858E+02
     -1.870  0.8613E+01  0.7053E+01  0.8919E+02  0.8899E+02
     -1.811  0.4493E+01  0.6951E+01  0.8945E+02  0.8940E+02
     -1.752  0.3838E+01  0.4501E+01  0.8968E+02  0.8966E+02
     -1.693  0.7521E+01  0.3825E+01  0.9012E+02  0.8989E+02
     -1.635  0.7402E+01  0.1113E+02  0.9056E+02  0.9055E+02
     -1.576  0.5053E+01  0.3373E+01  0.9085E+02  0.9074E+02
     -1.517  0.2617E+01  0.4356E+01  0.9101E+02  0.9100E+02
     -1.458  0.3605E+01  0.2840E+01  0.9122E+02  0.9117E+02
     -1.399  0.3588E+01  0.1041E+01  0.9143E+02  0.9123E+02
     -1.340  0.8353E+01  0.8262E+01  0.9192E+02  0.9171E+02
     -1.281  0.4037E+01  0.5793E+01  0.9216E+02  0.9206E+02
     -1.223  0.5624E+01  0.5698E+01  0.9249E+02  0.9239E+02
     -1.164  0.4375E+01  0.3755E+01  0.9275E+02  0.9261E+02
     -1.105  0.1714E+02  0.1601E+02  0.9376E+02  0.9355E+02
     -1.046  0.1020E+02  0.8090E+01  0.9436E+02  0.9403E+02
     -0.987  0.3034E+02  0.2076E+02  0.9614E+02  0.9525E+02
     -0.928  0.1658E+02  0.2658E+02  0.9712E+02  0.9682E+02
     -0.869  0.2022E+02  0.1977E+02  0.9831E+02  0.9798E+02
     -0.811  0.1784E+02  0.1920E+02  0.9936E+02  0.9911E+02
     -0.752  0.1483E+02  0.1359E+02  0.1002E+03  0.9991E+02
     -0.693  0.2267E+02  0.2185E+02  0.1016E+03  0.1012E+03
     -0.634  0.2308E+02  0.2164E+02  0.1029E+03  0.1025E+03
     -0.575  0.1451E+02  0.2004E+02  0.1038E+03  0.1036E+03
     -0.516  0.2200E+02  0.1682E+02  0.1051E+03  0.1046E+03
     -0.457  0.2039E+02  0.2074E+02  0.1063E+03  0.1059E+03
     -0.399  0.2765E+02  0.2584E+02  0.1079E+03  0.1074E+03
     -0.340  0.4065E+02  0.3664E+02  0.1103E+03  0.1095E+03
     -0.281  0.1900E+02  0.2682E+02  0.1114E+03  0.1111E+03
     -0.222  0.2990E+02  0.2667E+02  0.1132E+03  0.1127E+03
     -0.163  0.2081E+02  0.1812E+02  0.1144E+03  0.1138E+03
     -0.104  0.2075E+02  0.2831E+02  0.1156E+03  0.1154E+03
     -0.045  0.2316E+02  0.2094E+02  0.1170E+03  0.1167E+03
      0.013  0.2663E+02  0.2550E+02  0.1186E+03  0.1182E+03
      0.072  0.2513E+02  0.2129E+02  0.1200E+03  0.1194E+03
      0.131  0.2786E+02  0.2872E+02  0.1217E+03  0.1211E+03
      0.190  0.1610E+02  0.2107E+02  0.1226E+03  0.1223E+03
      0.249  0.2682E+02  0.2316E+02  0.1242E+03  0.1237E+03
      0.308  0.1478E+02  0.1768E+02  0.1251E+03  0.1247E+03
      0.367  0.2893E+02  0.2635E+02  0.1268E+03  0.1263E+03
      0.425  0.2480E+02  0.2670E+02  0.1282E+03  0.1279E+03
      0.484  0.1769E+02  0.1935E+02  0.1293E+03  0.1290E+03
      0.543  0.2757E+02  0.2714E+02  0.1309E+03  0.1306E+03
      0.602  0.3776E+02  0.3211E+02  0.1331E+03  0.1325E+03
      0.661  0.2387E+02  0.2980E+02  0.1345E+03  0.1342E+03
      0.720  0.3013E+02  0.2587E+02  0.1363E+03  0.1358E+03
      0.779  0.2801E+02  0.2962E+02  0.1379E+03  0.1375E+03
      0.837  0.2836E+02  0.2373E+02  0.1396E+03  0.1389E+03
      0.896  0.2546E+02  0.3068E+02  0.1411E+03  0.1407E+03
      0.955  0.2941E+02  0.2555E+02  0.1428E+03  0.1422E+03
      1.014  0.3938E+02  0.4354E+02  0.1452E+03  0.1448E+03
      1.073  0.2196E+02  0.2411E+02  0.1465E+03  0.1462E+03
      1.132  0.3610E+02  0.3049E+02  0.1486E+03  0.1480E+03
      1.191  0.1811E+02  0.2359E+02  0.1496E+03  0.1494E+03
      1.249  0.2489E+02  0.1942E+02  0.1511E+03  0.1505E+03
      1.308  0.1867E+02  0.2110E+02  0.1522E+03  0.1518E+03
      1.367  0.1576E+02  0.1667E+02  0.1531E+03  0.1527E+03
      1.426  0.2737E+02  0.2803E+02  0.1547E+03  0.1544E+03
      1.485  0.1855E+02  0.1936E+02  0.1558E+03  0.1555E+03
      1.544  0.2551E+02  0.2347E+02  0.1573E+03  0.1569E+03
      1.603  0.1880E+02  0.1843E+02  0.1584E+03  0.1580E+03
      1.661  0.1670E+02  0.1721E+02  0.1594E+03  0.1590E+03
      1.720  0.3003E+02  0.2583E+02  0.1612E+03  0.1605E+03
      1.779  0.2179E+02  0.2328E+02  0.1625E+03  0.1619E+03
      1.838  0.2704E+02  0.2749E+02  0.1641E+03  0.1635E+03
      1.897  0.1857E+02  0.1853E+02  0.1652E+03  0.1646E+03
      1.956  0.2339E+02  0.1963E+02  0.1665E+03  0.1658E+03
      2.015  0.2189E+02  0.2696E+02  0.1678E+03  0.1674E+03
      2.073  0.2637E+02  0.2343E+02  0.1694E+03  0.1687E+03
      2.132  0.2493E+02  0.2455E+02  0.1708E+03  0.1702E+03
      2.191  0.3307E+02  0.2995E+02  0.1728E+03  0.1719E+03
      2.250  0.1358E+02  0.2037E+02  0.1736E+03  0.1731E+03
      2.309  0.1889E+02  0.2104E+02  0.1747E+03  0.1744E+03
      2.368  0.1578E+02  0.1729E+02  0.1756E+03  0.1754E+03
      2.426  0.1423E+02  0.1489E+02  0.1765E+03  0.1763E+03
      2.485  0.1973E+02  0.1394E+02  0.1776E+03  0.1771E+03
      2.544  0.3111E+02  0.2261E+02  0.1795E+03  0.1784E+03
      2.603  0.2209E+02  0.2516E+02  0.1808E+03  0.1799E+03
      2.662  0.1978E+02  0.2289E+02  0.1819E+03  0.1813E+03
      2.721  0.1196E+02  0.1857E+02  0.1826E+03  0.1823E+03
      2.780  0.1116E+02  0.9418E+01  0.1833E+03  0.1829E+03
      2.838  0.1733E+02  0.1226E+02  0.1843E+03  0.1836E+03
      2.897  0.1357E+02  0.1974E+02  0.1851E+03  0.1848E+03
      2.956  0.7288E+01  0.9070E+01  0.1855E+03  0.1853E+03
      3.015  0.1113E+02  0.7793E+01  0.1862E+03  0.1858E+03
      3.074  0.1656E+02  0.1248E+02  0.1872E+03  0.1865E+03
      3.133  0.1538E+02  0.1815E+02  0.1881E+03  0.1876E+03
      3.192  0.2763E+02  0.2216E+02  0.1897E+03  0.1889E+03
      3.250  0.8028E+01  0.1859E+02  0.1902E+03  0.1900E+03
      3.309  0.1876E+02  0.1346E+02  0.1913E+03  0.1908E+03
      3.368  0.1712E+02  0.1251E+02  0.1923E+03  0.1915E+03
      3.427  0.1229E+02  0.1608E+02  0.1930E+03  0.1925E+03
      3.486  0.1129E+02  0.1285E+02  0.1937E+03  0.1932E+03
      3.545  0.1039E+02  0.1326E+02  0.1943E+03  0.1940E+03
      3.604  0.1746E+02  0.1069E+02  0.1953E+03  0.1946E+03
      3.662  0.1381E+02  0.1596E+02  0.1961E+03  0.1956E+03
      3.721  0.2240E+02  0.1338E+02  0.1974E+03  0.1963E+03
      3.780  0.1354E+02  0.2486E+02  0.1982E+03  0.1978E+03
      3.839  0.1407E+02  0.1639E+02  0.1991E+03  0.1988E+03
      3.898  0.7093E+01  0.9454E+01  0.1995E+03  0.1993E+03
      3.957  0.8501E+01  0.9771E+01  0.2000E+03  0.1999E+03
      4.016  0.2366E+02  0.1379E+02  0.2014E+03  0.2007E+03
      4.074  0.1326E+02  0.1886E+02  0.2022E+03  0.2018E+03
      4.133  0.1768E+02  0.1631E+02  0.2032E+03  0.2028E+03
      4.192  0.1603E+02  0.1558E+02  0.2041E+03  0.2037E+03
      4.251  0.1149E+02  0.1451E+02  0.2048E+03  0.2046E+03
      4.310  0.9113E+01  0.7064E+01  0.2054E+03  0.2050E+03
      4.369  0.1452E+02  0.1386E+02  0.2062E+03  0.2058E+03
      4.428  0.1766E+02  0.1791E+02  0.2072E+03  0.2068E+03
      4.486  0.6653E+01  0.1300E+02  0.2076E+03  0.2076E+03
      4.545  0.1664E+02  0.1105E+02  0.2086E+03  0.2083E+03
      4.604  0.1555E+02  0.1491E+02  0.2095E+03  0.2091E+03
      4.663  0.1916E+02  0.1702E+02  0.2107E+03  0.2101E+03
      4.722  0.1825E+02  0.2439E+02  0.2117E+03  0.2116E+03
      4.781  0.2311E+02  0.1946E+02  0.2131E+03  0.2127E+03
      4.840  0.9645E+01  0.1376E+02  0.2137E+03  0.2135E+03
      4.898  0.2616E+02  0.2163E+02  0.2152E+03  0.2148E+03
      4.957  0.2963E+02  0.2982E+02  0.2169E+03  0.2166E+03
      5.016  0.6934E+01  0.1132E+02  0.2174E+03  0.2172E+03
      5.075  0.1823E+02  0.1306E+02  0.2184E+03  0.2180E+03
      5.134  0.2093E+02  0.2178E+02  0.2197E+03  0.2193E+03
      5.193  0.2485E+02  0.2445E+02  0.2211E+03  0.2207E+03
      5.252  0.3294E+02  0.2993E+02  0.2231E+03  0.2225E+03
      5.310  0.2454E+02  0.2777E+02  0.2245E+03  0.2241E+03
      5.369  0.2131E+02  0.2303E+02  0.2258E+03  0.2255E+03
      5.428  0.2179E+02  0.2299E+02  0.2270E+03  0.2268E+03
      5.487  0.2060E+02  0.1707E+02  0.2283E+03  0.2278E+03
      5.546  0.2060E+02  0.2280E+02  0.2295E+03  0.2292E+03
      5.605  0.2266E+02  0.2194E+02  0.2308E+03  0.2305E+03
      5.664  0.1325E+02  0.1376E+02  0.2316E+03  0.2313E+03
      5.722  0.3315E+01  0.6837E+01  0.2318E+03  0.2317E+03
      5.781  0.1734E+01  0.1944E+01  0.2319E+03  0.2318E+03
      5.840  0.2052E+01  0.3660E+01  0.2320E+03  0.2320E+03
      5.899  0.0000E+00  0.0000E+00  0.2320E+03  0.2320E+03
      5.958  0.0000E+00  0.0000E+00  0.2320E+03  0.2320E+03
      6.017  0.0000E+00  0.0000E+00  0.2320E+03  0.2320E+03
      6.076  0.0000E+00  0.0000E+00  0.2320E+03  0.2320E+03
      6.134  0.0000E+00  0.0000E+00  0.2320E+03  0.2320E+03
      6.193  0.0000E+00  0.0000E+00  0.2320E+03  0.2320E+03
      6.252  0.0000E+00  0.0000E+00  0.2320E+03  0.2320E+03
      6.311  0.0000E+00  0.0000E+00  0.2320E+03  0.2320E+03
      6.370  0.0000E+00  0.0000E+00  0.2320E+03  0.2320E+03
      6.429  0.0000E+00  0.0000E+00  0.2320E+03  0.2320E+03
      6.488  0.0000E+00  0.0000E+00  0.2320E+03  0.2320E+03
      6.546  0.0000E+00  0.0000E+00  0.2320E+03  0.2320E+03
      6.605  0.0000E+00  0.0000E+00  0.2320E+03  0.2320E+03
