       N       E                     dE             d eps       ncg     rms          rms(c)
DAV:   1     0.196715409846E+04    0.19672E+04   -0.21441E+05 13824   0.173E+03
DAV:   2    -0.364057132895E+03   -0.23312E+04   -0.22484E+04 16184   0.215E+02
DAV:   3    -0.580848869905E+03   -0.21679E+03   -0.21065E+03 17056   0.572E+01
DAV:   4    -0.588678644885E+03   -0.78298E+01   -0.77036E+01 16328   0.117E+01
DAV:   5    -0.588978757198E+03   -0.30011E+00   -0.29831E+00 18192   0.223E+00    0.322E+01
DAV:   6    -0.579348291139E+03    0.96305E+01   -0.17296E+01 16736   0.908E+00    0.146E+01
DAV:   7    -0.579324168385E+03    0.24123E-01   -0.16929E+01 16888   0.902E+00    0.672E+00
DAV:   8    -0.578480397304E+03    0.84377E+00   -0.45912E+00 16776   0.517E+00    0.158E+00
DAV:   9    -0.578527832334E+03   -0.47435E-01   -0.13748E+00 16400   0.169E+00    0.115E+00
DAV:  10    -0.578517163160E+03    0.10669E-01   -0.14357E-01 16136   0.647E-01    0.694E-01
DAV:  11    -0.578515616075E+03    0.15471E-02   -0.36998E-02 15656   0.304E-01    0.419E-01
DAV:  12    -0.578517227336E+03   -0.16113E-02   -0.59662E-03 15728   0.127E-01    0.231E-01
DAV:  13    -0.578516884979E+03    0.34236E-03   -0.20324E-03 15912   0.793E-02    0.955E-02
DAV:  14    -0.578516948703E+03   -0.63724E-04   -0.86127E-04 15376   0.527E-02    0.750E-02
DAV:  15    -0.578516991793E+03   -0.43090E-04   -0.15646E-04 15616   0.235E-02    0.503E-02
DAV:  16    -0.578516986419E+03    0.53741E-05   -0.52633E-05 16064   0.129E-02    0.229E-02
DAV:  17    -0.578516990492E+03   -0.40728E-05   -0.28106E-05 17160   0.852E-03    0.156E-02
DAV:  18    -0.578516992970E+03   -0.24785E-05   -0.55414E-06 15600   0.424E-03    0.121E-02
DAV:  19    -0.578516995751E+03   -0.27807E-05   -0.26987E-06 16024   0.270E-03    0.552E-03
DAV:  20    -0.578516997703E+03   -0.19518E-05   -0.13665E-06 16320   0.193E-03    0.326E-03
DAV:  21    -0.578516998133E+03   -0.43019E-06   -0.16876E-07  9048   0.860E-04    0.227E-03
DAV:  22    -0.578516998629E+03   -0.49621E-06   -0.33435E-07 12040   0.962E-04    0.197E-03
DAV:  23    -0.578516998425E+03    0.20460E-06   -0.12634E-07  8992   0.770E-04    0.163E-03
DAV:  24    -0.578516998137E+03    0.28789E-06   -0.50507E-08  8056   0.452E-04    0.881E-04
DAV:  25    -0.578516998048E+03    0.88596E-07   -0.39842E-08  8064   0.346E-04
   1 F= -.57851700E+03 E0= -.57851597E+03  d E =-.205476E-02  mag=     1.0000
