Si Bulk DFT energetics calculations using VASP\n
This script is running on comp050.cluster.local in /lustre/home/ah1365/projects/127870/upgrade_report/case_studies/common/structures/interfaces/48_Ge48_001_122_a0.325397_b0.238095_c1.091038_interface6shift2\n
Job started on: Tue  3 Jun 23:06:56 UTC 2025\n
 running   64 mpi-ranks, on    4 nodes
 distrk:  each k-point on   64 cores,    1 groups
 distr:  one band on   16 cores,    4 groups
 vasp.6.4.3 19Mar24 (build Oct 22 2024 11:23:12) complex                        
  
 POSCAR found type information on POSCAR Ge
 POSCAR found :  1 types and      48 ions
 -----------------------------------------------------------------------------
|                                                                             |
|           W    W    AA    RRRRR   N    N  II  N    N   GGGG   !!!           |
|           W    W   A  A   R    R  NN   N  II  NN   N  G    G  !!!           |
|           W    W  A    A  R    R  N N  N  II  N N  N  G       !!!           |
|           W WW W  AAAAAA  RRRRR   N  N N  II  N  N N  G  GGG   !            |
|           WW  WW  A    A  R   R   N   NN  II  N   NN  G    G                |
|           W    W  A    A  R    R  N    N  II  N    N   GGGG   !!!           |
|                                                                             |
|     You use a magnetic or noncollinear calculation, but did not specify     |
|     the initial magnetic moment with the MAGMOM tag. Note that a            |
|     default of 0.021 will be used for all atoms. This ferromagnetic         |
|     setup may break the symmetry of the crystal, in particular it may       |
|     rule out finding an antiferromagnetic solution. Thence, we              |
|     recommend setting the initial magnetic moment manually or verifying     |
|     carefully that this magnetic setup is desired.                          |
|                                                                             |
 -----------------------------------------------------------------------------

 scaLAPACK will be used
 LDA part: xc-table for (Slater+PW92), standard interpolation
 POSCAR, INCAR and KPOINTS ok, starting setup
 FFT: planning ... GRIDC
 FFT: planning ... GRID_SOFT
 FFT: planning ... GRID
 WAVECAR not read
 entering main loop
       N       E                     dE             d eps       ncg     rms          rms(c)
DAV:   1     0.975547797458E+03    0.97555E+03   -0.83984E+04 12064   0.171E+03
DAV:   2    -0.750417978788E+02   -0.10506E+04   -0.10163E+04 14056   0.209E+02
DAV:   3    -0.183016379410E+03   -0.10797E+03   -0.10410E+03 14840   0.635E+01
DAV:   4    -0.187283873578E+03   -0.42675E+01   -0.41611E+01 14552   0.121E+01
DAV:   5    -0.187441041864E+03   -0.15717E+00   -0.15611E+00 15400   0.204E+00    0.147E+01
DAV:   6    -0.184988868622E+03    0.24522E+01   -0.63836E+00 14368   0.532E+00    0.693E+00
DAV:   7    -0.184918209730E+03    0.70659E-01   -0.34420E+00 14576   0.501E+00    0.309E+00
DAV:   8    -0.184616770551E+03    0.30144E+00   -0.13044E+00 14672   0.305E+00    0.905E-01
DAV:   9    -0.184620102219E+03   -0.33317E-02   -0.21522E-01 14008   0.114E+00    0.497E-01
DAV:  10    -0.184623331025E+03   -0.32288E-02   -0.39263E-02 13840   0.442E-01    0.219E-01
DAV:  11    -0.184623707775E+03   -0.37675E-03   -0.59859E-03 14768   0.190E-01    0.105E-01
DAV:  12    -0.184623988014E+03   -0.28024E-03   -0.20436E-03 13544   0.118E-01    0.679E-02
DAV:  13    -0.184624119165E+03   -0.13115E-03   -0.24747E-04 13968   0.453E-02    0.212E-02
DAV:  14    -0.184624127629E+03   -0.84636E-05   -0.53465E-05 14040   0.213E-02    0.115E-02
DAV:  15    -0.184624134345E+03   -0.67158E-05   -0.17729E-05 13816   0.107E-02    0.515E-03
DAV:  16    -0.184624135616E+03   -0.12719E-05   -0.31161E-06 14184   0.518E-03    0.232E-03
DAV:  17    -0.184624135693E+03   -0.76525E-07   -0.64403E-07 13752   0.217E-03
   1 F= -.18462414E+03 E0= -.18462368E+03  d E =-.904041E-03  mag=     1.0000
Job ended on: Tue  3 Jun 23:14:00 UTC 2025\n
