  48  48   0   0
  0.2323126E+02  0.1265123E-08  0.1265123E-08  0.1161174E-08  0.5000000E-15
  1.000000000000000E-004
  CAR 
 Si and Ge interface calculation         
      6.66294148    -12.14176461  301      3.46267561      1.00000000
    -12.142  0.0000E+00  0.0000E+00  0.0000E+00  0.0000E+00
    -12.079  0.0000E+00  0.0000E+00  0.0000E+00  0.0000E+00
    -12.016  0.0000E+00  0.0000E+00  0.0000E+00  0.0000E+00
    -11.954  0.0000E+00  0.0000E+00  0.0000E+00  0.0000E+00
    -11.891  0.0000E+00  0.0000E+00  0.0000E+00  0.0000E+00
    -11.828  0.0000E+00  0.0000E+00  0.0000E+00  0.0000E+00
    -11.766  0.0000E+00  0.0000E+00  0.0000E+00  0.0000E+00
    -11.703  0.0000E+00  0.0000E+00  0.0000E+00  0.0000E+00
    -11.640  0.0000E+00  0.0000E+00  0.0000E+00  0.0000E+00
    -11.578  0.0000E+00  0.0000E+00  0.0000E+00  0.0000E+00
    -11.515  0.0000E+00  0.0000E+00  0.0000E+00  0.0000E+00
    -11.452  0.0000E+00  0.0000E+00  0.0000E+00  0.0000E+00
    -11.390  0.0000E+00  0.0000E+00  0.0000E+00  0.0000E+00
    -11.327  0.3830E-07  0.3384E-13  0.2401E-08  0.2121E-14
    -11.264  0.7969E+01  0.6883E+01  0.4995E+00  0.4314E+00
    -11.202  0.1162E+01  0.1098E+01  0.5729E+00  0.5002E+00
    -11.139  0.1479E+02  0.1595E+02  0.1500E+01  0.1500E+01
    -11.076  0.0000E+00  0.0000E+00  0.1500E+01  0.1500E+01
    -11.013  0.0000E+00  0.0000E+00  0.1500E+01  0.1500E+01
    -10.951  0.1409E+00  0.7569E-04  0.1509E+01  0.1500E+01
    -10.888  0.1581E+02  0.1595E+02  0.2500E+01  0.2500E+01
    -10.825  0.0000E+00  0.0000E+00  0.2500E+01  0.2500E+01
    -10.763  0.0000E+00  0.0000E+00  0.2500E+01  0.2500E+01
    -10.700  0.0000E+00  0.0000E+00  0.2500E+01  0.2500E+01
    -10.637  0.1253E+00  0.5129E-04  0.2508E+01  0.2500E+01
    -10.575  0.1583E+02  0.1595E+02  0.3500E+01  0.3500E+01
    -10.512  0.1069E-09  0.0000E+00  0.3500E+01  0.3500E+01
    -10.449  0.7866E+01  0.4236E+01  0.3993E+01  0.3766E+01
    -10.387  0.1110E+00  0.3741E+01  0.4000E+01  0.4000E+01
    -10.324  0.0000E+00  0.0000E+00  0.4000E+01  0.4000E+01
    -10.261  0.0000E+00  0.0000E+00  0.4000E+01  0.4000E+01
    -10.199  0.0000E+00  0.0000E+00  0.4000E+01  0.4000E+01
    -10.136  0.0000E+00  0.0000E+00  0.4000E+01  0.4000E+01
    -10.073  0.0000E+00  0.0000E+00  0.4000E+01  0.4000E+01
    -10.011  0.0000E+00  0.0000E+00  0.4000E+01  0.4000E+01
     -9.948  0.0000E+00  0.0000E+00  0.4000E+01  0.4000E+01
     -9.885  0.1187E+01  0.1627E-11  0.4074E+01  0.4000E+01
     -9.823  0.6790E+01  0.6973E+01  0.4500E+01  0.4437E+01
     -9.760  0.3678E+00  0.1004E+01  0.4523E+01  0.4500E+01
     -9.697  0.1559E+02  0.9597E+01  0.5500E+01  0.5102E+01
     -9.634  0.0000E+00  0.6357E+01  0.5500E+01  0.5500E+01
     -9.572  0.0000E+00  0.0000E+00  0.5500E+01  0.5500E+01
     -9.509  0.0000E+00  0.0000E+00  0.5500E+01  0.5500E+01
     -9.446  0.0000E+00  0.0000E+00  0.5500E+01  0.5500E+01
     -9.384  0.2149E-02  0.0000E+00  0.5500E+01  0.5500E+01
     -9.321  0.1595E+02  0.1973E+01  0.6500E+01  0.5624E+01
     -9.258  0.0000E+00  0.1398E+02  0.6500E+01  0.6500E+01
     -9.196  0.0000E+00  0.0000E+00  0.6500E+01  0.6500E+01
     -9.133  0.0000E+00  0.0000E+00  0.6500E+01  0.6500E+01
     -9.070  0.0000E+00  0.0000E+00  0.6500E+01  0.6500E+01
     -9.008  0.0000E+00  0.0000E+00  0.6500E+01  0.6500E+01
     -8.945  0.0000E+00  0.0000E+00  0.6500E+01  0.6500E+01
     -8.882  0.0000E+00  0.0000E+00  0.6500E+01  0.6500E+01
     -8.820  0.1583E-01  0.3083E-04  0.6501E+01  0.6500E+01
     -8.757  0.1775E+02  0.3720E+01  0.7614E+01  0.6733E+01
     -8.694  0.6295E+01  0.2021E+02  0.8008E+01  0.8000E+01
     -8.632  0.1129E+02  0.1053E+02  0.8716E+01  0.8660E+01
     -8.569  0.1173E+02  0.1078E+02  0.9451E+01  0.9337E+01
     -8.506  0.3338E+01  0.4038E+01  0.9660E+01  0.9590E+01
     -8.444  0.8097E+01  0.9165E+01  0.1017E+02  0.1016E+02
     -8.381  0.5794E+01  0.4282E+01  0.1053E+02  0.1043E+02
     -8.318  0.9036E+01  0.4183E+01  0.1110E+02  0.1070E+02
     -8.255  0.1763E+02  0.2201E+02  0.1220E+02  0.1207E+02
     -8.193  0.1025E+02  0.7644E+01  0.1285E+02  0.1255E+02
     -8.130  0.8544E+01  0.1153E+02  0.1338E+02  0.1328E+02
     -8.067  0.8436E+01  0.9536E+01  0.1391E+02  0.1388E+02
     -8.005  0.5009E+01  0.4130E+01  0.1422E+02  0.1413E+02
     -7.942  0.5830E+01  0.6300E+01  0.1459E+02  0.1453E+02
     -7.879  0.2754E+01  0.2891E+01  0.1476E+02  0.1471E+02
     -7.817  0.4551E+01  0.2782E+01  0.1505E+02  0.1489E+02
     -7.754  0.1845E+02  0.1582E+02  0.1620E+02  0.1588E+02
     -7.691  0.1778E+02  0.1916E+02  0.1732E+02  0.1708E+02
     -7.629  0.1126E+02  0.1308E+02  0.1802E+02  0.1790E+02
     -7.566  0.1130E+02  0.1176E+02  0.1873E+02  0.1864E+02
     -7.503  0.6264E+01  0.7654E+01  0.1913E+02  0.1912E+02
     -7.441  0.1597E+02  0.1232E+02  0.2013E+02  0.1989E+02
     -7.378  0.1399E+02  0.1463E+02  0.2100E+02  0.2081E+02
     -7.315  0.1740E+02  0.1685E+02  0.2210E+02  0.2186E+02
     -7.253  0.1141E+02  0.1320E+02  0.2281E+02  0.2269E+02
     -7.190  0.1545E+02  0.1504E+02  0.2378E+02  0.2363E+02
     -7.127  0.1601E+02  0.1316E+02  0.2479E+02  0.2446E+02
     -7.064  0.1488E+02  0.1603E+02  0.2572E+02  0.2546E+02
     -7.002  0.1322E+02  0.1074E+02  0.2655E+02  0.2614E+02
     -6.939  0.2141E+02  0.2226E+02  0.2789E+02  0.2753E+02
     -6.876  0.1582E+02  0.1710E+02  0.2888E+02  0.2860E+02
     -6.814  0.1772E+02  0.1874E+02  0.2999E+02  0.2978E+02
     -6.751  0.1478E+02  0.1401E+02  0.3092E+02  0.3066E+02
     -6.688  0.8448E+01  0.1091E+02  0.3145E+02  0.3134E+02
     -6.626  0.1275E+02  0.1013E+02  0.3225E+02  0.3198E+02
     -6.563  0.5987E+01  0.5868E+01  0.3262E+02  0.3234E+02
     -6.500  0.1425E+02  0.1664E+02  0.3352E+02  0.3339E+02
     -6.438  0.1171E+02  0.1280E+02  0.3425E+02  0.3419E+02
     -6.375  0.7380E+01  0.4638E+01  0.3471E+02  0.3448E+02
     -6.312  0.8581E+01  0.1220E+02  0.3525E+02  0.3525E+02
     -6.250  0.6072E+01  0.5820E+01  0.3563E+02  0.3561E+02
     -6.187  0.1261E+02  0.6030E+01  0.3642E+02  0.3599E+02
     -6.124  0.3502E+02  0.3692E+02  0.3862E+02  0.3830E+02
     -6.062  0.1343E+02  0.1809E+02  0.3946E+02  0.3944E+02
     -5.999  0.1815E+02  0.1469E+02  0.4060E+02  0.4036E+02
     -5.936  0.1183E+02  0.1233E+02  0.4134E+02  0.4113E+02
     -5.874  0.2096E+02  0.2067E+02  0.4265E+02  0.4243E+02
     -5.811  0.5359E+01  0.7888E+01  0.4299E+02  0.4292E+02
     -5.748  0.7537E+01  0.4972E+01  0.4346E+02  0.4324E+02
     -5.685  0.4162E+01  0.5647E+01  0.4372E+02  0.4359E+02
     -5.623  0.9263E+01  0.7498E+01  0.4431E+02  0.4406E+02
     -5.560  0.1353E+02  0.1434E+02  0.4515E+02  0.4496E+02
     -5.497  0.9580E+01  0.1209E+02  0.4575E+02  0.4572E+02
     -5.435  0.6377E+01  0.4273E+01  0.4615E+02  0.4599E+02
     -5.372  0.1835E+02  0.1686E+02  0.4730E+02  0.4704E+02
     -5.309  0.1429E+02  0.1227E+02  0.4820E+02  0.4781E+02
     -5.247  0.1134E+02  0.1436E+02  0.4891E+02  0.4871E+02
     -5.184  0.1008E+02  0.1081E+02  0.4954E+02  0.4939E+02
     -5.121  0.6993E+01  0.8894E+01  0.4998E+02  0.4995E+02
     -5.059  0.1394E+02  0.1111E+02  0.5086E+02  0.5065E+02
     -4.996  0.1536E+02  0.1252E+02  0.5182E+02  0.5143E+02
     -4.933  0.1562E+02  0.1366E+02  0.5280E+02  0.5229E+02
     -4.871  0.1786E+02  0.2010E+02  0.5392E+02  0.5355E+02
     -4.808  0.1652E+02  0.1618E+02  0.5495E+02  0.5456E+02
     -4.745  0.1348E+02  0.1645E+02  0.5580E+02  0.5559E+02
     -4.683  0.1485E+02  0.1633E+02  0.5673E+02  0.5662E+02
     -4.620  0.7146E+01  0.6998E+01  0.5718E+02  0.5706E+02
     -4.557  0.1030E+02  0.5786E+01  0.5782E+02  0.5742E+02
     -4.495  0.2035E+02  0.1720E+02  0.5910E+02  0.5850E+02
     -4.432  0.1741E+02  0.2035E+02  0.6019E+02  0.5977E+02
     -4.369  0.1743E+01  0.8265E+01  0.6030E+02  0.6029E+02
     -4.306  0.1418E+02  0.1215E+02  0.6119E+02  0.6105E+02
     -4.244  0.1622E+02  0.1578E+02  0.6221E+02  0.6204E+02
     -4.181  0.5290E+01  0.7259E+01  0.6254E+02  0.6250E+02
     -4.118  0.1875E+02  0.1380E+02  0.6371E+02  0.6336E+02
     -4.056  0.1931E+02  0.2114E+02  0.6493E+02  0.6469E+02
     -3.993  0.9841E+01  0.1170E+02  0.6554E+02  0.6542E+02
     -3.930  0.5866E+01  0.4795E+01  0.6591E+02  0.6572E+02
     -3.868  0.2349E+02  0.2146E+02  0.6738E+02  0.6707E+02
     -3.805  0.1712E+02  0.1947E+02  0.6846E+02  0.6829E+02
     -3.742  0.8647E+01  0.7644E+01  0.6900E+02  0.6877E+02
     -3.680  0.1786E+02  0.1756E+02  0.7012E+02  0.6987E+02
     -3.617  0.1828E+02  0.1573E+02  0.7127E+02  0.7086E+02
     -3.554  0.2455E+02  0.2411E+02  0.7281E+02  0.7237E+02
     -3.492  0.3402E+01  0.7939E+01  0.7302E+02  0.7286E+02
     -3.429  0.1496E+02  0.1737E+02  0.7396E+02  0.7395E+02
     -3.366  0.1114E+02  0.1037E+02  0.7466E+02  0.7460E+02
     -3.304  0.1008E+02  0.9904E+01  0.7529E+02  0.7523E+02
     -3.241  0.9483E+01  0.9140E+01  0.7588E+02  0.7580E+02
     -3.178  0.9971E+01  0.6984E+01  0.7651E+02  0.7624E+02
     -3.116  0.1047E+02  0.1288E+02  0.7717E+02  0.7705E+02
     -3.053  0.1101E+02  0.1097E+02  0.7786E+02  0.7773E+02
     -2.990  0.1022E+02  0.6860E+01  0.7850E+02  0.7816E+02
     -2.927  0.4765E+01  0.8809E+01  0.7879E+02  0.7872E+02
     -2.865  0.1107E+02  0.1052E+02  0.7949E+02  0.7938E+02
     -2.802  0.1332E+02  0.1200E+02  0.8032E+02  0.8013E+02
     -2.739  0.1150E+02  0.1005E+02  0.8104E+02  0.8076E+02
     -2.677  0.1311E+02  0.1447E+02  0.8187E+02  0.8167E+02
     -2.614  0.1186E+02  0.1184E+02  0.8261E+02  0.8241E+02
     -2.551  0.1350E+02  0.1595E+02  0.8346E+02  0.8341E+02
     -2.489  0.6059E+01  0.6217E+01  0.8384E+02  0.8380E+02
     -2.426  0.9804E+01  0.5813E+01  0.8445E+02  0.8416E+02
     -2.363  0.1344E+02  0.1424E+02  0.8529E+02  0.8506E+02
     -2.301  0.8019E+01  0.9463E+01  0.8580E+02  0.8565E+02
     -2.238  0.1152E+02  0.9571E+01  0.8652E+02  0.8625E+02
     -2.175  0.1032E+02  0.1399E+02  0.8717E+02  0.8713E+02
     -2.113  0.9343E+01  0.8960E+01  0.8775E+02  0.8769E+02
     -2.050  0.3532E+01  0.2044E+01  0.8797E+02  0.8782E+02
     -1.987  0.1376E+02  0.1117E+02  0.8884E+02  0.8852E+02
     -1.925  0.1297E+02  0.1114E+02  0.8965E+02  0.8922E+02
     -1.862  0.8935E+01  0.1490E+02  0.9021E+02  0.9015E+02
     -1.799  0.4624E+01  0.5580E+01  0.9050E+02  0.9050E+02
     -1.736  0.7683E+01  0.3216E+01  0.9098E+02  0.9070E+02
     -1.674  0.7043E+01  0.8915E+01  0.9142E+02  0.9126E+02
     -1.611  0.1769E+02  0.1347E+02  0.9253E+02  0.9210E+02
     -1.548  0.1802E+02  0.2068E+02  0.9366E+02  0.9340E+02
     -1.486  0.4031E+01  0.8217E+01  0.9392E+02  0.9392E+02
     -1.423  0.5114E+01  0.1311E+01  0.9424E+02  0.9400E+02
     -1.360  0.1558E+02  0.1476E+02  0.9521E+02  0.9492E+02
     -1.298  0.6454E+01  0.1047E+02  0.9562E+02  0.9558E+02
     -1.235  0.7197E+01  0.6098E+01  0.9607E+02  0.9596E+02
     -1.172  0.6952E+01  0.6667E+01  0.9651E+02  0.9638E+02
     -1.110  0.9012E+01  0.7914E+01  0.9707E+02  0.9688E+02
     -1.047  0.8393E+01  0.1004E+02  0.9760E+02  0.9751E+02
     -0.984  0.1740E+02  0.1145E+02  0.9869E+02  0.9822E+02
     -0.922  0.1769E+02  0.2155E+02  0.9980E+02  0.9958E+02
     -0.859  0.4980E+01  0.6877E+01  0.1001E+03  0.1000E+03
     -0.796  0.8556E+01  0.6253E+01  0.1006E+03  0.1004E+03
     -0.734  0.1073E+02  0.1105E+02  0.1013E+03  0.1011E+03
     -0.671  0.1858E+02  0.1279E+02  0.1025E+03  0.1019E+03
     -0.608  0.2314E+02  0.2438E+02  0.1039E+03  0.1034E+03
     -0.546  0.1314E+02  0.1500E+02  0.1048E+03  0.1044E+03
     -0.483  0.1555E+02  0.1800E+02  0.1057E+03  0.1055E+03
     -0.420  0.3681E+02  0.3015E+02  0.1080E+03  0.1074E+03
     -0.357  0.3017E+02  0.3323E+02  0.1099E+03  0.1095E+03
     -0.295  0.1851E+02  0.2127E+02  0.1111E+03  0.1108E+03
     -0.232  0.1481E+02  0.1358E+02  0.1120E+03  0.1116E+03
     -0.169  0.3529E+02  0.3230E+02  0.1142E+03  0.1137E+03
     -0.107  0.2489E+02  0.2522E+02  0.1158E+03  0.1153E+03
     -0.044  0.2375E+02  0.2520E+02  0.1173E+03  0.1168E+03
      0.019  0.2183E+02  0.2357E+02  0.1187E+03  0.1183E+03
      0.081  0.2286E+02  0.2476E+02  0.1201E+03  0.1199E+03
      0.144  0.2210E+02  0.1848E+02  0.1215E+03  0.1210E+03
      0.207  0.2831E+02  0.3027E+02  0.1232E+03  0.1229E+03
      0.269  0.3481E+02  0.3039E+02  0.1254E+03  0.1248E+03
      0.332  0.1798E+02  0.2499E+02  0.1266E+03  0.1264E+03
      0.395  0.2240E+02  0.1839E+02  0.1280E+03  0.1275E+03
      0.457  0.3495E+02  0.3845E+02  0.1301E+03  0.1300E+03
      0.520  0.2747E+02  0.2494E+02  0.1319E+03  0.1315E+03
      0.583  0.2992E+02  0.2855E+02  0.1337E+03  0.1333E+03
      0.645  0.1978E+02  0.2252E+02  0.1350E+03  0.1347E+03
      0.708  0.2142E+02  0.1886E+02  0.1363E+03  0.1359E+03
      0.771  0.2202E+02  0.2149E+02  0.1377E+03  0.1373E+03
      0.833  0.2211E+02  0.2382E+02  0.1391E+03  0.1387E+03
      0.896  0.2236E+02  0.2011E+02  0.1405E+03  0.1400E+03
      0.959  0.2142E+02  0.2396E+02  0.1418E+03  0.1415E+03
      1.022  0.3006E+02  0.2940E+02  0.1437E+03  0.1434E+03
      1.084  0.3195E+02  0.3125E+02  0.1457E+03  0.1453E+03
      1.147  0.1322E+02  0.1143E+02  0.1466E+03  0.1460E+03
      1.210  0.3972E+02  0.4237E+02  0.1490E+03  0.1487E+03
      1.272  0.1972E+02  0.1731E+02  0.1503E+03  0.1498E+03
      1.335  0.3034E+02  0.3533E+02  0.1522E+03  0.1520E+03
      1.398  0.2552E+02  0.2015E+02  0.1538E+03  0.1533E+03
      1.460  0.2796E+02  0.3155E+02  0.1555E+03  0.1552E+03
      1.523  0.2771E+02  0.2576E+02  0.1573E+03  0.1568E+03
      1.586  0.1883E+02  0.2246E+02  0.1585E+03  0.1583E+03
      1.648  0.2388E+02  0.2423E+02  0.1600E+03  0.1598E+03
      1.711  0.2111E+02  0.1799E+02  0.1613E+03  0.1609E+03
      1.774  0.2779E+02  0.2583E+02  0.1630E+03  0.1625E+03
      1.836  0.2264E+02  0.2579E+02  0.1644E+03  0.1641E+03
      1.899  0.1585E+02  0.1924E+02  0.1654E+03  0.1653E+03
      1.962  0.1819E+02  0.1657E+02  0.1666E+03  0.1664E+03
      2.024  0.1626E+02  0.1464E+02  0.1676E+03  0.1673E+03
      2.087  0.1684E+02  0.2009E+02  0.1686E+03  0.1686E+03
      2.150  0.2199E+02  0.1641E+02  0.1700E+03  0.1696E+03
      2.212  0.2005E+02  0.1703E+02  0.1713E+03  0.1707E+03
      2.275  0.2454E+02  0.2896E+02  0.1728E+03  0.1725E+03
      2.338  0.1745E+02  0.1676E+02  0.1739E+03  0.1735E+03
      2.401  0.9753E+01  0.1388E+02  0.1745E+03  0.1744E+03
      2.463  0.2023E+02  0.1621E+02  0.1758E+03  0.1754E+03
      2.526  0.1919E+02  0.1684E+02  0.1770E+03  0.1765E+03
      2.589  0.2229E+02  0.2099E+02  0.1784E+03  0.1778E+03
      2.651  0.7276E+01  0.1155E+02  0.1789E+03  0.1785E+03
      2.714  0.1853E+02  0.1596E+02  0.1800E+03  0.1795E+03
      2.777  0.1661E+02  0.1551E+02  0.1811E+03  0.1805E+03
      2.839  0.1364E+02  0.1340E+02  0.1819E+03  0.1813E+03
      2.902  0.2286E+02  0.1760E+02  0.1833E+03  0.1824E+03
      2.965  0.1499E+02  0.2103E+02  0.1843E+03  0.1837E+03
      3.027  0.1511E+02  0.1875E+02  0.1852E+03  0.1849E+03
      3.090  0.1457E+02  0.8913E+01  0.1861E+03  0.1855E+03
      3.153  0.1551E+02  0.1486E+02  0.1871E+03  0.1864E+03
      3.215  0.1594E+02  0.2226E+02  0.1881E+03  0.1878E+03
      3.278  0.1466E+02  0.1363E+02  0.1890E+03  0.1887E+03
      3.341  0.1400E+02  0.1170E+02  0.1899E+03  0.1894E+03
      3.403  0.1088E+02  0.1076E+02  0.1906E+03  0.1901E+03
      3.466  0.1700E+02  0.1565E+02  0.1917E+03  0.1911E+03
      3.529  0.1959E+02  0.1202E+02  0.1929E+03  0.1918E+03
      3.592  0.1697E+02  0.2309E+02  0.1940E+03  0.1933E+03
      3.654  0.9982E+01  0.1449E+02  0.1946E+03  0.1942E+03
      3.717  0.2439E+02  0.1801E+02  0.1961E+03  0.1953E+03
      3.780  0.1685E+02  0.2038E+02  0.1972E+03  0.1966E+03
      3.842  0.6331E+01  0.1161E+02  0.1976E+03  0.1973E+03
      3.905  0.2357E+02  0.1320E+02  0.1990E+03  0.1981E+03
      3.968  0.1712E+02  0.2215E+02  0.2001E+03  0.1995E+03
      4.030  0.1684E+02  0.2077E+02  0.2012E+03  0.2008E+03
      4.093  0.2513E+02  0.2234E+02  0.2027E+03  0.2022E+03
      4.156  0.1202E+02  0.1777E+02  0.2035E+03  0.2033E+03
      4.218  0.1289E+02  0.9711E+01  0.2043E+03  0.2039E+03
      4.281  0.1934E+02  0.1452E+02  0.2055E+03  0.2048E+03
      4.344  0.3396E+02  0.3491E+02  0.2077E+03  0.2070E+03
      4.406  0.1438E+02  0.2037E+02  0.2086E+03  0.2083E+03
      4.469  0.1064E+02  0.1023E+02  0.2092E+03  0.2090E+03
      4.532  0.1465E+02  0.1625E+02  0.2101E+03  0.2100E+03
      4.594  0.3154E+02  0.2695E+02  0.2121E+03  0.2117E+03
      4.657  0.2466E+02  0.1798E+02  0.2137E+03  0.2128E+03
      4.720  0.1922E+02  0.2397E+02  0.2149E+03  0.2143E+03
      4.782  0.2430E+02  0.2184E+02  0.2164E+03  0.2157E+03
      4.845  0.2441E+02  0.2693E+02  0.2179E+03  0.2174E+03
      4.908  0.1715E+02  0.2463E+02  0.2190E+03  0.2189E+03
      4.971  0.1473E+02  0.5926E+01  0.2199E+03  0.2193E+03
      5.033  0.1914E+02  0.2646E+02  0.2211E+03  0.2209E+03
      5.096  0.2641E+02  0.1951E+02  0.2228E+03  0.2222E+03
      5.159  0.2315E+02  0.2177E+02  0.2242E+03  0.2235E+03
      5.221  0.2755E+02  0.3027E+02  0.2260E+03  0.2254E+03
      5.284  0.2821E+02  0.2384E+02  0.2277E+03  0.2269E+03
      5.347  0.1271E+02  0.2318E+02  0.2285E+03  0.2284E+03
      5.409  0.1396E+02  0.1066E+02  0.2294E+03  0.2290E+03
      5.472  0.1135E+02  0.1532E+02  0.2301E+03  0.2300E+03
      5.535  0.1426E+02  0.1387E+02  0.2310E+03  0.2309E+03
      5.597  0.9051E+01  0.8805E+01  0.2316E+03  0.2314E+03
      5.660  0.4233E+01  0.5653E+01  0.2318E+03  0.2318E+03
      5.723  0.0000E+00  0.1103E+01  0.2318E+03  0.2318E+03
      5.785  0.1101E+00  0.3868E-02  0.2318E+03  0.2318E+03
      5.848  0.2549E+01  0.2655E+01  0.2320E+03  0.2320E+03
      5.911  0.0000E+00  0.0000E+00  0.2320E+03  0.2320E+03
      5.973  0.0000E+00  0.0000E+00  0.2320E+03  0.2320E+03
      6.036  0.0000E+00  0.0000E+00  0.2320E+03  0.2320E+03
      6.099  0.0000E+00  0.0000E+00  0.2320E+03  0.2320E+03
      6.161  0.0000E+00  0.0000E+00  0.2320E+03  0.2320E+03
      6.224  0.0000E+00  0.0000E+00  0.2320E+03  0.2320E+03
      6.287  0.0000E+00  0.0000E+00  0.2320E+03  0.2320E+03
      6.350  0.0000E+00  0.0000E+00  0.2320E+03  0.2320E+03
      6.412  0.0000E+00  0.0000E+00  0.2320E+03  0.2320E+03
      6.475  0.0000E+00  0.0000E+00  0.2320E+03  0.2320E+03
      6.538  0.0000E+00  0.0000E+00  0.2320E+03  0.2320E+03
      6.600  0.0000E+00  0.0000E+00  0.2320E+03  0.2320E+03
      6.663  0.0000E+00  0.0000E+00  0.2320E+03  0.2320E+03
