       N       E                     dE             d eps       ncg     rms          rms(c)
DAV:   1     0.129562216949E+04    0.12956E+04   -0.88528E+04 12064   0.176E+03
DAV:   2     0.149254041684E+03   -0.11464E+04   -0.11089E+04 14100   0.227E+02
DAV:   3     0.314620707424E+02   -0.11779E+03   -0.11326E+03 15024   0.680E+01
DAV:   4     0.267770700003E+02   -0.46850E+01   -0.45520E+01 14480   0.130E+01
DAV:   5     0.266090407187E+02   -0.16803E+00   -0.16628E+00 15128   0.216E+00    0.252E+01
DAV:   6     0.366219824227E+02    0.10013E+02   -0.34895E+01 14100   0.150E+01    0.124E+01
DAV:   7     0.378974170279E+02    0.12754E+01   -0.14255E+01 14224   0.109E+01    0.614E+00
DAV:   8     0.383905587517E+02    0.49314E+00   -0.28540E+00 14424   0.519E+00    0.176E+00
DAV:   9     0.384767762560E+02    0.86218E-01   -0.74603E-01 14488   0.261E+00    0.741E-01
DAV:  10     0.384776123681E+02    0.83611E-03   -0.16490E-01 14504   0.963E-01    0.406E-01
DAV:  11     0.384782719928E+02    0.65962E-03   -0.23633E-02 14176   0.410E-01    0.244E-01
DAV:  12     0.384780943020E+02   -0.17769E-03   -0.61295E-03 14240   0.200E-01    0.139E-01
DAV:  13     0.384777871869E+02   -0.30712E-03   -0.14029E-03 13656   0.106E-01    0.607E-02
DAV:  14     0.384777751392E+02   -0.12048E-04   -0.21908E-04 14040   0.480E-02    0.254E-02
DAV:  15     0.384777604880E+02   -0.14651E-04   -0.76337E-05 13864   0.225E-02    0.999E-03
DAV:  16     0.384777577390E+02   -0.27490E-05   -0.94415E-06 13872   0.964E-03    0.459E-03
DAV:  17     0.384777572239E+02   -0.51508E-06   -0.17177E-06 14256   0.383E-03    0.225E-03
DAV:  18     0.384777571853E+02   -0.38577E-07   -0.25094E-07  8440   0.163E-03
   1 F= 0.38477757E+02 E0= 0.38478237E+02  d E =-.959644E-03  mag=     1.0000
