Si and Ge interface calculation         
           1
    12.651226    0.000000    0.000000
   -10.120981    7.590735    0.000000
     0.000000    0.000000    9.429668
   Ge
    48
Direct configuration=     1
   0.34472227  0.67236114  0.00000000
   0.67805564  0.83902782  0.29999995
   0.01138902  0.00569463  0.59999996
   0.01138897  0.00569449  0.00000000
   0.34472233  0.17236123  0.29999995
   0.67805570  0.33902797  0.59999996
   0.67805564  0.33902782  0.00000000
   0.01138890  0.50569451  0.29999995
   0.34472239  0.67236131  0.59999996
   0.09472227  0.92236114  0.14999998
   0.42805564  0.08902788  0.44999990
   0.76138902  0.25569463  0.74999994
   0.42805564  0.58902788  0.14999998
   0.76138902  0.75569457  0.44999990
   0.09472239  0.92236137  0.74999994
   0.76138890  0.25569448  0.14999998
   0.09472239  0.42236123  0.44999990
   0.42805564  0.58902794  0.74999994
   0.17805557  0.83902770  0.00000000
   0.51138896  0.00569451  0.29999995
   0.84472227  0.17236114  0.59999996
   0.51138896  0.50569451  0.00000000
   0.84472227  0.67236120  0.29999995
   0.17805564  0.83902794  0.59999996
   0.84472233  0.17236118  0.00000000
   0.17805564  0.33902791  0.29999995
   0.51138902  0.50569463  0.59999996
   0.26138896  0.75569445  0.14999998
   0.59472233  0.92236120  0.44999990
   0.92805576  0.08902800  0.74999994
   0.59472233  0.42236116  0.14999998
   0.92805570  0.58902788  0.44999990
   0.26138902  0.75569463  0.74999994
   0.92805564  0.08902787  0.14999998
   0.26138902  0.25569463  0.44999990
   0.59472239  0.42236134  0.74999994
   0.96284664  0.98938477  0.74999988
   0.57395768  0.87827361  0.84999990
   0.18506873  0.76716244  0.94999993
   0.46284664  0.48938474  0.74999988
   0.07395767  0.37827361  0.84999990
   0.68506873  0.26716244  0.94999993
   0.76840210  0.68382919  0.79999983
   0.37951314  0.57271802  0.89999998
   0.99062419  0.46160680  0.00000000
   0.26840216  0.18382917  0.79999983
   0.87951320  0.07271801  0.89999998
   0.49062419  0.96160680  0.00000000
