  96  96   0   0
  0.2276159E+02  0.1265123E-08  0.1265123E-08  0.1393391E-08  0.5000000E-15
  1.000000000000000E-004
  CAR 
 Si and Ge interface calculation         
      6.43917494    -12.50354965  301      3.50022953      1.00000000
    -12.504  0.0000E+00  0.0000E+00  0.0000E+00  0.0000E+00
    -12.440  0.0000E+00  0.0000E+00  0.0000E+00  0.0000E+00
    -12.377  0.0000E+00  0.0000E+00  0.0000E+00  0.0000E+00
    -12.314  0.0000E+00  0.0000E+00  0.0000E+00  0.0000E+00
    -12.251  0.0000E+00  0.0000E+00  0.0000E+00  0.0000E+00
    -12.188  0.0000E+00  0.0000E+00  0.0000E+00  0.0000E+00
    -12.125  0.0000E+00  0.0000E+00  0.0000E+00  0.0000E+00
    -12.062  0.0000E+00  0.0000E+00  0.0000E+00  0.0000E+00
    -11.998  0.0000E+00  0.0000E+00  0.0000E+00  0.0000E+00
    -11.935  0.0000E+00  0.0000E+00  0.0000E+00  0.0000E+00
    -11.872  0.0000E+00  0.0000E+00  0.0000E+00  0.0000E+00
    -11.809  0.0000E+00  0.0000E+00  0.0000E+00  0.0000E+00
    -11.746  0.0000E+00  0.0000E+00  0.0000E+00  0.0000E+00
    -11.683  0.1492E-06  0.9569E-11  0.9419E-08  0.6042E-12
    -11.620  0.3165E+02  0.3034E+02  0.1999E+01  0.1916E+01
    -11.556  0.0000E+00  0.1334E+01  0.2000E+01  0.2000E+01
    -11.493  0.0000E+00  0.0000E+00  0.2000E+01  0.2000E+01
    -11.430  0.0000E+00  0.0000E+00  0.2000E+01  0.2000E+01
    -11.367  0.0000E+00  0.0000E+00  0.2000E+01  0.2000E+01
    -11.304  0.0000E+00  0.0000E+00  0.2000E+01  0.2000E+01
    -11.241  0.0000E+00  0.0000E+00  0.2000E+01  0.2000E+01
    -11.178  0.0000E+00  0.0000E+00  0.2000E+01  0.2000E+01
    -11.114  0.0000E+00  0.0000E+00  0.2000E+01  0.2000E+01
    -11.051  0.1627E-08  0.9768E-13  0.2000E+01  0.2000E+01
    -10.988  0.3139E+02  0.2698E+02  0.3982E+01  0.3704E+01
    -10.925  0.1568E+00  0.4693E+01  0.4000E+01  0.4000E+01
    -10.862  0.0000E+00  0.0000E+00  0.4000E+01  0.4000E+01
    -10.799  0.0000E+00  0.0000E+00  0.4000E+01  0.4000E+01
    -10.736  0.0000E+00  0.0000E+00  0.4000E+01  0.4000E+01
    -10.672  0.0000E+00  0.0000E+00  0.4000E+01  0.4000E+01
    -10.609  0.0000E+00  0.0000E+00  0.4000E+01  0.4000E+01
    -10.546  0.0000E+00  0.0000E+00  0.4000E+01  0.4000E+01
    -10.483  0.0000E+00  0.0000E+00  0.4000E+01  0.4000E+01
    -10.420  0.0000E+00  0.0000E+00  0.4000E+01  0.4000E+01
    -10.357  0.0000E+00  0.0000E+00  0.4000E+01  0.4000E+01
    -10.294  0.0000E+00  0.0000E+00  0.4000E+01  0.4000E+01
    -10.230  0.3752E+00  0.2006E-01  0.4024E+01  0.4001E+01
    -10.167  0.1359E+02  0.1088E+02  0.4882E+01  0.4688E+01
    -10.104  0.1771E+02  0.2078E+02  0.6000E+01  0.6000E+01
    -10.041  0.1814E-07  0.3938E-11  0.6000E+01  0.6000E+01
     -9.978  0.2021E+02  0.1510E+02  0.7276E+01  0.6954E+01
     -9.915  0.8919E+00  0.6014E+01  0.7333E+01  0.7333E+01
     -9.852  0.1784E+01  0.2554E+00  0.7446E+01  0.7349E+01
     -9.788  0.2898E+02  0.2592E+02  0.9276E+01  0.8986E+01
     -9.725  0.1310E+02  0.1004E+02  0.1010E+02  0.9620E+01
     -9.662  0.3649E+02  0.3883E+02  0.1241E+02  0.1207E+02
     -9.599  0.4101E+01  0.9429E+01  0.1267E+02  0.1267E+02
     -9.536  0.0000E+00  0.0000E+00  0.1267E+02  0.1267E+02
     -9.473  0.0000E+00  0.0000E+00  0.1267E+02  0.1267E+02
     -9.410  0.1763E-01  0.1694E-03  0.1267E+02  0.1267E+02
     -9.346  0.2441E+02  0.2147E+02  0.1421E+02  0.1402E+02
     -9.283  0.1793E+02  0.2077E+02  0.1534E+02  0.1533E+02
     -9.220  0.1043E+02  0.1056E+02  0.1600E+02  0.1600E+02
     -9.157  0.8499E+01  0.4811E+01  0.1654E+02  0.1630E+02
     -9.094  0.1574E+02  0.1035E+02  0.1753E+02  0.1696E+02
     -9.031  0.1902E+02  0.1962E+02  0.1873E+02  0.1820E+02
     -8.968  0.3016E+02  0.3506E+02  0.2064E+02  0.2041E+02
     -8.904  0.6399E+00  0.4068E+01  0.2068E+02  0.2067E+02
     -8.841  0.2077E+02  0.1913E+02  0.2199E+02  0.2188E+02
     -8.778  0.1703E+00  0.1978E+01  0.2200E+02  0.2200E+02
     -8.715  0.0000E+00  0.0000E+00  0.2200E+02  0.2200E+02
     -8.652  0.7907E+00  0.1134E+00  0.2205E+02  0.2201E+02
     -8.589  0.9343E+01  0.9209E+01  0.2264E+02  0.2259E+02
     -8.526  0.1110E+02  0.8514E+01  0.2334E+02  0.2313E+02
     -8.462  0.2254E+02  0.2483E+02  0.2476E+02  0.2469E+02
     -8.399  0.1948E+02  0.1990E+02  0.2599E+02  0.2595E+02
     -8.336  0.2475E+00  0.7760E+00  0.2601E+02  0.2600E+02
     -8.273  0.1439E+02  0.1410E+02  0.2692E+02  0.2689E+02
     -8.210  0.6559E+01  0.7014E+01  0.2733E+02  0.2733E+02
     -8.147  0.4227E+01  0.3387E+01  0.2760E+02  0.2755E+02
     -8.084  0.1913E+02  0.1668E+02  0.2881E+02  0.2860E+02
     -8.020  0.2151E+02  0.2132E+02  0.3017E+02  0.2995E+02
     -7.957  0.2383E+02  0.2689E+02  0.3167E+02  0.3164E+02
     -7.894  0.2051E+02  0.1779E+02  0.3297E+02  0.3277E+02
     -7.831  0.1639E+02  0.1722E+02  0.3400E+02  0.3386E+02
     -7.768  0.1937E+02  0.1707E+02  0.3523E+02  0.3493E+02
     -7.705  0.2234E+02  0.2447E+02  0.3664E+02  0.3648E+02
     -7.642  0.2605E+02  0.2584E+02  0.3828E+02  0.3811E+02
     -7.578  0.9969E+01  0.1063E+02  0.3891E+02  0.3878E+02
     -7.515  0.2812E+02  0.2862E+02  0.4069E+02  0.4059E+02
     -7.452  0.7102E+01  0.5509E+01  0.4114E+02  0.4094E+02
     -7.389  0.1612E+02  0.1856E+02  0.4215E+02  0.4211E+02
     -7.326  0.2540E+02  0.2186E+02  0.4376E+02  0.4349E+02
     -7.263  0.3723E+02  0.3742E+02  0.4611E+02  0.4586E+02
     -7.200  0.2926E+02  0.2966E+02  0.4796E+02  0.4773E+02
     -7.136  0.1486E+02  0.1696E+02  0.4890E+02  0.4880E+02
     -7.073  0.2719E+02  0.2678E+02  0.5061E+02  0.5049E+02
     -7.010  0.1657E+02  0.1662E+02  0.5166E+02  0.5154E+02
     -6.947  0.3588E+02  0.3305E+02  0.5393E+02  0.5363E+02
     -6.884  0.2770E+02  0.2944E+02  0.5568E+02  0.5549E+02
     -6.821  0.3068E+02  0.2823E+02  0.5761E+02  0.5727E+02
     -6.758  0.1972E+02  0.2211E+02  0.5886E+02  0.5867E+02
     -6.694  0.2679E+02  0.2515E+02  0.6055E+02  0.6026E+02
     -6.631  0.3266E+02  0.3162E+02  0.6261E+02  0.6225E+02
     -6.568  0.2402E+02  0.2583E+02  0.6413E+02  0.6389E+02
     -6.505  0.2308E+02  0.2377E+02  0.6559E+02  0.6539E+02
     -6.442  0.3227E+02  0.3388E+02  0.6763E+02  0.6753E+02
     -6.379  0.3605E+02  0.3568E+02  0.6991E+02  0.6978E+02
     -6.316  0.2625E+02  0.2493E+02  0.7156E+02  0.7135E+02
     -6.252  0.2584E+02  0.2369E+02  0.7320E+02  0.7285E+02
     -6.189  0.3686E+02  0.3905E+02  0.7553E+02  0.7532E+02
     -6.126  0.3088E+02  0.3035E+02  0.7748E+02  0.7724E+02
     -6.063  0.1752E+02  0.1889E+02  0.7858E+02  0.7843E+02
     -6.000  0.3043E+02  0.2946E+02  0.8050E+02  0.8029E+02
     -5.937  0.1845E+02  0.1853E+02  0.8167E+02  0.8146E+02
     -5.874  0.2717E+02  0.2986E+02  0.8339E+02  0.8335E+02
     -5.810  0.9473E+01  0.8207E+01  0.8399E+02  0.8386E+02
     -5.747  0.3362E+02  0.3104E+02  0.8611E+02  0.8582E+02
     -5.684  0.2502E+02  0.2347E+02  0.8769E+02  0.8731E+02
     -5.621  0.2934E+02  0.3314E+02  0.8954E+02  0.8940E+02
     -5.558  0.2021E+02  0.2158E+02  0.9082E+02  0.9076E+02
     -5.495  0.1154E+02  0.1079E+02  0.9155E+02  0.9144E+02
     -5.432  0.1829E+02  0.1580E+02  0.9271E+02  0.9244E+02
     -5.368  0.2802E+02  0.2864E+02  0.9447E+02  0.9425E+02
     -5.305  0.2027E+02  0.2142E+02  0.9575E+02  0.9560E+02
     -5.242  0.1962E+02  0.1934E+02  0.9699E+02  0.9683E+02
     -5.179  0.1405E+02  0.1553E+02  0.9788E+02  0.9781E+02
     -5.116  0.1972E+02  0.1753E+02  0.9913E+02  0.9892E+02
     -5.053  0.2859E+02  0.2957E+02  0.1009E+03  0.1008E+03
     -4.990  0.1907E+02  0.1897E+02  0.1021E+03  0.1020E+03
     -4.926  0.1838E+02  0.1843E+02  0.1033E+03  0.1031E+03
     -4.863  0.3118E+02  0.2710E+02  0.1053E+03  0.1049E+03
     -4.800  0.2952E+02  0.3478E+02  0.1071E+03  0.1071E+03
     -4.737  0.2709E+02  0.2568E+02  0.1088E+03  0.1087E+03
     -4.674  0.3362E+02  0.2978E+02  0.1110E+03  0.1106E+03
     -4.611  0.2580E+02  0.2784E+02  0.1126E+03  0.1123E+03
     -4.548  0.2473E+02  0.2404E+02  0.1142E+03  0.1138E+03
     -4.484  0.3812E+02  0.3748E+02  0.1166E+03  0.1162E+03
     -4.421  0.1785E+02  0.2163E+02  0.1177E+03  0.1176E+03
     -4.358  0.2369E+02  0.2111E+02  0.1192E+03  0.1189E+03
     -4.295  0.3237E+02  0.3341E+02  0.1212E+03  0.1210E+03
     -4.232  0.2734E+02  0.2884E+02  0.1230E+03  0.1228E+03
     -4.169  0.3106E+02  0.2556E+02  0.1249E+03  0.1244E+03
     -4.106  0.2308E+02  0.2809E+02  0.1264E+03  0.1262E+03
     -4.042  0.3330E+02  0.3081E+02  0.1285E+03  0.1282E+03
     -3.979  0.2575E+02  0.2293E+02  0.1301E+03  0.1296E+03
     -3.916  0.2098E+02  0.2726E+02  0.1314E+03  0.1313E+03
     -3.853  0.3044E+02  0.2803E+02  0.1334E+03  0.1331E+03
     -3.790  0.1700E+02  0.1911E+02  0.1344E+03  0.1343E+03
     -3.727  0.1697E+02  0.1584E+02  0.1355E+03  0.1353E+03
     -3.664  0.1867E+02  0.1860E+02  0.1367E+03  0.1365E+03
     -3.600  0.2601E+02  0.2488E+02  0.1383E+03  0.1381E+03
     -3.537  0.1791E+02  0.1690E+02  0.1395E+03  0.1391E+03
     -3.474  0.2722E+02  0.2958E+02  0.1412E+03  0.1410E+03
     -3.411  0.2557E+02  0.2138E+02  0.1428E+03  0.1423E+03
     -3.348  0.2987E+02  0.3616E+02  0.1447E+03  0.1446E+03
     -3.285  0.3089E+02  0.2819E+02  0.1466E+03  0.1464E+03
     -3.222  0.3507E+02  0.3123E+02  0.1489E+03  0.1484E+03
     -3.158  0.2422E+02  0.2727E+02  0.1504E+03  0.1501E+03
     -3.095  0.2942E+02  0.2662E+02  0.1522E+03  0.1518E+03
     -3.032  0.2563E+02  0.2957E+02  0.1539E+03  0.1537E+03
     -2.969  0.3310E+02  0.2843E+02  0.1559E+03  0.1555E+03
     -2.906  0.3275E+02  0.3433E+02  0.1580E+03  0.1576E+03
     -2.843  0.2436E+02  0.2724E+02  0.1596E+03  0.1593E+03
     -2.780  0.3699E+02  0.3628E+02  0.1619E+03  0.1616E+03
     -2.716  0.2739E+02  0.2556E+02  0.1636E+03  0.1632E+03
     -2.653  0.2592E+02  0.2719E+02  0.1653E+03  0.1650E+03
     -2.590  0.2768E+02  0.2976E+02  0.1670E+03  0.1668E+03
     -2.527  0.2897E+02  0.2747E+02  0.1688E+03  0.1686E+03
     -2.464  0.2614E+02  0.2828E+02  0.1705E+03  0.1704E+03
     -2.401  0.1471E+02  0.1145E+02  0.1714E+03  0.1711E+03
     -2.338  0.3021E+02  0.3281E+02  0.1733E+03  0.1732E+03
     -2.274  0.2406E+02  0.2365E+02  0.1748E+03  0.1747E+03
     -2.211  0.1718E+02  0.1694E+02  0.1759E+03  0.1757E+03
     -2.148  0.1763E+02  0.1950E+02  0.1770E+03  0.1770E+03
     -2.085  0.2051E+02  0.1912E+02  0.1783E+03  0.1782E+03
     -2.022  0.3670E+02  0.3196E+02  0.1807E+03  0.1802E+03
     -1.959  0.2059E+02  0.2391E+02  0.1820E+03  0.1817E+03
     -1.896  0.1885E+02  0.2113E+02  0.1831E+03  0.1830E+03
     -1.832  0.2161E+02  0.2003E+02  0.1845E+03  0.1843E+03
     -1.769  0.1846E+02  0.2042E+02  0.1857E+03  0.1856E+03
     -1.706  0.2653E+02  0.2022E+02  0.1874E+03  0.1869E+03
     -1.643  0.1907E+02  0.2378E+02  0.1886E+03  0.1884E+03
     -1.580  0.1469E+02  0.1565E+02  0.1895E+03  0.1894E+03
     -1.517  0.2141E+02  0.2004E+02  0.1908E+03  0.1906E+03
     -1.454  0.1749E+02  0.1762E+02  0.1919E+03  0.1917E+03
     -1.390  0.1758E+02  0.1985E+02  0.1931E+03  0.1930E+03
     -1.327  0.1568E+02  0.1454E+02  0.1940E+03  0.1939E+03
     -1.264  0.1432E+02  0.1445E+02  0.1949E+03  0.1948E+03
     -1.201  0.1809E+02  0.1811E+02  0.1961E+03  0.1960E+03
     -1.138  0.1098E+02  0.1264E+02  0.1968E+03  0.1968E+03
     -1.075  0.1679E+02  0.1382E+02  0.1978E+03  0.1976E+03
     -1.012  0.2634E+02  0.2680E+02  0.1995E+03  0.1993E+03
     -0.948  0.1129E+02  0.1308E+02  0.2002E+03  0.2002E+03
     -0.885  0.2117E+02  0.1687E+02  0.2016E+03  0.2012E+03
     -0.822  0.2670E+02  0.3046E+02  0.2032E+03  0.2031E+03
     -0.759  0.3485E+02  0.3165E+02  0.2054E+03  0.2051E+03
     -0.696  0.4153E+02  0.3704E+02  0.2081E+03  0.2075E+03
     -0.633  0.4052E+02  0.4595E+02  0.2106E+03  0.2104E+03
     -0.570  0.3683E+02  0.3471E+02  0.2130E+03  0.2126E+03
     -0.506  0.4533E+02  0.4537E+02  0.2158E+03  0.2154E+03
     -0.443  0.2581E+02  0.2839E+02  0.2174E+03  0.2172E+03
     -0.380  0.3610E+02  0.3112E+02  0.2197E+03  0.2192E+03
     -0.317  0.3738E+02  0.3846E+02  0.2221E+03  0.2216E+03
     -0.254  0.4164E+02  0.4536E+02  0.2247E+03  0.2245E+03
     -0.191  0.3437E+02  0.3349E+02  0.2269E+03  0.2266E+03
     -0.128  0.3391E+02  0.3382E+02  0.2290E+03  0.2287E+03
     -0.064  0.4063E+02  0.3924E+02  0.2316E+03  0.2312E+03
     -0.001  0.4494E+02  0.4820E+02  0.2344E+03  0.2343E+03
      0.062  0.4028E+02  0.3883E+02  0.2370E+03  0.2367E+03
      0.125  0.4678E+02  0.4612E+02  0.2399E+03  0.2396E+03
      0.188  0.3011E+02  0.2745E+02  0.2418E+03  0.2414E+03
      0.251  0.3862E+02  0.4215E+02  0.2443E+03  0.2440E+03
      0.314  0.4248E+02  0.4168E+02  0.2470E+03  0.2467E+03
      0.378  0.3209E+02  0.3426E+02  0.2490E+03  0.2488E+03
      0.441  0.3016E+02  0.2888E+02  0.2509E+03  0.2507E+03
      0.504  0.4366E+02  0.4153E+02  0.2536E+03  0.2533E+03
      0.567  0.4758E+02  0.4631E+02  0.2567E+03  0.2562E+03
      0.630  0.4080E+02  0.4269E+02  0.2592E+03  0.2589E+03
      0.693  0.5340E+02  0.4974E+02  0.2626E+03  0.2620E+03
      0.756  0.4166E+02  0.4163E+02  0.2652E+03  0.2647E+03
      0.819  0.3860E+02  0.4366E+02  0.2677E+03  0.2674E+03
      0.883  0.4550E+02  0.4248E+02  0.2705E+03  0.2701E+03
      0.946  0.4059E+02  0.4435E+02  0.2731E+03  0.2729E+03
      1.009  0.3921E+02  0.3475E+02  0.2756E+03  0.2751E+03
      1.072  0.4606E+02  0.4546E+02  0.2785E+03  0.2780E+03
      1.135  0.5233E+02  0.5597E+02  0.2818E+03  0.2815E+03
      1.198  0.4809E+02  0.4573E+02  0.2848E+03  0.2844E+03
      1.261  0.3815E+02  0.3510E+02  0.2872E+03  0.2866E+03
      1.325  0.6194E+02  0.6491E+02  0.2912E+03  0.2907E+03
      1.388  0.4909E+02  0.4813E+02  0.2943E+03  0.2938E+03
      1.451  0.4114E+02  0.4126E+02  0.2969E+03  0.2964E+03
      1.514  0.3216E+02  0.3665E+02  0.2989E+03  0.2987E+03
      1.577  0.3623E+02  0.3432E+02  0.3012E+03  0.3009E+03
      1.640  0.4765E+02  0.4563E+02  0.3042E+03  0.3037E+03
      1.703  0.5074E+02  0.5094E+02  0.3074E+03  0.3069E+03
      1.767  0.3167E+02  0.3144E+02  0.3094E+03  0.3089E+03
      1.830  0.4733E+02  0.4783E+02  0.3124E+03  0.3120E+03
      1.893  0.4433E+02  0.4182E+02  0.3152E+03  0.3146E+03
      1.956  0.3884E+02  0.4256E+02  0.3176E+03  0.3173E+03
      2.019  0.5434E+02  0.5521E+02  0.3211E+03  0.3208E+03
      2.082  0.3531E+02  0.3422E+02  0.3233E+03  0.3229E+03
      2.145  0.4176E+02  0.3918E+02  0.3259E+03  0.3254E+03
      2.209  0.5230E+02  0.5277E+02  0.3292E+03  0.3287E+03
      2.272  0.3373E+02  0.3441E+02  0.3314E+03  0.3309E+03
      2.335  0.4666E+02  0.4235E+02  0.3343E+03  0.3336E+03
      2.398  0.4853E+02  0.4931E+02  0.3374E+03  0.3367E+03
      2.461  0.3456E+02  0.3747E+02  0.3396E+03  0.3391E+03
      2.524  0.4689E+02  0.4781E+02  0.3425E+03  0.3421E+03
      2.587  0.3746E+02  0.3553E+02  0.3449E+03  0.3443E+03
      2.651  0.3391E+02  0.3638E+02  0.3470E+03  0.3466E+03
      2.714  0.4291E+02  0.4063E+02  0.3497E+03  0.3492E+03
      2.777  0.4056E+02  0.3828E+02  0.3523E+03  0.3516E+03
      2.840  0.3539E+02  0.3847E+02  0.3545E+03  0.3540E+03
      2.903  0.5499E+02  0.5017E+02  0.3580E+03  0.3572E+03
      2.966  0.3894E+02  0.4479E+02  0.3605E+03  0.3600E+03
      3.029  0.3929E+02  0.4140E+02  0.3630E+03  0.3627E+03
      3.093  0.5007E+02  0.4288E+02  0.3661E+03  0.3654E+03
      3.156  0.3480E+02  0.3897E+02  0.3683E+03  0.3678E+03
      3.219  0.5115E+02  0.4531E+02  0.3715E+03  0.3707E+03
      3.282  0.4003E+02  0.4123E+02  0.3741E+03  0.3733E+03
      3.345  0.5090E+02  0.5288E+02  0.3773E+03  0.3766E+03
      3.408  0.3970E+02  0.3950E+02  0.3798E+03  0.3791E+03
      3.471  0.4502E+02  0.4687E+02  0.3826E+03  0.3821E+03
      3.535  0.4708E+02  0.4660E+02  0.3856E+03  0.3850E+03
      3.598  0.4469E+02  0.4638E+02  0.3884E+03  0.3880E+03
      3.661  0.3418E+02  0.3602E+02  0.3906E+03  0.3902E+03
      3.724  0.4454E+02  0.3709E+02  0.3934E+03  0.3926E+03
      3.787  0.4747E+02  0.5221E+02  0.3964E+03  0.3959E+03
      3.850  0.3605E+02  0.3626E+02  0.3987E+03  0.3982E+03
      3.913  0.4235E+02  0.3871E+02  0.4014E+03  0.4006E+03
      3.977  0.4019E+02  0.4019E+02  0.4039E+03  0.4032E+03
      4.040  0.3386E+02  0.3883E+02  0.4060E+03  0.4056E+03
      4.103  0.2712E+02  0.2828E+02  0.4078E+03  0.4074E+03
      4.166  0.3904E+02  0.3775E+02  0.4102E+03  0.4098E+03
      4.229  0.4305E+02  0.4422E+02  0.4129E+03  0.4126E+03
      4.292  0.4243E+02  0.4351E+02  0.4156E+03  0.4153E+03
      4.355  0.3301E+02  0.2998E+02  0.4177E+03  0.4172E+03
      4.419  0.4850E+02  0.5158E+02  0.4208E+03  0.4205E+03
      4.482  0.4578E+02  0.4025E+02  0.4237E+03  0.4230E+03
      4.545  0.2867E+02  0.3230E+02  0.4255E+03  0.4250E+03
      4.608  0.2788E+02  0.2978E+02  0.4272E+03  0.4269E+03
      4.671  0.2874E+02  0.2687E+02  0.4290E+03  0.4286E+03
      4.734  0.4044E+02  0.3991E+02  0.4316E+03  0.4311E+03
      4.797  0.4251E+02  0.4275E+02  0.4343E+03  0.4338E+03
      4.861  0.4280E+02  0.4430E+02  0.4370E+03  0.4366E+03
      4.924  0.3886E+02  0.3447E+02  0.4394E+03  0.4388E+03
      4.987  0.4530E+02  0.5003E+02  0.4423E+03  0.4420E+03
      5.050  0.3184E+02  0.3159E+02  0.4443E+03  0.4440E+03
      5.113  0.3125E+02  0.3255E+02  0.4463E+03  0.4460E+03
      5.176  0.4297E+02  0.3616E+02  0.4490E+03  0.4483E+03
      5.239  0.4241E+02  0.4778E+02  0.4517E+03  0.4513E+03
      5.303  0.4917E+02  0.4294E+02  0.4548E+03  0.4540E+03
      5.366  0.3751E+02  0.4329E+02  0.4572E+03  0.4568E+03
      5.429  0.5337E+02  0.5414E+02  0.4605E+03  0.4602E+03
      5.492  0.3511E+02  0.3224E+02  0.4627E+03  0.4622E+03
      5.555  0.1481E+02  0.1900E+02  0.4637E+03  0.4634E+03
      5.618  0.5001E+01  0.8870E+01  0.4640E+03  0.4640E+03
      5.681  0.0000E+00  0.0000E+00  0.4640E+03  0.4640E+03
      5.745  0.0000E+00  0.0000E+00  0.4640E+03  0.4640E+03
      5.808  0.0000E+00  0.0000E+00  0.4640E+03  0.4640E+03
      5.871  0.0000E+00  0.0000E+00  0.4640E+03  0.4640E+03
      5.934  0.0000E+00  0.0000E+00  0.4640E+03  0.4640E+03
      5.997  0.0000E+00  0.0000E+00  0.4640E+03  0.4640E+03
      6.060  0.0000E+00  0.0000E+00  0.4640E+03  0.4640E+03
      6.123  0.0000E+00  0.0000E+00  0.4640E+03  0.4640E+03
      6.187  0.0000E+00  0.0000E+00  0.4640E+03  0.4640E+03
      6.250  0.0000E+00  0.0000E+00  0.4640E+03  0.4640E+03
      6.313  0.0000E+00  0.0000E+00  0.4640E+03  0.4640E+03
      6.376  0.0000E+00  0.0000E+00  0.4640E+03  0.4640E+03
      6.439  0.0000E+00  0.0000E+00  0.4640E+03  0.4640E+03
