 264 264   0   0
  0.2774202E+02  0.1958175E-08  0.1958175E-08  0.1910025E-08  0.5000000E-15
  1.000000000000000E-004
  CAR 
 Si and Ge interface calculation         
      6.68174703     -8.43905812  301      4.07979054      1.00000000
     -8.439  0.0000E+00  0.0000E+00  0.0000E+00  0.0000E+00
     -8.389  0.0000E+00  0.0000E+00  0.0000E+00  0.0000E+00
     -8.338  0.0000E+00  0.0000E+00  0.0000E+00  0.0000E+00
     -8.288  0.0000E+00  0.0000E+00  0.0000E+00  0.0000E+00
     -8.237  0.0000E+00  0.0000E+00  0.0000E+00  0.0000E+00
     -8.187  0.0000E+00  0.0000E+00  0.0000E+00  0.0000E+00
     -8.137  0.0000E+00  0.0000E+00  0.0000E+00  0.0000E+00
     -8.086  0.0000E+00  0.0000E+00  0.0000E+00  0.0000E+00
     -8.036  0.0000E+00  0.0000E+00  0.0000E+00  0.0000E+00
     -7.985  0.0000E+00  0.0000E+00  0.0000E+00  0.0000E+00
     -7.935  0.0000E+00  0.0000E+00  0.0000E+00  0.0000E+00
     -7.885  0.0000E+00  0.0000E+00  0.0000E+00  0.0000E+00
     -7.834  0.0000E+00  0.0000E+00  0.0000E+00  0.0000E+00
     -7.784  0.2577E-04  0.5533E-05  0.1299E-05  0.2789E-06
     -7.733  0.9870E+01  0.9801E+01  0.4975E+00  0.4940E+00
     -7.683  0.1622E+01  0.8904E+00  0.5792E+00  0.5389E+00
     -7.633  0.3811E+02  0.3891E+02  0.2500E+01  0.2500E+01
     -7.582  0.3103E+02  0.2791E+02  0.4064E+01  0.3907E+01
     -7.532  0.8646E+01  0.1177E+02  0.4500E+01  0.4500E+01
     -7.481  0.1379E-07  0.1658E-08  0.4500E+01  0.4500E+01
     -7.431  0.1876E+02  0.1628E+02  0.5445E+01  0.5321E+01
     -7.381  0.2092E+02  0.2340E+02  0.6500E+01  0.6500E+01
     -7.330  0.7889E+02  0.7834E+02  0.1048E+02  0.1045E+02
     -7.280  0.4642E+00  0.1016E+01  0.1050E+02  0.1050E+02
     -7.229  0.0000E+00  0.0000E+00  0.1050E+02  0.1050E+02
     -7.179  0.1127E-08  0.1706E-09  0.1050E+02  0.1050E+02
     -7.129  0.8187E+01  0.7082E+01  0.1091E+02  0.1086E+02
     -7.078  0.3124E+02  0.3206E+02  0.1249E+02  0.1247E+02
     -7.028  0.3521E+02  0.3330E+02  0.1426E+02  0.1415E+02
     -6.977  0.3350E+02  0.3494E+02  0.1595E+02  0.1591E+02
     -6.927  0.3954E+02  0.3940E+02  0.1794E+02  0.1790E+02
     -6.877  0.1102E+02  0.1191E+02  0.1850E+02  0.1850E+02
     -6.826  0.1702E-01  0.3504E-01  0.1850E+02  0.1850E+02
     -6.776  0.9416E+01  0.8817E+01  0.1897E+02  0.1894E+02
     -6.725  0.6000E+02  0.5656E+02  0.2200E+02  0.2180E+02
     -6.675  0.6460E+02  0.6778E+02  0.2526E+02  0.2521E+02
     -6.625  0.3404E+02  0.3392E+02  0.2697E+02  0.2692E+02
     -6.574  0.6576E+00  0.1587E+01  0.2700E+02  0.2700E+02
     -6.524  0.3944E+02  0.3919E+02  0.2899E+02  0.2898E+02
     -6.473  0.7309E+02  0.6818E+02  0.3268E+02  0.3241E+02
     -6.423  0.9138E+02  0.9150E+02  0.3728E+02  0.3702E+02
     -6.373  0.4773E+02  0.5242E+02  0.3969E+02  0.3967E+02
     -6.322  0.3006E+02  0.2618E+02  0.4120E+02  0.4099E+02
     -6.272  0.7210E+02  0.7161E+02  0.4484E+02  0.4460E+02
     -6.221  0.4815E+02  0.5279E+02  0.4726E+02  0.4726E+02
     -6.171  0.9316E+02  0.8870E+02  0.5196E+02  0.5173E+02
     -6.121  0.5563E+02  0.5915E+02  0.5476E+02  0.5471E+02
     -6.070  0.1823E+02  0.1860E+02  0.5568E+02  0.5565E+02
     -6.020  0.5753E+02  0.5332E+02  0.5858E+02  0.5833E+02
     -5.969  0.8710E+02  0.8740E+02  0.6297E+02  0.6274E+02
     -5.919  0.1242E+03  0.1261E+03  0.6923E+02  0.6909E+02
     -5.869  0.7197E+02  0.6962E+02  0.7286E+02  0.7260E+02
     -5.818  0.1343E+03  0.1335E+03  0.7963E+02  0.7933E+02
     -5.768  0.7799E+02  0.7547E+02  0.8356E+02  0.8313E+02
     -5.717  0.1148E+03  0.1165E+03  0.8935E+02  0.8901E+02
     -5.667  0.5407E+02  0.5835E+02  0.9208E+02  0.9195E+02
     -5.617  0.8974E+02  0.9008E+02  0.9660E+02  0.9649E+02
     -5.566  0.6291E+02  0.6148E+02  0.9977E+02  0.9959E+02
     -5.516  0.1258E+03  0.1223E+03  0.1061E+03  0.1057E+03
     -5.465  0.1135E+03  0.1158E+03  0.1118E+03  0.1116E+03
     -5.415  0.7214E+02  0.7351E+02  0.1155E+03  0.1153E+03
     -5.364  0.1116E+03  0.1077E+03  0.1211E+03  0.1207E+03
     -5.314  0.1120E+03  0.1155E+03  0.1267E+03  0.1265E+03
     -5.264  0.6149E+02  0.6318E+02  0.1298E+03  0.1297E+03
     -5.213  0.8586E+02  0.8655E+02  0.1342E+03  0.1341E+03
     -5.163  0.7832E+02  0.7649E+02  0.1381E+03  0.1379E+03
     -5.112  0.5259E+02  0.5364E+02  0.1408E+03  0.1407E+03
     -5.062  0.1012E+03  0.9815E+02  0.1459E+03  0.1456E+03
     -5.012  0.9995E+02  0.1015E+03  0.1509E+03  0.1507E+03
     -4.961  0.1079E+03  0.1063E+03  0.1563E+03  0.1561E+03
     -4.911  0.1206E+03  0.1246E+03  0.1624E+03  0.1624E+03
     -4.860  0.7535E+02  0.7170E+02  0.1662E+03  0.1660E+03
     -4.810  0.8790E+02  0.8618E+02  0.1706E+03  0.1703E+03
     -4.760  0.8116E+02  0.8463E+02  0.1747E+03  0.1746E+03
     -4.709  0.1074E+03  0.1048E+03  0.1801E+03  0.1799E+03
     -4.659  0.9714E+02  0.9746E+02  0.1850E+03  0.1848E+03
     -4.608  0.1129E+03  0.1149E+03  0.1907E+03  0.1906E+03
     -4.558  0.8140E+02  0.8025E+02  0.1948E+03  0.1946E+03
     -4.508  0.9319E+02  0.9044E+02  0.1995E+03  0.1992E+03
     -4.457  0.1333E+03  0.1322E+03  0.2062E+03  0.2058E+03
     -4.407  0.8249E+02  0.8701E+02  0.2104E+03  0.2102E+03
     -4.356  0.1455E+03  0.1418E+03  0.2177E+03  0.2174E+03
     -4.306  0.6926E+02  0.7328E+02  0.2212E+03  0.2211E+03
     -4.256  0.7564E+02  0.7334E+02  0.2250E+03  0.2247E+03
     -4.205  0.5604E+02  0.5951E+02  0.2279E+03  0.2277E+03
     -4.155  0.8174E+02  0.8119E+02  0.2320E+03  0.2318E+03
     -4.104  0.5978E+02  0.6265E+02  0.2350E+03  0.2350E+03
     -4.054  0.1396E+02  0.1096E+02  0.2357E+03  0.2355E+03
     -4.004  0.6486E+02  0.6492E+02  0.2390E+03  0.2388E+03
     -3.953  0.3550E+02  0.3817E+02  0.2408E+03  0.2407E+03
     -3.903  0.4742E+02  0.4614E+02  0.2432E+03  0.2431E+03
     -3.852  0.8689E+02  0.8304E+02  0.2475E+03  0.2473E+03
     -3.802  0.7815E+02  0.7791E+02  0.2515E+03  0.2512E+03
     -3.752  0.3539E+02  0.3765E+02  0.2533E+03  0.2531E+03
     -3.701  0.5554E+02  0.4831E+02  0.2561E+03  0.2555E+03
     -3.651  0.7199E+02  0.7674E+02  0.2597E+03  0.2594E+03
     -3.600  0.4235E+02  0.4038E+02  0.2618E+03  0.2614E+03
     -3.550  0.4848E+02  0.5094E+02  0.2643E+03  0.2640E+03
     -3.500  0.8103E+02  0.8270E+02  0.2683E+03  0.2682E+03
     -3.449  0.4804E+02  0.5157E+02  0.2708E+03  0.2708E+03
     -3.399  0.7855E+02  0.7072E+02  0.2747E+03  0.2743E+03
     -3.348  0.6821E+02  0.7066E+02  0.2782E+03  0.2779E+03
     -3.298  0.9227E+02  0.9266E+02  0.2828E+03  0.2825E+03
     -3.248  0.4033E+02  0.4391E+02  0.2848E+03  0.2848E+03
     -3.197  0.9845E+02  0.9310E+02  0.2898E+03  0.2895E+03
     -3.147  0.6730E+02  0.7241E+02  0.2932E+03  0.2931E+03
     -3.096  0.6024E+02  0.5597E+02  0.2962E+03  0.2959E+03
     -3.046  0.8150E+02  0.8547E+02  0.3003E+03  0.3002E+03
     -2.996  0.4176E+02  0.3700E+02  0.3024E+03  0.3021E+03
     -2.945  0.6810E+02  0.7039E+02  0.3059E+03  0.3056E+03
     -2.895  0.6791E+02  0.6533E+02  0.3093E+03  0.3089E+03
     -2.844  0.9404E+02  0.9606E+02  0.3140E+03  0.3138E+03
     -2.794  0.1093E+03  0.1106E+03  0.3196E+03  0.3194E+03
     -2.744  0.4653E+02  0.4508E+02  0.3219E+03  0.3216E+03
     -2.693  0.8228E+02  0.8230E+02  0.3260E+03  0.3258E+03
     -2.643  0.1112E+03  0.1098E+03  0.3316E+03  0.3313E+03
     -2.592  0.1300E+03  0.1279E+03  0.3382E+03  0.3378E+03
     -2.542  0.9819E+02  0.1011E+03  0.3431E+03  0.3429E+03
     -2.492  0.1500E+03  0.1477E+03  0.3507E+03  0.3503E+03
     -2.441  0.1391E+03  0.1403E+03  0.3577E+03  0.3574E+03
     -2.391  0.1044E+03  0.1075E+03  0.3630E+03  0.3628E+03
     -2.340  0.9612E+02  0.9448E+02  0.3678E+03  0.3675E+03
     -2.290  0.7673E+02  0.7813E+02  0.3717E+03  0.3715E+03
     -2.240  0.1072E+03  0.1089E+03  0.3771E+03  0.3770E+03
     -2.189  0.7956E+02  0.7281E+02  0.3811E+03  0.3806E+03
     -2.139  0.7204E+02  0.8049E+02  0.3847E+03  0.3847E+03
     -2.088  0.6651E+02  0.6388E+02  0.3881E+03  0.3879E+03
     -2.038  0.1009E+03  0.9444E+02  0.3932E+03  0.3927E+03
     -1.988  0.1026E+03  0.1091E+03  0.3983E+03  0.3982E+03
     -1.937  0.5555E+02  0.5770E+02  0.4011E+03  0.4011E+03
     -1.887  0.7192E+02  0.6711E+02  0.4048E+03  0.4045E+03
     -1.836  0.8020E+02  0.8169E+02  0.4088E+03  0.4086E+03
     -1.786  0.1008E+03  0.1028E+03  0.4139E+03  0.4138E+03
     -1.736  0.7331E+02  0.7116E+02  0.4176E+03  0.4174E+03
     -1.685  0.6873E+02  0.6835E+02  0.4211E+03  0.4208E+03
     -1.635  0.1014E+03  0.1035E+03  0.4262E+03  0.4260E+03
     -1.584  0.6500E+02  0.6545E+02  0.4294E+03  0.4293E+03
     -1.534  0.8589E+02  0.8426E+02  0.4338E+03  0.4336E+03
     -1.483  0.7890E+02  0.7688E+02  0.4377E+03  0.4374E+03
     -1.433  0.6677E+02  0.6422E+02  0.4411E+03  0.4407E+03
     -1.383  0.3786E+02  0.4632E+02  0.4430E+03  0.4430E+03
     -1.332  0.7695E+02  0.7166E+02  0.4469E+03  0.4466E+03
     -1.282  0.4119E+02  0.4447E+02  0.4490E+03  0.4489E+03
     -1.231  0.3105E+02  0.2858E+02  0.4505E+03  0.4503E+03
     -1.181  0.7038E+02  0.7152E+02  0.4541E+03  0.4539E+03
     -1.131  0.4277E+02  0.4343E+02  0.4562E+03  0.4561E+03
     -1.080  0.4326E+02  0.4374E+02  0.4584E+03  0.4583E+03
     -1.030  0.6945E+02  0.6671E+02  0.4619E+03  0.4617E+03
     -0.979  0.3783E+02  0.3582E+02  0.4638E+03  0.4635E+03
     -0.929  0.7236E+02  0.7924E+02  0.4675E+03  0.4675E+03
     -0.879  0.5443E+02  0.5010E+02  0.4702E+03  0.4700E+03
     -0.828  0.7012E+02  0.7270E+02  0.4738E+03  0.4737E+03
     -0.778  0.6444E+02  0.6350E+02  0.4770E+03  0.4769E+03
     -0.727  0.2936E+02  0.3036E+02  0.4785E+03  0.4784E+03
     -0.677  0.4275E+02  0.3775E+02  0.4806E+03  0.4803E+03
     -0.627  0.7385E+02  0.7626E+02  0.4844E+03  0.4841E+03
     -0.576  0.4109E+02  0.4396E+02  0.4864E+03  0.4863E+03
     -0.526  0.2726E+02  0.2711E+02  0.4878E+03  0.4877E+03
     -0.475  0.1379E+02  0.1567E+02  0.4885E+03  0.4885E+03
     -0.425  0.3658E+02  0.3440E+02  0.4903E+03  0.4902E+03
     -0.375  0.2610E+02  0.2522E+02  0.4917E+03  0.4915E+03
     -0.324  0.5133E+02  0.5379E+02  0.4942E+03  0.4942E+03
     -0.274  0.4347E+02  0.4329E+02  0.4964E+03  0.4964E+03
     -0.223  0.2979E+02  0.2568E+02  0.4979E+03  0.4977E+03
     -0.173  0.8264E+02  0.8436E+02  0.5021E+03  0.5019E+03
     -0.123  0.3227E+02  0.3316E+02  0.5037E+03  0.5036E+03
     -0.072  0.6088E+02  0.5755E+02  0.5068E+03  0.5065E+03
     -0.022  0.7659E+02  0.8088E+02  0.5107E+03  0.5106E+03
      0.029  0.7373E+02  0.6573E+02  0.5144E+03  0.5139E+03
      0.079  0.1292E+03  0.1345E+03  0.5209E+03  0.5207E+03
      0.129  0.1040E+03  0.9979E+02  0.5261E+03  0.5257E+03
      0.180  0.1263E+03  0.1253E+03  0.5325E+03  0.5320E+03
      0.230  0.1601E+03  0.1618E+03  0.5406E+03  0.5402E+03
      0.281  0.1144E+03  0.1163E+03  0.5463E+03  0.5461E+03
      0.331  0.1248E+03  0.1228E+03  0.5526E+03  0.5522E+03
      0.381  0.8939E+02  0.8519E+02  0.5571E+03  0.5565E+03
      0.432  0.1139E+03  0.1207E+03  0.5629E+03  0.5626E+03
      0.482  0.1325E+03  0.1282E+03  0.5695E+03  0.5691E+03
      0.533  0.1010E+03  0.1035E+03  0.5746E+03  0.5743E+03
      0.583  0.6483E+02  0.6814E+02  0.5779E+03  0.5777E+03
      0.633  0.9420E+02  0.9244E+02  0.5826E+03  0.5824E+03
      0.684  0.1590E+03  0.1556E+03  0.5907E+03  0.5902E+03
      0.734  0.1597E+03  0.1592E+03  0.5987E+03  0.5983E+03
      0.785  0.1437E+03  0.1459E+03  0.6060E+03  0.6056E+03
      0.835  0.2129E+03  0.2041E+03  0.6167E+03  0.6159E+03
      0.885  0.1424E+03  0.1543E+03  0.6239E+03  0.6237E+03
      0.936  0.1193E+03  0.1123E+03  0.6299E+03  0.6293E+03
      0.986  0.1862E+03  0.1841E+03  0.6393E+03  0.6386E+03
      1.037  0.1769E+03  0.1833E+03  0.6482E+03  0.6479E+03
      1.087  0.1503E+03  0.1498E+03  0.6557E+03  0.6554E+03
      1.137  0.2063E+03  0.2018E+03  0.6661E+03  0.6656E+03
      1.188  0.1403E+03  0.1414E+03  0.6732E+03  0.6727E+03
      1.238  0.2085E+03  0.2096E+03  0.6837E+03  0.6833E+03
      1.289  0.1560E+03  0.1608E+03  0.6916E+03  0.6914E+03
      1.339  0.1263E+03  0.1266E+03  0.6980E+03  0.6978E+03
      1.389  0.1800E+03  0.1742E+03  0.7070E+03  0.7065E+03
      1.440  0.1852E+03  0.1841E+03  0.7164E+03  0.7158E+03
      1.490  0.2351E+03  0.2329E+03  0.7282E+03  0.7276E+03
      1.541  0.2251E+03  0.2290E+03  0.7396E+03  0.7391E+03
      1.591  0.1461E+03  0.1494E+03  0.7469E+03  0.7466E+03
      1.641  0.1600E+03  0.1585E+03  0.7550E+03  0.7546E+03
      1.692  0.2000E+03  0.1945E+03  0.7651E+03  0.7644E+03
      1.742  0.1753E+03  0.1797E+03  0.7739E+03  0.7735E+03
      1.793  0.1700E+03  0.1656E+03  0.7825E+03  0.7818E+03
      1.843  0.1905E+03  0.1949E+03  0.7921E+03  0.7916E+03
      1.893  0.1732E+03  0.1688E+03  0.8008E+03  0.8002E+03
      1.944  0.1811E+03  0.1856E+03  0.8099E+03  0.8095E+03
      1.994  0.1790E+03  0.1793E+03  0.8190E+03  0.8185E+03
      2.045  0.2227E+03  0.2182E+03  0.8302E+03  0.8295E+03
      2.095  0.1595E+03  0.1659E+03  0.8382E+03  0.8379E+03
      2.146  0.1706E+03  0.1715E+03  0.8468E+03  0.8465E+03
      2.196  0.1274E+03  0.1216E+03  0.8532E+03  0.8527E+03
      2.246  0.1710E+03  0.1686E+03  0.8619E+03  0.8612E+03
      2.297  0.1626E+03  0.1644E+03  0.8701E+03  0.8695E+03
      2.347  0.1994E+03  0.1966E+03  0.8801E+03  0.8794E+03
      2.398  0.1705E+03  0.1776E+03  0.8887E+03  0.8883E+03
      2.448  0.1213E+03  0.1200E+03  0.8948E+03  0.8944E+03
      2.498  0.1366E+03  0.1413E+03  0.9017E+03  0.9015E+03
      2.549  0.1136E+03  0.1034E+03  0.9074E+03  0.9067E+03
      2.599  0.1699E+03  0.1727E+03  0.9160E+03  0.9154E+03
      2.650  0.1530E+03  0.1527E+03  0.9237E+03  0.9231E+03
      2.700  0.1193E+03  0.1160E+03  0.9297E+03  0.9289E+03
      2.750  0.1842E+03  0.1885E+03  0.9390E+03  0.9384E+03
      2.801  0.1219E+03  0.1220E+03  0.9451E+03  0.9446E+03
      2.851  0.1649E+03  0.1691E+03  0.9535E+03  0.9531E+03
      2.902  0.8604E+02  0.8870E+02  0.9578E+03  0.9576E+03
      2.952  0.1384E+03  0.1318E+03  0.9648E+03  0.9642E+03
      3.002  0.1224E+03  0.1268E+03  0.9709E+03  0.9706E+03
      3.053  0.1059E+03  0.1041E+03  0.9763E+03  0.9759E+03
      3.103  0.1147E+03  0.1149E+03  0.9821E+03  0.9817E+03
      3.154  0.1229E+03  0.1145E+03  0.9883E+03  0.9874E+03
      3.204  0.1054E+03  0.1193E+03  0.9936E+03  0.9934E+03
      3.254  0.1044E+03  0.9551E+02  0.9988E+03  0.9983E+03
      3.305  0.1115E+03  0.1100E+03  0.1004E+04  0.1004E+04
      3.355  0.9113E+02  0.9312E+02  0.1009E+04  0.1008E+04
      3.406  0.7142E+02  0.7793E+02  0.1013E+04  0.1012E+04
      3.456  0.7783E+02  0.6529E+02  0.1017E+04  0.1016E+04
      3.506  0.9522E+02  0.1044E+03  0.1021E+04  0.1021E+04
      3.557  0.8528E+02  0.7497E+02  0.1026E+04  0.1025E+04
      3.607  0.1099E+03  0.1178E+03  0.1031E+04  0.1031E+04
      3.658  0.4224E+02  0.4732E+02  0.1033E+04  0.1033E+04
      3.708  0.6260E+02  0.5192E+02  0.1036E+04  0.1036E+04
      3.758  0.3844E+02  0.4407E+02  0.1038E+04  0.1038E+04
      3.809  0.4965E+02  0.4862E+02  0.1041E+04  0.1040E+04
      3.859  0.2336E+02  0.2843E+02  0.1042E+04  0.1042E+04
      3.910  0.4988E+02  0.4944E+02  0.1045E+04  0.1044E+04
      3.960  0.5970E+02  0.4728E+02  0.1048E+04  0.1047E+04
      4.010  0.4733E+02  0.5131E+02  0.1050E+04  0.1049E+04
      4.061  0.6923E+02  0.5752E+02  0.1054E+04  0.1052E+04
      4.111  0.1082E+03  0.1247E+03  0.1059E+04  0.1058E+04
      4.162  0.9782E+02  0.9117E+02  0.1064E+04  0.1063E+04
      4.212  0.1152E+03  0.1165E+03  0.1070E+04  0.1069E+04
      4.262  0.7309E+02  0.7571E+02  0.1073E+04  0.1073E+04
      4.313  0.9544E+02  0.9589E+02  0.1078E+04  0.1078E+04
      4.363  0.9605E+02  0.8523E+02  0.1083E+04  0.1082E+04
      4.414  0.1172E+03  0.1140E+03  0.1089E+04  0.1088E+04
      4.464  0.1137E+03  0.1227E+03  0.1095E+04  0.1094E+04
      4.514  0.1357E+03  0.1363E+03  0.1102E+04  0.1101E+04
      4.565  0.1068E+03  0.1140E+03  0.1107E+04  0.1106E+04
      4.615  0.6285E+02  0.6016E+02  0.1110E+04  0.1109E+04
      4.666  0.1112E+03  0.1071E+03  0.1116E+04  0.1115E+04
      4.716  0.1408E+03  0.1341E+03  0.1123E+04  0.1122E+04
      4.766  0.1094E+03  0.1180E+03  0.1128E+04  0.1128E+04
      4.817  0.6817E+02  0.7006E+02  0.1132E+04  0.1131E+04
      4.867  0.1896E+03  0.1838E+03  0.1141E+04  0.1140E+04
      4.918  0.1155E+03  0.1207E+03  0.1147E+04  0.1146E+04
      4.968  0.9862E+02  0.9362E+02  0.1152E+04  0.1151E+04
      5.018  0.1257E+03  0.1283E+03  0.1158E+04  0.1158E+04
      5.069  0.1456E+03  0.1434E+03  0.1166E+04  0.1165E+04
      5.119  0.1462E+03  0.1387E+03  0.1173E+04  0.1172E+04
      5.170  0.9473E+02  0.1144E+03  0.1178E+04  0.1178E+04
      5.220  0.1001E+03  0.1011E+03  0.1183E+04  0.1183E+04
      5.270  0.1068E+03  0.9908E+02  0.1188E+04  0.1188E+04
      5.321  0.1024E+03  0.1054E+03  0.1193E+04  0.1193E+04
      5.371  0.1498E+03  0.1406E+03  0.1201E+04  0.1200E+04
      5.422  0.1538E+03  0.1559E+03  0.1209E+04  0.1208E+04
      5.472  0.1032E+03  0.1126E+03  0.1214E+04  0.1214E+04
      5.522  0.1006E+03  0.1011E+03  0.1219E+04  0.1219E+04
      5.573  0.1835E+03  0.1776E+03  0.1228E+04  0.1228E+04
      5.623  0.1355E+03  0.1383E+03  0.1235E+04  0.1235E+04
      5.674  0.1228E+03  0.1142E+03  0.1241E+04  0.1240E+04
      5.724  0.1035E+03  0.1123E+03  0.1247E+04  0.1246E+04
      5.774  0.1359E+03  0.1385E+03  0.1253E+04  0.1253E+04
      5.825  0.1206E+03  0.1168E+03  0.1259E+04  0.1259E+04
      5.875  0.1241E+03  0.1201E+03  0.1266E+04  0.1265E+04
      5.926  0.7805E+02  0.9110E+02  0.1270E+04  0.1270E+04
      5.976  0.3848E+02  0.3681E+02  0.1272E+04  0.1271E+04
      6.027  0.8474E+01  0.1140E+02  0.1272E+04  0.1272E+04
      6.077  0.0000E+00  0.0000E+00  0.1272E+04  0.1272E+04
      6.127  0.0000E+00  0.0000E+00  0.1272E+04  0.1272E+04
      6.178  0.0000E+00  0.0000E+00  0.1272E+04  0.1272E+04
      6.228  0.0000E+00  0.0000E+00  0.1272E+04  0.1272E+04
      6.279  0.0000E+00  0.0000E+00  0.1272E+04  0.1272E+04
      6.329  0.0000E+00  0.0000E+00  0.1272E+04  0.1272E+04
      6.379  0.0000E+00  0.0000E+00  0.1272E+04  0.1272E+04
      6.430  0.0000E+00  0.0000E+00  0.1272E+04  0.1272E+04
      6.480  0.0000E+00  0.0000E+00  0.1272E+04  0.1272E+04
      6.531  0.0000E+00  0.0000E+00  0.1272E+04  0.1272E+04
      6.581  0.0000E+00  0.0000E+00  0.1272E+04  0.1272E+04
      6.631  0.0000E+00  0.0000E+00  0.1272E+04  0.1272E+04
      6.682  0.0000E+00  0.0000E+00  0.1272E+04  0.1272E+04
