 vasp.6.4.3 19Mar24 (build Oct 22 2024 11:23:12) complex                        
  
 executed on             LinuxIFC date 2025.06.10  16:04:41
 running   64 mpi-ranks, on    4 nodes
 distrk:  each k-point on   64 cores,    1 groups
 distr:  one band on NCORE=  16 cores,    4 groups


--------------------------------------------------------------------------------------------------------


 INCAR:
   SYSTEM = Si and Ge interface calculation
   ISTART = 0
   ICHARG = 2
   LWAVE = .FALSE.
   LREAL = AUTO
   ENCUT = 700
   ENAUG = 900
   ADDGRID = .TRUE.
   LMAXMIX = 6
   LASPH = .TRUE.
   LMIXTAU = .TRUE.
   NCORE = 16
   NELM = 100
   NBANDS = 634
   EDIFF = 1d-7
   AMIX = 0.6
   ISMEAR = 0
   SIGMA = 0.01
   NELECT = 1056
   ISPIN = 2
   NUPDOWN = 1
   LVTOT = .FALSE.
   LVHAR = .TRUE.

 POTCAR:    PAW_PBE Si 05Jan2001                  
 POTCAR:    PAW_PBE Sn 08Apr2002                  
 -----------------------------------------------------------------------------
|                                                                             |
|           W    W    AA    RRRRR   N    N  II  N    N   GGGG   !!!           |
|           W    W   A  A   R    R  NN   N  II  NN   N  G    G  !!!           |
|           W    W  A    A  R    R  N N  N  II  N N  N  G       !!!           |
|           W WW W  AAAAAA  RRRRR   N  N N  II  N  N N  G  GGG   !            |
|           WW  WW  A    A  R   R   N   NN  II  N   NN  G    G                |
|           W    W  A    A  R    R  N    N  II  N    N   GGGG   !!!           |
|                                                                             |
|     You use a magnetic or noncollinear calculation, but did not specify     |
|     the initial magnetic moment with the MAGMOM tag. Note that a            |
|     default of 3.788e-3 will be used for all atoms. This ferromagnetic      |
|     setup may break the symmetry of the crystal, in particular it may       |
|     rule out finding an antiferromagnetic solution. Thence, we              |
|     recommend setting the initial magnetic moment manually or verifying     |
|     carefully that this magnetic setup is desired.                          |
|                                                                             |
 -----------------------------------------------------------------------------

 POTCAR:    PAW_PBE Si 05Jan2001                  
   VRHFIN =Si: s2p2                                                                                 
   LEXCH  = PE                                                                                      
   EATOM  =   103.0669 eV,    7.5752 Ry                                                             
                                                                                                    
   TITEL  = PAW_PBE Si 05Jan2001                                                                    
   LULTRA =        F    use ultrasoft PP ?                                                          
   IUNSCR =        1    unscreen: 0-lin 1-nonlin 2-no                                               
   RPACOR =    1.500    partial core radius                                                         
   POMASS =   28.085; ZVAL   =    4.000    mass and valenz                                          
   RCORE  =    1.900    outmost cutoff radius                                                       
   RWIGS  =    2.480; RWIGS  =    1.312    wigner-seitz radius (au A)                               
   ENMAX  =  245.345; ENMIN  =  184.009 eV                                                          
   ICORE  =        2    local potential                                                             
   LCOR   =        T    correct aug charges                                                         
   LPAW   =        T    paw PP                                                                      
   EAUG   =  322.069                                                                                
   DEXC   =    0.000                                                                                
   RMAX   =    1.950    core radius for proj-oper                                                   
   RAUG   =    1.300    factor for augmentation sphere                                              
   RDEP   =    1.993    radius for radial grids                                                     
   RDEPT  =    1.837    core radius for aug-charge                                                  
                                                                                                    
   Atomic configuration                                                                             
    6 entries                                                                                       
     n  l   j            E        occ.                                                              
     1  0  0.50     -1785.8828   2.0000                                                             
     2  0  0.50      -139.4969   2.0000                                                             
     2  1  1.50       -95.5546   6.0000                                                             
     3  0  0.50       -10.8127   2.0000                                                             
     3  1  0.50        -4.0811   2.0000                                                             
     3  2  1.50        -4.0817   0.0000                                                             
   Description                                                                                      
     l       E           TYP  RCUT    TYP  RCUT                                                     
     0    -10.8127223     23  1.900                                                                 
     0     -7.6451159     23  1.900                                                                 
     1     -4.0811372     23  1.900                                                                 
     1      2.4879257     23  1.900                                                                 
     2     -4.0817478      7  1.900                                                                 
  local pseudopotential read in
  partial core-charges read in
  partial kinetic energy density read in
  atomic valenz-charges read in
  non local Contribution for L=           0  read in
    real space projection operators read in
  non local Contribution for L=           0  read in
    real space projection operators read in
  non local Contribution for L=           1  read in
    real space projection operators read in
  non local Contribution for L=           1  read in
    real space projection operators read in
    PAW grid and wavefunctions read in
 
   number of l-projection  operators is LMAX  =           4
   number of lm-projection operators is LMMAX =           8
 
 POTCAR:    PAW_PBE Sn 08Apr2002                  
   VRHFIN =Sn: s2p2                                                                                 
   LEXCH  = PE                                                                                      
   EATOM  =    94.0860 eV,    6.9151 Ry                                                             
                                                                                                    
   TITEL  = PAW_PBE Sn 08Apr2002                                                                    
   LULTRA =        F    use ultrasoft PP ?                                                          
   IUNSCR =        1    unscreen: 0-lin 1-nonlin 2-no                                               
   RPACOR =    2.000    partial core radius                                                         
   POMASS =  118.710; ZVAL   =    4.000    mass and valenz                                          
   RCORE  =    3.000    outmost cutoff radius                                                       
   RWIGS  =    2.960; RWIGS  =    1.566    wigner-seitz radius (au A)                               
   ENMAX  =  103.236; ENMIN  =   77.427 eV                                                          
   ICORE  =        3    local potential                                                             
   LCOR   =        T    correct aug charges                                                         
   LPAW   =        T    paw PP                                                                      
   EAUG   =  263.585                                                                                
   DEXC   =    0.000                                                                                
   RMAX   =    3.078    core radius for proj-oper                                                   
   RAUG   =    1.300    factor for augmentation sphere                                              
   RDEP   =    3.022    radius for radial grids                                                     
   RDEPT  =    2.655    core radius for aug-charge                                                  
                                                                                                    
   Atomic configuration                                                                             
   13 entries                                                                                       
     n  l   j            E        occ.                                                              
     1  0  0.50    -29007.2859   2.0000                                                             
     2  0  0.50     -4378.8056   2.0000                                                             
     2  1  1.50     -3930.4293   6.0000                                                             
     3  0  0.50      -845.0264   2.0000                                                             
     3  1  1.50      -698.5725   6.0000                                                             
     3  2  2.50      -473.2839  10.0000                                                             
     4  0  0.50      -133.9036   2.0000                                                             
     4  1  1.50       -89.6752   6.0000                                                             
     4  2  2.50       -25.8375  10.0000                                                             
     5  0  0.50       -10.5484   2.0000                                                             
     5  1  0.50        -3.6940   2.0000                                                             
     5  2  1.50        -1.3606   0.0000                                                             
     4  3  2.50        -4.0817   0.0000                                                             
   Description                                                                                      
     l       E           TYP  RCUT    TYP  RCUT                                                     
     0    -10.5483727     23  3.000                                                                 
     0     27.2116520     23  3.000                                                                 
     1     -3.6939829     23  3.000                                                                 
     1      1.9821976     23  3.000                                                                 
     2     -1.3605826     23  3.000                                                                 
     3     -2.7211652     23  3.000                                                                 
  local pseudopotential read in
  partial core-charges read in
  partial kinetic energy density read in
  atomic valenz-charges read in
  non local Contribution for L=           0  read in
    real space projection operators read in
  non local Contribution for L=           0  read in
    real space projection operators read in
  non local Contribution for L=           1  read in
    real space projection operators read in
  non local Contribution for L=           1  read in
    real space projection operators read in
  non local Contribution for L=           2  read in
    real space projection operators read in
    PAW grid and wavefunctions read in
 
   number of l-projection  operators is LMAX  =           5
   number of lm-projection operators is LMMAX =          13
 
 Optimization of the real space projectors (new method)

 maximal supplied QI-value         = 19.84
 optimisation between [QCUT,QGAM] = [ 13.49, 26.99] = [ 50.98,203.92] Ry 
 Optimized for a Real-space Cutoff    1.07 Angstroem

   l    n(q)    QCUT    max X(q) W(low)/X(q) W(high)/X(q)  e(spline) 
   0      9    13.493   159.560    0.22E-03    0.15E-03    0.72E-07
   0      9    13.493   115.863    0.21E-03    0.15E-03    0.71E-07
   1      8    13.493    88.339    0.15E-03    0.11E-03    0.13E-06
   1      8    13.493    48.592    0.15E-03    0.10E-03    0.13E-06
 Optimization of the real space projectors (new method)

 maximal supplied QI-value         = 12.47
 optimisation between [QCUT,QGAM] = [ 12.47, 27.06] = [ 43.56,205.12] Ry 
 Optimized for a Real-space Cutoff    1.58 Angstroem

   l    n(q)    QCUT    max X(q) W(low)/X(q) W(high)/X(q)  e(spline) 
   0     13    12.472    14.688    0.45E-04    0.45E-04    0.25E-05
   0     13    12.472     7.308    0.94E-04    0.11E-03    0.61E-05
   1     12    12.472    45.102    0.34E-03    0.14E-03    0.21E-05
   1     12    12.472    30.691    0.31E-03    0.13E-03    0.20E-05
   2     12    12.472     7.156    0.86E-04    0.11E-03    0.17E-05
 WARNING: PSMAXN for non-local potential too small
          PSMAXN should be >   13.5545592237991       NTYP=           2
  PAW_PBE Si 05Jan2001                  :
 energy of atom  1       EATOM= -103.0669
 kinetic energy error for atom=    0.0003 (will be added to EATOM!!)
  PAW_PBE Sn 08Apr2002                  :
 energy of atom  2       EATOM=  -94.0860
 kinetic energy error for atom=    0.0000 (will be added to EATOM!!)
 
 
 POSCAR: Si+Sn
  positions in direct lattice
  No initial velocities read in


 exchange-correlation table for PE
   RHO(1)=    0.500       N(1)  =     2000
   RHO(2)=  100.500       N(2)  =     4000
 


--------------------------------------------------------------------------------------------------------


 ion  position               nearest neighbor table
   1  0.996  0.997  0.000- 145 2.35  49 2.35 249 2.84
   2  0.881  0.920  0.142-  76 2.35 146 2.35  50 2.35 145 2.35
   3  0.765  0.843  0.284-  77 2.35  51 2.35 147 2.35 146 2.35
   4  0.073  0.382  0.000-  43 2.35 154 2.35
   5  0.957  0.305  0.142-  73 2.35  44 2.35 155 2.35 154 2.35
   6  0.842  0.228  0.284-  74 2.35  45 2.35 155 2.35 156 2.35
   7  0.227  0.151  0.000- 118 2.35  46 2.35 258 2.94
   8  0.111  0.074  0.142-  49 2.35  47 2.35 118 2.35 119 2.35
   9  0.996  0.997  0.284-  50 2.35  48 2.35 120 2.35 119 2.35
  10  0.150  0.766  0.000-  52 2.35 121 2.35 261 2.99 207 3.37
  11  0.034  0.690  0.142-  40 2.35 122 2.35 121 2.35  53 2.35
  12  0.919  0.613  0.284-  41 2.35 123 2.35  54 2.35 122 2.35
  13  0.304  0.536  0.000-  55 2.35 124 2.35 192 2.99
  14  0.188  0.459  0.142-  43 2.35 125 2.35  56 2.35 124 2.35
  15  0.073  0.382  0.284-  44 2.35  57 2.35 126 2.35 125 2.35
  16  0.457  0.305  0.000- 127 2.35  58 2.35 186 2.89
  17  0.342  0.228  0.142-  46 2.35 128 2.35  59 2.35 127 2.35
  18  0.227  0.151  0.284-  47 2.35  60 2.35 129 2.35 128 2.35
  19  0.611  0.074  0.000- 240 2.26 130 2.35  61 2.35
  20  0.496  0.997  0.142-  64 2.35 131 2.35 130 2.35  62 2.35
  21  0.381  0.920  0.284-  65 2.35  63 2.35 132 2.35 131 2.35
  22  0.381  0.920  0.000- 189 2.32 133 2.35  64 2.35
  23  0.265  0.843  0.142-  52 2.35 134 2.35 133 2.35  65 2.35
  24  0.150  0.766  0.284-  53 2.35  66 2.35 135 2.35 134 2.35
  25  0.534  0.690  0.000- 243 2.32 136 2.35  67 2.35
  26  0.419  0.613  0.142-  55 2.35 137 2.35  68 2.35 136 2.35
  27  0.304  0.536  0.284-  56 2.35 138 2.35  69 2.35 137 2.35
  28  0.688  0.459  0.000- 139 2.35  70 2.35 201 2.94 246 3.37
  29  0.573  0.382  0.142-  58 2.35 140 2.35 139 2.35  71 2.35
  30  0.457  0.305  0.284- 141 2.35  59 2.35  72 2.35 140 2.35
  31  0.842  0.228  0.000- 142 2.35  73 2.35 195 2.84
  32  0.727  0.151  0.142-  61 2.35  74 2.35 143 2.35 142 2.35
  33  0.611  0.074  0.284-  62 2.35 144 2.35  75 2.35 143 2.35
  34  0.765  0.843  0.000- 198 2.26 148 2.35  76 2.35
  35  0.650  0.766  0.142-  67 2.35 149 2.35  77 2.35 148 2.35
  36  0.534  0.690  0.284-  68 2.35  78 2.35 150 2.35 149 2.35
  37  0.919  0.613  0.000-  40 2.35 151 2.35 252 2.89
  38  0.804  0.536  0.142-  70 2.35  41 2.35 152 2.35 151 2.35
  39  0.688  0.459  0.284-  42 2.35  71 2.35 153 2.35 152 2.35
  40  0.015  0.593  0.071-  37 2.35  11 2.35  82 2.35  83 2.35
  41  0.900  0.516  0.213-  83 2.35  38 2.35  12 2.35  84 2.35
  42  0.784  0.440  0.355- 217 2.32  39 2.35  84 2.35
  43  0.169  0.363  0.071-  14 2.35   4 2.35  86 2.35  85 2.35
  44  0.054  0.286  0.213-  15 2.35   5 2.35  87 2.35  86 2.35
  45  0.938  0.209  0.355-   6 2.35  87 2.35 172 2.94 211 3.37
  46  0.323  0.132  0.071-  17 2.35   7 2.35  88 2.35  89 2.35
  47  0.207  0.055  0.213-  18 2.35   8 2.35  89 2.35  90 2.35
  48  0.092  0.978  0.355-   9 2.35  90 2.35 166 2.84
  49  0.092  0.978  0.071-   8 2.35   1 2.35  91 2.35  92 2.35
  50  0.977  0.901  0.213-   9 2.35   2 2.35  92 2.35  93 2.35
  51  0.861  0.824  0.355- 214 2.26   3 2.35  93 2.35
  52  0.246  0.747  0.071-  23 2.35  10 2.35  94 2.35  95 2.35
  53  0.131  0.670  0.213-  24 2.35  95 2.35  11 2.35  96 2.35
  54  0.015  0.593  0.355- 169 2.26  12 2.35  96 2.35
  55  0.400  0.516  0.071-  26 2.35  97 2.35  13 2.35  98 2.35
  56  0.284  0.440  0.213-  27 2.35  98 2.35  14 2.35  99 2.35
  57  0.169  0.363  0.355-  99 2.35  15 2.35 226 2.89
  58  0.554  0.286  0.071-  29 2.35 101 2.35 100 2.35  16 2.35
  59  0.438  0.209  0.213-  30 2.35 102 2.35  17 2.35 101 2.35
  60  0.323  0.132  0.355-  18 2.35 102 2.35
  61  0.707  0.055  0.071-  32 2.35 104 2.35 103 2.35  19 2.35
  62  0.592  0.978  0.213-  33 2.35 105 2.35 104 2.35  20 2.35
  63  0.477  0.901  0.355-  21 2.35 105 2.35 232 2.94
  64  0.477  0.901  0.071-  20 2.35 106 2.35  22 2.35 107 2.35
  65  0.361  0.824  0.213-  21 2.35 107 2.35  23 2.35 108 2.35
  66  0.246  0.747  0.355- 108 2.35  24 2.35 223 2.84
  67  0.631  0.670  0.071-  35 2.35 109 2.35  25 2.35 110 2.35
  68  0.515  0.593  0.213-  36 2.35 110 2.35  26 2.35 111 2.35
  69  0.400  0.516  0.355- 111 2.35  27 2.35 235 2.99 178 3.37
  70  0.784  0.440  0.071-  38 2.35 112 2.35 113 2.35  28 2.35
  71  0.669  0.363  0.213-  39 2.35 114 2.35 113 2.35  29 2.35
  72  0.554  0.286  0.355- 114 2.35  30 2.35 163 2.99
  73  0.938  0.209  0.071-   5 2.35  79 2.35  80 2.35  31 2.35
  74  0.823  0.132  0.213-   6 2.35  80 2.35  32 2.35  81 2.35
  75  0.707  0.055  0.355-  81 2.35  33 2.35 157 2.89
  76  0.861  0.824  0.071-   2 2.35 115 2.35  34 2.35 116 2.35
  77  0.746  0.747  0.213-   3 2.35 116 2.35  35 2.35 117 2.35
  78  0.631  0.670  0.355- 160 2.32 117 2.35  36 2.35
  79  0.034  0.190  0.000- 204 2.32  73 2.35 118 2.35
  80  0.919  0.113  0.142- 145 2.35  74 2.35 119 2.35  73 2.35
  81  0.804  0.036  0.284-  75 2.35 146 2.35 120 2.35  74 2.35
  82  0.111  0.574  0.000- 210 2.26  40 2.35 124 2.35
  83  0.996  0.497  0.142- 154 2.35  41 2.35  40 2.35 125 2.35
  84  0.881  0.420  0.284- 155 2.35  42 2.35 126 2.35  41 2.35
  85  0.265  0.343  0.000- 264 2.26 127 2.35  43 2.35
  86  0.150  0.266  0.142- 118 2.35  43 2.35 128 2.35  44 2.35
  87  0.034  0.190  0.284- 119 2.35 129 2.35  44 2.35  45 2.35
  88  0.419  0.113  0.000- 130 2.35  46 2.35 186 2.89
  89  0.304  0.036  0.142- 133 2.35  46 2.35  47 2.35 131 2.35
  90  0.188  0.959  0.284- 134 2.35 132 2.35  48 2.35  47 2.35
  91  0.188  0.959  0.000- 133 2.35  49 2.35 258 2.94 207 3.37
  92  0.073  0.882  0.142- 121 2.35  50 2.35 134 2.35  49 2.35
  93  0.957  0.805  0.284- 122 2.35  51 2.35 135 2.35  50 2.35
  94  0.342  0.728  0.000- 136 2.35  52 2.35 261 2.84
  95  0.227  0.651  0.142- 124 2.35  53 2.35 137 2.35  52 2.35
  96  0.111  0.574  0.284- 125 2.35 138 2.35  54 2.35  53 2.35
  97  0.496  0.497  0.000-  55 2.35 139 2.35 192 2.84
  98  0.381  0.420  0.142- 127 2.35  56 2.35 140 2.35  55 2.35
  99  0.265  0.343  0.284- 128 2.35  57 2.35 141 2.35  56 2.35
 100  0.650  0.266  0.000-  58 2.35 142 2.35 195 2.99 246 3.37
 101  0.534  0.190  0.142- 130 2.35 143 2.35  58 2.35  59 2.35
 102  0.419  0.113  0.284- 131 2.35 144 2.35  59 2.35  60 2.35
 103  0.804  0.036  0.000-  61 2.35 145 2.35 249 2.99
 104  0.688  0.959  0.142- 148 2.35  61 2.35  62 2.35 146 2.35
 105  0.573  0.882  0.284- 149 2.35  62 2.35 147 2.35  63 2.35
 106  0.573  0.882  0.000-  64 2.35 148 2.35
 107  0.457  0.805  0.142- 136 2.35  65 2.35  64 2.35 149 2.35
 108  0.342  0.728  0.284- 137 2.35  66 2.35 150 2.35  65 2.35
 109  0.727  0.651  0.000-  67 2.35 151 2.35 201 2.94
 110  0.611  0.574  0.142- 139 2.35  68 2.35 152 2.35  67 2.35
 111  0.496  0.497  0.284- 140 2.35  69 2.35 153 2.35  68 2.35
 112  0.881  0.420  0.000- 255 2.32  70 2.35 154 2.35
 113  0.765  0.343  0.142- 155 2.35 142 2.35  70 2.35  71 2.35
 114  0.650  0.266  0.284- 156 2.35  71 2.35 143 2.35  72 2.35
 115  0.957  0.805  0.000- 121 2.35  76 2.35 252 2.89
 116  0.842  0.728  0.142- 151 2.35  77 2.35 122 2.35  76 2.35
 117  0.727  0.651  0.284- 152 2.35 123 2.35  78 2.35  77 2.35
 118  0.131  0.170  0.071-  86 2.35   7 2.35  79 2.35   8 2.35
 119  0.015  0.093  0.213-  87 2.35  80 2.35   8 2.35   9 2.35
 120  0.900  0.016  0.355-   9 2.35  81 2.35 166 2.99 211 3.37
 121  0.054  0.786  0.071-  92 2.35 115 2.35  10 2.35  11 2.35
 122  0.938  0.709  0.213-  93 2.35 116 2.35  11 2.35  12 2.35
 123  0.823  0.632  0.355- 117 2.35  12 2.35
 124  0.207  0.555  0.071-  95 2.35  82 2.35  13 2.35  14 2.35
 125  0.092  0.478  0.213-  96 2.35  14 2.35  83 2.35  15 2.35
 126  0.977  0.401  0.355-  84 2.35  15 2.35 172 2.94
 127  0.361  0.324  0.071-  98 2.35  85 2.35  16 2.35  17 2.35
 128  0.246  0.247  0.213-  99 2.35  17 2.35  86 2.35  18 2.35
 129  0.131  0.170  0.355- 220 2.32  87 2.35  18 2.35
 130  0.515  0.093  0.071- 101 2.35  19 2.35  88 2.35  20 2.35
 131  0.400  0.016  0.213- 102 2.35  20 2.35  89 2.35  21 2.35
 132  0.284  0.940  0.355- 175 2.32  21 2.35  90 2.35
 133  0.284  0.940  0.071-  89 2.35  22 2.35  91 2.35  23 2.35
 134  0.169  0.863  0.213-  90 2.35  23 2.35  24 2.35  92 2.35
 135  0.054  0.786  0.355-  24 2.35  93 2.35 223 2.99
 136  0.438  0.709  0.071- 107 2.35  94 2.35  25 2.35  26 2.35
 137  0.323  0.632  0.213- 108 2.35  95 2.35  26 2.35  27 2.35
 138  0.207  0.555  0.355-  96 2.35  27 2.35 226 2.89
 139  0.592  0.478  0.071- 110 2.35  28 2.35  97 2.35  29 2.35
 140  0.477  0.401  0.213- 111 2.35  29 2.35  98 2.35  30 2.35
 141  0.361  0.324  0.355- 181 2.26  30 2.35  99 2.35
 142  0.746  0.247  0.071-  31 2.35 113 2.35 100 2.35  32 2.35
 143  0.631  0.170  0.213- 101 2.35 114 2.35  32 2.35  33 2.35
 144  0.515  0.093  0.355- 229 2.26  33 2.35 102 2.35
 145  0.900  0.016  0.071-   1 2.35  80 2.35 103 2.35   2 2.35
 146  0.784  0.940  0.213-  81 2.35   2 2.35 104 2.35   3 2.35
 147  0.669  0.863  0.355-   3 2.35 105 2.35 157 2.89
 148  0.669  0.863  0.071- 104 2.35  34 2.35 106 2.35  35 2.35
 149  0.554  0.786  0.213- 105 2.35  35 2.35 107 2.35  36 2.35
 150  0.438  0.709  0.355- 108 2.35  36 2.35 232 2.94 178 3.37
 151  0.823  0.632  0.071- 116 2.35  37 2.35  38 2.35 109 2.35
 152  0.707  0.555  0.213- 117 2.35  38 2.35  39 2.35 110 2.35
 153  0.592  0.478  0.355- 111 2.35  39 2.35 235 2.84
 154  0.977  0.401  0.071-  83 2.35 112 2.35   4 2.35   5 2.35
 155  0.861  0.324  0.213-  84 2.35 113 2.35   5 2.35   6 2.35
 156  0.746  0.247  0.355- 114 2.35   6 2.35 163 2.84
 157  0.662  0.964  0.465- 187 2.82 256 2.82  75 2.89 147 2.89
 158  0.495  0.964  0.635- 188 2.82 205 2.82 256 2.82 257 2.82
 159  0.328  0.964  0.805- 206 2.82 189 2.82 257 2.82 258 2.82
 160  0.662  0.631  0.465-  78 2.32 190 2.82 259 2.82
 161  0.495  0.631  0.635- 191 2.82 259 2.82 208 2.82 260 2.82
 162  0.328  0.631  0.805- 209 2.82 192 2.82 260 2.82 261 2.82
 163  0.662  0.297  0.465- 184 2.82 262 2.82 156 2.84  72 2.99
 164  0.495  0.297  0.635- 185 2.82 202 2.82 262 2.82 263 2.82
 165  0.328  0.297  0.805- 203 2.82 186 2.82 263 2.82 264 2.82
 166  0.995  0.964  0.465- 196 2.82 238 2.82  48 2.84 120 2.99
 167  0.828  0.964  0.635- 187 2.82 197 2.82 239 2.82 238 2.82
 168  0.662  0.964  0.805- 198 2.82 188 2.82 239 2.82 240 2.82
 169  0.995  0.631  0.465-  54 2.26 199 2.82 241 2.82
 170  0.828  0.631  0.635- 242 2.82 190 2.82 200 2.82 241 2.82
 171  0.662  0.631  0.805- 201 2.82 242 2.82 191 2.82 243 2.82
 172  0.995  0.297  0.465- 193 2.82 244 2.82 126 2.94  45 2.94
 173  0.828  0.297  0.635- 184 2.82 245 2.82 194 2.82 244 2.82
 174  0.662  0.297  0.805- 195 2.82 245 2.82 185 2.82 246 2.82
 175  0.328  0.964  0.465- 132 2.32 247 2.82 205 2.82
 176  0.162  0.964  0.635- 248 2.82 206 2.82 196 2.82 247 2.82
 177  0.995  0.964  0.805- 207 2.82 197 2.82 248 2.82 249 2.82
 178  0.328  0.631  0.465- 250 2.82 208 2.82 150 3.37  69 3.37
 179  0.162  0.631  0.635- 251 2.82 209 2.82 199 2.82 250 2.82
 180  0.995  0.631  0.805- 210 2.82 251 2.82 200 2.82 252 2.82
 181  0.328  0.297  0.465- 141 2.26 253 2.82 202 2.82
 182  0.162  0.297  0.635- 254 2.82 203 2.82 193 2.82 253 2.82
 183  0.995  0.297  0.805- 204 2.82 194 2.82 254 2.82 255 2.82
 184  0.745  0.214  0.550- 163 2.82 173 2.82 211 2.82 212 2.82
 185  0.578  0.214  0.720- 164 2.82 212 2.82 213 2.82 174 2.82
 186  0.412  0.214  0.890- 165 2.82 213 2.82  16 2.89  88 2.89
 187  0.745  0.881  0.550- 157 2.82 167 2.82 214 2.82 215 2.82
 188  0.578  0.881  0.720- 158 2.82 168 2.82 215 2.82 216 2.82
 189  0.412  0.881  0.890-  22 2.32 159 2.82 216 2.82
 190  0.745  0.547  0.550- 217 2.82 160 2.82 170 2.82 218 2.82
 191  0.578  0.547  0.720- 218 2.82 219 2.82 161 2.82 171 2.82
 192  0.412  0.547  0.890- 162 2.82 219 2.82  97 2.84  13 2.99
 193  0.078  0.214  0.550- 172 2.82 182 2.82 221 2.82 220 2.82
 194  0.912  0.214  0.720- 173 2.82 221 2.82 183 2.82 222 2.82
 195  0.745  0.214  0.890- 174 2.82 222 2.82  31 2.84 100 2.99
 196  0.078  0.881  0.550- 166 2.82 176 2.82 224 2.82 223 2.82
 197  0.912  0.881  0.720- 167 2.82 177 2.82 224 2.82 225 2.82
 198  0.745  0.881  0.890-  34 2.26 168 2.82 225 2.82
 199  0.078  0.547  0.550- 169 2.82 227 2.82 226 2.82 179 2.82
 200  0.912  0.547  0.720- 227 2.82 228 2.82 170 2.82 180 2.82
 201  0.745  0.547  0.890- 171 2.82 228 2.82 109 2.94  28 2.94
 202  0.412  0.214  0.550- 164 2.82 229 2.82 181 2.82 230 2.82
 203  0.245  0.214  0.720- 165 2.82 182 2.82 231 2.82 230 2.82
 204  0.078  0.214  0.890-  79 2.32 183 2.82 231 2.82
 205  0.412  0.881  0.550- 158 2.82 232 2.82 175 2.82 233 2.82
 206  0.245  0.881  0.720- 159 2.82 176 2.82 234 2.82 233 2.82
 207  0.078  0.881  0.890- 177 2.82 234 2.82  91 3.37  10 3.37
 208  0.412  0.547  0.550- 235 2.82 161 2.82 236 2.82 178 2.82
 209  0.245  0.547  0.720- 237 2.82 162 2.82 236 2.82 179 2.82
 210  0.078  0.547  0.890-  82 2.26 180 2.82 237 2.82
 211  0.828  0.131  0.465- 238 2.82 184 2.82  45 3.37 120 3.37
 212  0.662  0.131  0.635- 256 2.82 185 2.82 239 2.82 184 2.82
 213  0.495  0.131  0.805- 240 2.82 185 2.82 257 2.82 186 2.82
 214  0.828  0.797  0.465-  51 2.26 241 2.82 187 2.82
 215  0.662  0.797  0.635- 259 2.82 242 2.82 188 2.82 187 2.82
 216  0.495  0.797  0.805- 243 2.82 188 2.82 260 2.82 189 2.82
 217  0.828  0.464  0.465-  42 2.32 190 2.82 244 2.82
 218  0.662  0.464  0.635- 191 2.82 262 2.82 245 2.82 190 2.82
 219  0.495  0.464  0.805- 246 2.82 191 2.82 263 2.82 192 2.82
 220  0.162  0.131  0.465- 129 2.32 247 2.82 193 2.82
 221  0.995  0.131  0.635- 238 2.82 194 2.82 248 2.82 193 2.82
 222  0.828  0.131  0.805- 239 2.82 249 2.82 194 2.82 195 2.82
 223  0.162  0.797  0.465- 250 2.82 196 2.82  66 2.84 135 2.99
 224  0.995  0.797  0.635- 241 2.82 251 2.82 197 2.82 196 2.82
 225  0.828  0.797  0.805- 242 2.82 252 2.82 197 2.82 198 2.82
 226  0.162  0.464  0.465- 199 2.82 253 2.82 138 2.89  57 2.89
 227  0.995  0.464  0.635- 200 2.82 244 2.82 199 2.82 254 2.82
 228  0.828  0.464  0.805- 245 2.82 255 2.82 200 2.82 201 2.82
 229  0.495  0.131  0.465- 144 2.26 256 2.82 202 2.82
 230  0.328  0.131  0.635- 257 2.82 247 2.82 203 2.82 202 2.82
 231  0.162  0.131  0.805- 258 2.82 203 2.82 248 2.82 204 2.82
 232  0.495  0.797  0.465- 259 2.82 205 2.82  63 2.94 150 2.94
 233  0.328  0.797  0.635- 260 2.82 250 2.82 206 2.82 205 2.82
 234  0.162  0.797  0.805- 261 2.82 251 2.82 206 2.82 207 2.82
 235  0.495  0.464  0.465- 262 2.82 208 2.82 153 2.84  69 2.99
 236  0.328  0.464  0.635- 263 2.82 209 2.82 253 2.82 208 2.82
 237  0.162  0.464  0.805- 264 2.82 209 2.82 254 2.82 210 2.82
 238  0.912  0.047  0.550- 211 2.82 221 2.82 166 2.82 167 2.82
 239  0.745  0.047  0.720- 222 2.82 167 2.82 212 2.82 168 2.82
 240  0.578  0.047  0.890-  19 2.26 213 2.82 168 2.82
 241  0.912  0.714  0.550- 214 2.82 224 2.82 169 2.82 170 2.82
 242  0.745  0.714  0.720- 225 2.82 170 2.82 215 2.82 171 2.82
 243  0.578  0.714  0.890-  25 2.32 216 2.82 171 2.82
 244  0.912  0.381  0.550- 217 2.82 227 2.82 172 2.82 173 2.82
 245  0.745  0.381  0.720- 173 2.82 228 2.82 174 2.82 218 2.82
 246  0.578  0.381  0.890- 219 2.82 174 2.82  28 3.37 100 3.37
 247  0.245  0.047  0.550- 175 2.82 220 2.82 230 2.82 176 2.82
 248  0.078  0.047  0.720- 176 2.82 231 2.82 221 2.82 177 2.82
 249  0.912  0.047  0.890- 222 2.82 177 2.82   1 2.84 103 2.99
 250  0.245  0.714  0.550- 178 2.82 223 2.82 233 2.82 179 2.82
 251  0.078  0.714  0.720- 179 2.82 234 2.82 224 2.82 180 2.82
 252  0.912  0.714  0.890- 225 2.82 180 2.82 115 2.89  37 2.89
 253  0.245  0.381  0.550- 181 2.82 226 2.82 236 2.82 182 2.82
 254  0.078  0.381  0.720- 182 2.82 237 2.82 227 2.82 183 2.82
 255  0.912  0.381  0.890- 112 2.32 228 2.82 183 2.82
 256  0.578  0.047  0.550- 229 2.82 212 2.82 158 2.82 157 2.82
 257  0.412  0.047  0.720- 230 2.82 159 2.82 213 2.82 158 2.82
 258  0.245  0.047  0.890- 231 2.82 159 2.82   7 2.94  91 2.94
 259  0.578  0.714  0.550- 232 2.82 215 2.82 161 2.82 160 2.82
 260  0.412  0.714  0.720- 233 2.82 162 2.82 216 2.82 161 2.82
 261  0.245  0.714  0.890- 234 2.82 162 2.82  94 2.84  10 2.99
 262  0.578  0.381  0.550- 235 2.82 218 2.82 164 2.82 163 2.82
 263  0.412  0.381  0.720- 236 2.82 165 2.82 164 2.82 219 2.82
 264  0.245  0.381  0.890-  85 2.26 237 2.82 165 2.82
 
  LATTYP: Found a simple tetragonal cell.
 ALAT       =    19.5817508700
 C/A-ratio  =     0.9754107470
  
  Lattice vectors:
  
 A1 = (  19.5817508700,   0.0000000000,   0.0000000000)
 A2 = (   0.0000000000,  19.5817489620,   0.0000000000)
 A3 = (   0.0000000000,   0.0000000000,  19.1002502440)


Analysis of symmetry for initial positions (statically):
=====================================================================
 Subroutine PRICEL returns following result:
 
  LATTYP: Found a simple tetragonal cell.
 ALAT       =    13.8463881531
 C/A-ratio  =     1.3794391745
  
  Lattice vectors:
  
 A1 = (   9.7908731048,  -9.7908768112,   0.0000000000)
 A2 = (   9.7908731048,   9.7908721508,   0.0000000000)
 A3 = (   0.0000000000,   0.0000000000,  19.1002502440)
 
   2 primitive cells build up your supercell.
 

 Routine SETGRP: Setting up the symmetry group for a 
 simple tetragonal supercell.


 Subroutine GETGRP returns: Found  2 space group operations
 (whereof  1 operations were pure point group operations)
 out of a pool of 16 trial point group operations.


The static configuration has the point symmetry C_1 .
 The point group associated with its full space group is C_1h.


Analysis of symmetry for dynamics (positions and initial velocities):
=====================================================================
 Subroutine PRICEL returns following result:
 
  LATTYP: Found a simple tetragonal cell.
 ALAT       =    13.8463881531
 C/A-ratio  =     1.3794391745
  
  Lattice vectors:
  
 A1 = (   9.7908731048,  -9.7908768112,   0.0000000000)
 A2 = (   9.7908731048,   9.7908721508,   0.0000000000)
 A3 = (   0.0000000000,   0.0000000000,  19.1002502440)
 
   2 primitive cells build up your supercell.
 

 Routine SETGRP: Setting up the symmetry group for a 
 simple tetragonal supercell.


 Subroutine GETGRP returns: Found  2 space group operations
 (whereof  1 operations were pure point group operations)
 out of a pool of 16 trial point group operations.


The dynamic configuration has the point symmetry C_1 .
 The point group associated with its full space group is C_1h.


Analysis of structural, dynamic, and magnetic symmetry:
=====================================================================
 Subroutine PRICEL returns following result:
 
  LATTYP: Found a simple tetragonal cell.
 ALAT       =    13.8463881531
 C/A-ratio  =     1.3794391745
  
  Lattice vectors:
  
 A1 = (   9.7908731048,  -9.7908768112,   0.0000000000)
 A2 = (   9.7908731048,   9.7908721508,   0.0000000000)
 A3 = (   0.0000000000,   0.0000000000,  19.1002502440)
 
   2 primitive cells build up your supercell.
 

 Routine SETGRP: Setting up the symmetry group for a 
 simple tetragonal supercell.


 Subroutine GETGRP returns: Found  2 space group operations
 (whereof  1 operations were pure point group operations)
 out of a pool of 16 trial point group operations.


The overall configuration has the point symmetry C_1 .
 The point group associated with its full space group is C_1h.


 Subroutine INISYM returns: Found  2 space group operations
 (whereof  1 operations are pure point group operations),
 and found     2 'primitive' translations


----------------------------------------------------------------------------------------

                                     Primitive cell                                     

  volume of cell :    3661.9462

  direct lattice vectors                    reciprocal lattice vectors
     9.790873105 -9.790876811  0.000000000     0.051067956 -0.051067961  0.000000000
     9.790873105  9.790872151  0.000000000     0.051067981  0.051067961  0.000000000
     0.000000000  0.000000000 19.100250244     0.000000000  0.000000000  0.052355335

  length of vectors
    13.846388153 13.846384858 19.100250244     0.072221000  0.072221017  0.052355335

  position of ions in fractional coordinates (direct lattice)
     0.998631001  0.993155477  0.000000000
     0.960169494  0.800847651  0.142170906
     0.921707988  0.608539826  0.284341902
     0.690938674  0.454693613  0.000000000
     0.652477146  0.262386182  0.142170906
     0.614015639  0.070078356  0.284341902
     0.075554102  0.377770562  0.000000000
     0.037092567  0.185462722  0.142170906
     0.998631001  0.993155357  0.284341902
     0.383246377  0.916232136  0.000000000
     0.344784822  0.723924262  0.142170906
     0.306323290  0.531616887  0.284341902
     0.767861836  0.839309367  0.000000000
     0.729400277  0.647001475  0.142170906
     0.690938763  0.454693404  0.284341902
     0.152477324  0.762386360  0.000000000
     0.114015758  0.570078475  0.142170906
     0.075554133  0.377770383  0.284341902
     0.537092596  0.685463093  0.000000000
     0.498631001  0.493155477  0.142170906
     0.460169554  0.300847353  0.284341902
     0.460169464  0.300847741  0.000000000
     0.421707928  0.108539886  0.142170906
     0.383246452  0.916231971  0.284341902
     0.844784845  0.223924343  0.000000000
     0.806323327  0.031616968  0.142170906
     0.767861761  0.839309084  0.284341902
     0.229400322  0.147001282  0.000000000
     0.190938756  0.954693397  0.142170906
     0.152477145  0.762386063  0.284341902
     0.614015728  0.070078505  0.000000000
     0.575554237  0.877770665  0.142170906
     0.537092671  0.685462780  0.284341902
     0.921708048  0.608540124  0.000000000
     0.883246407  0.416232046  0.142170906
     0.844784841  0.223924161  0.284341902
     0.306323409  0.531617124  0.000000000
     0.267861847  0.339308940  0.142170906
     0.229400322  0.147001044  0.284341902
     0.421707981  0.608539700  0.071085475
     0.383246482  0.416232120  0.213256419
     0.344784975  0.223924176  0.355427384
     0.806323349  0.531617185  0.071085475
     0.767861758  0.339308858  0.213256419
     0.729400218  0.147001415  0.355427384
     0.190938726  0.454693694  0.071085475
     0.152477182  0.262385817  0.213256419
     0.114015609  0.070077969  0.355427384
     0.114015609  0.070078209  0.071085475
     0.075554073  0.877770830  0.213256419
     0.037092507  0.685462945  0.355427384
     0.498631120  0.993155477  0.071085475
     0.460169479  0.800847399  0.213256419
     0.421707918  0.608539519  0.355427384
     0.883246477  0.916232481  0.071085475
     0.844784916  0.723924593  0.213256419
     0.806323409  0.531616767  0.355427384
     0.267861716  0.839308996  0.071085475
     0.229400277  0.647001594  0.213256419
     0.190938786  0.454693456  0.355427384
     0.652477253  0.762386194  0.071085475
     0.614015699  0.570078297  0.213256419
     0.575554073  0.377770710  0.355427384
     0.575554043  0.377770978  0.071085475
     0.537092507  0.185463063  0.213256419
     0.498630955  0.993155164  0.355427384
     0.960169479  0.300847459  0.071085475
     0.921707934  0.108539609  0.213256419
     0.883246394  0.916232208  0.355427384
     0.344784826  0.223924623  0.071085475
     0.306323350  0.031616708  0.213256419
     0.267861784  0.839308824  0.355427384
     0.729400336  0.147001773  0.071085475
     0.690938785  0.954693873  0.213256419
     0.652477231  0.762385978  0.355427384
     0.037092745  0.685463421  0.071085475
     0.998631179  0.493155536  0.213256419
     0.960169479  0.300847249  0.355427384
     0.697599172  0.625804739  0.465373576
     0.530932546  0.459138152  0.635245681
     0.364265799  0.292471207  0.805117786
     0.030932545  0.292471128  0.465373576
     0.864265859  0.125804839  0.635245681
     0.697599172  0.959138072  0.805117786
     0.364265918  0.959137755  0.465373576
     0.197599232  0.792471466  0.635245681
     0.030932545  0.625804699  0.805117786
     0.030932546  0.959138272  0.465373576
     0.864265799  0.792471445  0.635245681
     0.697599172  0.625804739  0.805117786
     0.364265919  0.625804899  0.465373576
     0.197599292  0.459137954  0.635245681
     0.030932665  0.292471248  0.805117786
     0.697599262  0.292471556  0.465373576
     0.530932515  0.125804729  0.635245681
     0.364266038  0.959137875  0.805117786
     0.364265799  0.292471207  0.465373576
     0.197599172  0.125804501  0.635245681
     0.030932546  0.959138272  0.805117786
     0.697599172  0.959138072  0.465373576
     0.530932426  0.792471247  0.635245681
     0.364265919  0.625804899  0.805117786
     0.030932545  0.625804699  0.465373576
     0.864265888  0.459137785  0.635245681
     0.697599262  0.292471556  0.805117786
     0.530932486  0.959138093  0.550309598
     0.364265919  0.792471208  0.720181704
     0.197599172  0.625804858  0.890053868
     0.864265740  0.625804839  0.550309598
     0.697599292  0.459137835  0.720181704
     0.530932545  0.292471485  0.890053868
     0.197599173  0.292471288  0.550309598
     0.030932546  0.125804581  0.720181704
     0.864265799  0.959138231  0.890053868
     0.864265799  0.292471088  0.550309598
     0.697599172  0.125804858  0.720181704
     0.530932426  0.959138033  0.890053868
     0.197599053  0.959137834  0.550309598
     0.030932426  0.792471604  0.720181704
     0.864265680  0.625804779  0.890053868
     0.530932426  0.625804699  0.550309598
     0.364265680  0.459137874  0.720181704
     0.197599053  0.292471168  0.890053868
     0.197599172  0.625804858  0.550309598
     0.030932546  0.459137915  0.720181704
     0.864265799  0.292471088  0.890053868
     0.530932545  0.292471485  0.550309598
     0.364265800  0.125804661  0.720181704
     0.197599053  0.959137834  0.890053868
     0.864265799  0.959138231  0.550309598
     0.697599113  0.792471466  0.720181704
     0.530932426  0.625804699  0.890053868

  ion indices of the primitive-cell ions
   primitive index   ion index
                 1           1
                 2           2
                 3           3
                 4           4
                 5           5
                 6           6
                 7           7
                 8           8
                 9           9
                10          10
                11          11
                12          12
                13         103
                14         104
                15          15
                16         115
                17         116
                18          18
                19          19
                20          83
                21          21
                22          22
                23          23
                24          24
                25          79
                26          80
                27          81
                28          91
                29          92
                30          93
                31          31
                32          32
                33          33
                34          34
                35          86
                36          87
                37          37
                38          89
                39          90
                40          40
                41         131
                42         132
                43         148
                44          44
                45          45
                46          46
                47          47
                48          48
                49          49
                50          50
                51          51
                52         142
                53          53
                54          54
                55         145
                56         146
                57         147
                58         121
                59         122
                60          60
                61          61
                62          62
                63         126
                64         154
                65         155
                66         156
                67         118
                68         119
                69         120
                70         133
                71         134
                72         135
                73          73
                74          74
                75          75
                76          76
                77          77
                78         129
                79         157
                80         227
                81         159
                82         220
                83         221
                84         222
                85         223
                86         224
                87         225
                88         166
                89         167
                90         168
                91         169
                92         230
                93         231
                94         172
                95         173
                96         234
                97         175
                98         176
                99         177
               100         211
               101         212
               102         180
               103         214
               104         182
               105         183
               106         184
               107         251
               108         252
               109         187
               110         254
               111         255
               112         247
               113         248
               114         249
               115         193
               116         194
               117         195
               118         196
               119         197
               120         198
               121         256
               122         257
               123         258
               124         241
               125         203
               126         204
               127         244
               128         206
               129         207
               130         238
               131         239
               132         240

----------------------------------------------------------------------------------------

 
 
 KPOINTS: Automatic KPOINTS generated             

Automatic generation of k-mesh.
 Grid dimensions read from file:
 generate k-points for:    2    2    2

 Generating k-lattice:

  Cartesian coordinates                     Fractional coordinates (reciprocal lattice)
     0.025533978  0.000000000  0.000000000     0.500000000  0.000000000  0.000000000
     0.000000000  0.025533981  0.000000000     0.000000000  0.500000000  0.000000000
     0.000000000  0.000000000  0.026177667     0.000000000  0.000000000  0.500000000

  Length of vectors
     0.025533978  0.025533981  0.026177667

  Shift w.r.t. Gamma in fractional coordinates (k-lattice)
     0.000000000  0.000000000  0.000000000

 
 Subroutine IBZKPT returns following result:
 ===========================================
 
 Found      8 irreducible k-points:
 
 Following reciprocal coordinates:
            Coordinates               Weight
  0.000000  0.000000  0.000000      1.000000
  0.500000  0.000000  0.000000      1.000000
  0.000000  0.500000  0.000000      1.000000
  0.500000  0.500000  0.000000      1.000000
  0.000000  0.000000  0.500000      1.000000
  0.500000  0.000000  0.500000      1.000000
  0.000000  0.500000  0.500000      1.000000
  0.500000  0.500000  0.500000      1.000000
 
 Following cartesian coordinates:
            Coordinates               Weight
  0.000000  0.000000  0.000000      1.000000
  0.025534  0.000000  0.000000      1.000000
  0.000000  0.025534  0.000000      1.000000
  0.025534  0.025534  0.000000      1.000000
  0.000000  0.000000  0.026178      1.000000
  0.025534  0.000000  0.026178      1.000000
  0.000000  0.025534  0.026178      1.000000
  0.025534  0.025534  0.026178      1.000000
 
 -----------------------------------------------------------------------------
|                                                                             |
|           W    W    AA    RRRRR   N    N  II  N    N   GGGG   !!!           |
|           W    W   A  A   R    R  NN   N  II  NN   N  G    G  !!!           |
|           W    W  A    A  R    R  N N  N  II  N N  N  G       !!!           |
|           W WW W  AAAAAA  RRRRR   N  N N  II  N  N N  G  GGG   !            |
|           WW  WW  A    A  R   R   N   NN  II  N   NN  G    G                |
|           W    W  A    A  R    R  N    N  II  N    N   GGGG   !!!           |
|                                                                             |
|     The number of bands has been changed from the values supplied in        |
|     the INCAR file. This is a result of running the parallel version.       |
|     The orbitals not found in the WAVECAR file will be initialized with     |
|     random numbers, which is usually adequate. For correlated               |
|     calculations, however, you should redo the groundstate calculation.     |
|     I found NBANDS = 634. Now, NBANDS = 636.                                |
|                                                                             |
 -----------------------------------------------------------------------------



--------------------------------------------------------------------------------------------------------




 Dimension of arrays:
   k-points           NKPTS =      8   k-points in BZ     NKDIM =      8   number of bands    NBANDS=    636
   number of dos      NEDOS =    301   number of ions     NIONS =    264
   non local maximal  LDIM  =      5   non local SUM 2l+1 LMDIM =     13
   total plane-waves  NPLWV = ******
   max r-space proj   IRMAX =   4693   max aug-charges    IRDMAX= 217232
   dimension x,y,z NGX =   128 NGY =  128 NGZ =  126
   dimension x,y,z NGXF=   256 NGYF=  256 NGZF=  252
   support grid    NGXF=   512 NGYF=  512 NGZF=  504
   ions per type =             156 108
   NGX,Y,Z   is equivalent  to a cutoff of  10.87, 10.87, 10.97 a.u.
   NGXF,Y,Z  is equivalent  to a cutoff of  21.73, 21.73, 21.93 a.u.

 SYSTEM =  Si and Ge interface calculation         
 POSCAR =  Si+Sn                                   

 Startparameter for this run:
   NWRITE =      2    write-flag & timer
   PREC   = normal    normal or accurate (medium, high low for compatibility)
   ISTART =      0    job   : 0-new  1-cont  2-samecut
   ICHARG =      2    charge: 1-file 2-atom 10-const
   ISPIN  =      2    spin polarized calculation?
   LNONCOLLINEAR =      F non collinear calculations
   LSORBIT =      F    spin-orbit coupling
   INIWAV =      1    electr: 0-lowe 1-rand  2-diag
   LASPH  =      T    aspherical Exc in radial PAW
 Electronic Relaxation 1
   ENCUT  =  700.0 eV  51.45 Ry    7.17 a.u.  42.24 42.24 41.20*2*pi/ulx,y,z
   ENINI  =  700.0     initial cutoff
   ENAUG  =  900.0 eV  augmentation charge cutoff
   NELM   =    100;   NELMIN=  2; NELMDL= -5     # of ELM steps 
   EDIFF  = 0.1E-06   stopping-criterion for ELM
   LREAL  =      T    real-space projection
   NLSPLINE    = F    spline interpolate recip. space projectors
   LCOMPAT=      F    compatible to vasp.4.4
   GGA_COMPAT  = T    GGA compatible to vasp.4.4-vasp.4.6
   LMAXPAW     = -100 max onsite density
   LMAXMIX     =    6 max onsite mixed and CHGCAR
   VOSKOWN=      0    Vosko Wilk Nusair interpolation
   ROPT   =   -0.00050  -0.00050
 Ionic relaxation
   EDIFFG = 0.1E-05   stopping-criterion for IOM
   NSW    =      0    number of steps for IOM
   NBLOCK =      1;   KBLOCK =      1    inner block; outer block 
   IBRION =     -1    ionic relax: 0-MD 1-quasi-New 2-CG
   NFREE  =      0    steps in history (QN), initial steepest desc. (CG)
   ISIF   =      2    stress and relaxation
   IWAVPR =     10    prediction:  0-non 1-charg 2-wave 3-comb
   ISYM   =      2    0-nonsym 1-usesym 2-fastsym
   LCORR  =      T    Harris-Foulkes like correction to forces

   POTIM  = 0.5000    time-step for ionic-motion
   TEIN   =    0.0    initial temperature
   TEBEG  =    0.0;   TEEND  =   0.0 temperature during run
   SMASS  =  -3.00    Nose mass-parameter (am)
   estimated Nose-frequenzy (Omega)   =  0.10E-29 period in steps = 0.13E+47 mass=  -0.876E-26a.u.
   SCALEE = 1.0000    scale energy and forces
   NPACO  =    256;   APACO  = 10.0  distance and # of slots for P.C.
   PSTRESS=    0.0 pullay stress

  Mass of Ions in am
   POMASS =  28.09118.71
  Ionic Valenz
   ZVAL   =   4.00  4.00
  Atomic Wigner-Seitz radii
   RWIGS  =  -1.00 -1.00
  virtual crystal weights 
   VCA    =   1.00  1.00
   NELECT =    1056.0000    total number of electrons
   NUPDOWN=       1.0000    fix difference up-down

 DOS related values:
   EMIN   =  10.00;   EMAX   =-10.00  energy-range for DOS
   EFERMI =   0.00;   METHOD = LEGACY      
   ISMEAR =     0;   SIGMA  =   0.01  broadening in eV -4-tet -1-fermi 0-gaus

 Electronic relaxation 2 (details)
   IALGO  =     38    algorithm
   LDIAG  =      T    sub-space diagonalisation (order eigenvalues)
   LSUBROT=      F    optimize rotation matrix (better conditioning)
   TURBO    =      0    0=normal 1=particle mesh
   IRESTART =      0    0=no restart 2=restart with 2 vectors
   NREBOOT  =      0    no. of reboots
   NMIN     =      0    reboot dimension
   EREF     =   0.00    reference energy to select bands
   IMIX   =      4    mixing-type and parameters
     AMIX     =   0.60;   BMIX     =  1.00
     AMIX_MAG =   2.40;   BMIX_MAG =  1.00
     AMIN     =   0.10
     WC   =   100.;   INIMIX=   1;  MIXPRE=   1;  MAXMIX= -45

 Intra band minimization:
   WEIMIN = 0.0000     energy-eigenvalue tresh-hold
   EBREAK =  0.39E-10  absolut break condition
   DEPER  =   0.30     relativ break condition  

   TIME   =   0.40     timestep for ELM

  volume/ion in A,a.u.               =      27.74       187.21
  Fermi-wavevector in a.u.,A,eV,Ry     =   0.858451  1.622237 10.026649  0.736938
  Thomas-Fermi vector in A             =   1.975657
 
 Write flags
   LWAVE        =      F    write WAVECAR
   LDOWNSAMPLE  =      F    k-point downsampling of WAVECAR
   LCHARG       =      T    write CHGCAR
   LVTOT        =      F    write LOCPOT, total local potential
   LVHAR        =      T    write LOCPOT, Hartree potential only
   WRT_POTENTIAL=  hartree ionic  ! write potential to hdf5 file
   LELF         =      F    write electronic localiz. function (ELF)
   LORBIT       =      0    0 simple, 1 ext, 2 COOP (PROOUT), +10 PAW based schemes


 Dipole corrections
   LMONO      =      F    monopole corrections only (constant potential shift)
   LDIPOL     =      F    correct potential (dipole corrections)
   IDIPOL     =      0    1-x, 2-y, 3-z, 4-all directions 
   EPSILON    =  1.0000000 bulk dielectric constant
   LVACPOTAV  =      F  vacuum potentials using an averaging scheme for the charge density
   VACPOTFLAT =  0.1000000 required flatness to determine vacuum potential
 Exchange correlation treatment:
   GGA     = PE    functional components
   XC_C    = 1    coefficients multiplying the functional components
   LIBXC   =     F    Libxc                    
   VOSKOWN =     0    Vosko Wilk Nusair interpolation
   LHFCALC =     F    Hartree Fock is set to
   LHFONE  =     F    Hartree Fock one center treatment
   AEXX    =    0.0000 exact exchange contribution

 Parameters of functionals:
   PE:
     No parameter
 
 Van der Waals corrections
   IVDW    =     0    specifies the selected vdW correction

 Linear response parameters
   LEPSILON=     F    determine dielectric tensor
   LRPA    =     F    only Hartree local field effects (RPA)
   LNABLA  =     F    use nabla operator in PAW spheres
   LVEL    =     F    velocity operator in full k-point grid
   CSHIFT  =0.1000    complex shift for real part using Kramers Kronig
   OMEGAMAX=  -1.0    maximum frequency
   DEG_THRESHOLD= 0.2000000E-02 threshold for treating states as degnerate
   RTIME   =   -0.100 relaxation time in fs
  (WPLASMAI=    0.000 imaginary part of plasma frequency in eV, 0.658/RTIME)
   DFIELD  = 0.0000000 0.0000000 0.0000000 field for delta impulse in time
 
  Optional k-point grid parameters
   LKPOINTS_OPT  =     F    use optional k-point grid
   KPOINTS_OPT_MODE=     1    mode for optional k-point grid
 
 Orbital magnetization related:
   ORBITALMAG=     F  switch on orbital magnetization
   LCHIMAG   =     F  perturbation theory with respect to B field
   DQ        =  0.001000  dq finite difference perturbation B field
   LLRAUG    =     F  two centre corrections for induced B field
   LBONE     =     F  B-component reconstruction in AE one-centre
   LVGVCALC  =     T  calculate vGv susceptibility
   LVGVAPPL  =     F  apply vGv susceptibility instead of pGv for G=0

 Random number generation:
   RANDOM_GENERATOR = DEFAULT
   PCG_SEED         = not used


--------------------------------------------------------------------------------------------------------


 Static calculation
 charge density and potential will be updated during run
 spin polarized calculation
 Variant of blocked Davidson
 Davidson routine will perform the subspace rotation
 perform sub-space diagonalisation
    after iterative eigenvector-optimisation
 modified Broyden-mixing scheme, WC =      100.0
 initial mixing is a Kerker type mixing with AMIX =  0.6000 and BMIX =      1.0000
 Hartree-type preconditioning will be used
 using additional bands          108
 real space projection scheme for non local part
 use partial core corrections
 calculate Harris-corrections to forces 
   (improved forces if not selfconsistent)
 use gradient corrections 
 use of overlap-Matrix (Vanderbilt PP)
 Gauss-broadening in eV      SIGMA  =   0.01


--------------------------------------------------------------------------------------------------------


  energy-cutoff  :      700.00
  volume of cell :     7323.89
      direct lattice vectors                 reciprocal lattice vectors
    19.581750870  0.000000000  0.000000000     0.051067956  0.000000000  0.000000000
     0.000000000 19.581748962  0.000000000     0.000000000  0.051067961  0.000000000
     0.000000000  0.000000000 19.100250244     0.000000000  0.000000000  0.052355335

  length of vectors
    19.581750870 19.581748962 19.100250244     0.051067956  0.051067961  0.052355335


 
 k-points in units of 2pi/SCALE and weight: Automatic KPOINTS generated             
   0.00000000  0.00000000  0.00000000       0.125
   0.02553398  0.00000000  0.00000000       0.125
   0.00000000  0.02553398  0.00000000       0.125
   0.02553398  0.02553398  0.00000000       0.125
   0.00000000  0.00000000  0.02617767       0.125
   0.02553398  0.00000000  0.02617767       0.125
   0.00000000  0.02553398  0.02617767       0.125
   0.02553398  0.02553398  0.02617767       0.125
 
 k-points in reciprocal lattice and weights: Automatic KPOINTS generated             
   0.00000000  0.00000000  0.00000000       0.125
   0.50000000  0.00000000  0.00000000       0.125
   0.00000000  0.50000000  0.00000000       0.125
   0.50000000  0.50000000  0.00000000       0.125
   0.00000000  0.00000000  0.50000000       0.125
   0.50000000  0.00000000  0.50000000       0.125
   0.00000000  0.50000000  0.50000000       0.125
   0.50000000  0.50000000  0.50000000       0.125
 
 position of ions in fractional coordinates (direct lattice) 
   0.99589300  0.99726200  0.00000000
   0.88050836  0.92033887  0.14217091
   0.76512373  0.84341574  0.28434190
   0.07281613  0.38187745  0.00000000
   0.95743144  0.30495429  0.14217091
   0.84204680  0.22803116  0.28434190
   0.22666228  0.15110818  0.00000000
   0.11127762  0.07418505  0.14217091
   0.99589294  0.99726194  0.28434190
   0.14973922  0.76649284  0.00000000
   0.03435453  0.68956971  0.14217091
   0.91896987  0.61264658  0.28434190
   0.30358541  0.53572357  0.00000000
   0.18820073  0.45880044  0.14217091
   0.07281607  0.38187730  0.28434190
   0.45743155  0.30495435  0.00000000
   0.34204686  0.22803120  0.14217091
   0.22666220  0.15110807  0.28434190
   0.61127770  0.07418510  0.00000000
   0.49589300  0.99726194  0.14217091
   0.38050836  0.92033881  0.28434190
   0.38050851  0.92033905  0.00000000
   0.26512384  0.84341592  0.14217091
   0.14973918  0.76649272  0.28434190
   0.53435463  0.68956971  0.00000000
   0.41896993  0.61264658  0.14217091
   0.30358526  0.53572345  0.28434190
   0.68820071  0.45880049  0.00000000
   0.57281607  0.38187736  0.14217091
   0.45743138  0.30495423  0.28434190
   0.84204692  0.22803119  0.00000000
   0.72666228  0.15110804  0.14217091
   0.61127758  0.07418491  0.28434190
   0.76512390  0.84341586  0.00000000
   0.64973927  0.76649272  0.14217091
   0.53435457  0.68956959  0.28434190
   0.91897005  0.61264664  0.00000000
   0.80358541  0.53572351  0.14217091
   0.68820071  0.45880038  0.28434190
   0.01512384  0.59341586  0.07108547
   0.89973921  0.51649272  0.21325642
   0.78435451  0.43956962  0.35542738
   0.16896996  0.36264667  0.07108547
   0.05358529  0.28572354  0.21325642
   0.93820059  0.20880038  0.35542738
   0.32281613  0.13187741  0.07108547
   0.20743145  0.05495427  0.21325642
   0.09204677  0.97803116  0.35542738
   0.09204689  0.97803128  0.07108547
   0.97666222  0.90110815  0.21325642
   0.86127752  0.82418501  0.35542738
   0.24589306  0.74726206  0.07108547
   0.13050841  0.67033893  0.21325642
   0.01512372  0.59341580  0.35542738
   0.39973927  0.51649284  0.07108547
   0.28435460  0.43956968  0.21325642
   0.16896993  0.36264655  0.35542738
   0.55358541  0.28572354  0.07108547
   0.43820071  0.20880039  0.21325642
   0.32281604  0.13187726  0.35542738
   0.70743155  0.05495430  0.07108547
   0.59204686  0.97803116  0.21325642
   0.47666219  0.90110803  0.35542738
   0.47666240  0.90110820  0.07108547
   0.36127770  0.82418507  0.21325642
   0.24589300  0.74726194  0.35542738
   0.63050854  0.67033899  0.07108547
   0.51512384  0.59341580  0.21325642
   0.39973915  0.51649267  0.35542738
   0.78435469  0.43956971  0.07108547
   0.66896999  0.36264655  0.21325642
   0.55358529  0.28572342  0.35542738
   0.93820083  0.20880049  0.07108547
   0.82281613  0.13187735  0.21325642
   0.70743144  0.05495421  0.35542738
   0.86127788  0.82418513  0.07108547
   0.74589318  0.74726200  0.21325642
   0.63050842  0.67033881  0.35542738
   0.03435459  0.18956974  0.00000000
   0.91896993  0.11264660  0.14217091
   0.80358523  0.03572347  0.28434190
   0.11127766  0.57418507  0.00000000
   0.99589300  0.49726200  0.14217091
   0.88050830  0.42033884  0.28434190
   0.26512384  0.34341592  0.00000000
   0.14973919  0.26649278  0.14217091
   0.03435449  0.18956965  0.28434190
   0.41896999  0.11264660  0.00000000
   0.30358532  0.03572347  0.14217091
   0.18820064  0.95880032  0.28434190
   0.18820076  0.95880044  0.00000000
   0.07281606  0.88187730  0.14217091
   0.95743138  0.80495423  0.28434190
   0.34204692  0.72803128  0.00000000
   0.22666223  0.65110815  0.14217091
   0.11127757  0.57418501  0.28434190
   0.49589309  0.49726200  0.00000000
   0.38050842  0.42033887  0.14217091
   0.26512373  0.34341574  0.28434190
   0.64973927  0.26649278  0.00000000
   0.53435463  0.18956965  0.14217091
   0.41896993  0.11264652  0.28434190
   0.80358541  0.03572357  0.00000000
   0.68820071  0.95880044  0.14217091
   0.57281607  0.88187730  0.28434190
   0.57281613  0.88187736  0.00000000
   0.45743144  0.80495429  0.14217091
   0.34204680  0.72803110  0.28434190
   0.72666234  0.65110815  0.00000000
   0.61127764  0.57418501  0.14217091
   0.49589294  0.49726185  0.28434190
   0.88050848  0.42033899  0.00000000
   0.76512384  0.34341586  0.14217091
   0.64973915  0.26649272  0.28434190
   0.95743161  0.80495429  0.00000000
   0.84204692  0.72803116  0.14217091
   0.72666228  0.65110803  0.28434190
   0.13050844  0.17033896  0.07108547
   0.01512377  0.09341583  0.21325642
   0.89973909  0.01649269  0.35542738
   0.05358534  0.78572363  0.07108547
   0.93820071  0.70880044  0.21325642
   0.82281601  0.63187730  0.35542738
   0.20743152  0.55495441  0.07108547
   0.09204687  0.47803125  0.21325642
   0.97666216  0.40110809  0.35542738
   0.36127770  0.32418513  0.07108547
   0.24589303  0.24726200  0.21325642
   0.13050833  0.17033885  0.35542738
   0.51512384  0.09341585  0.07108547
   0.39973921  0.01649272  0.21325642
   0.28435451  0.93956953  0.35542738
   0.28435466  0.93956983  0.07108547
   0.16896999  0.86264664  0.21325642
   0.05358529  0.78572351  0.35542738
   0.43820077  0.70880061  0.07108547
   0.32281607  0.63187742  0.21325642
   0.20743141  0.55495429  0.35542738
   0.59204698  0.47803128  0.07108547
   0.47666228  0.40110815  0.21325642
   0.36127761  0.32418501  0.35542738
   0.74589312  0.24726200  0.07108547
   0.63050842  0.17033887  0.21325642
   0.51512379  0.09341572  0.35542738
   0.89973927  0.01649279  0.07108547
   0.78435457  0.93956965  0.21325642
   0.66896993  0.86264652  0.35542738
   0.66897011  0.86264676  0.07108547
   0.55358541  0.78572363  0.21325642
   0.43820071  0.70880049  0.35542738
   0.82281625  0.63187742  0.07108547
   0.70743155  0.55495429  0.21325642
   0.59204680  0.47803113  0.35542738
   0.97666228  0.40110824  0.07108547
   0.86127758  0.32418507  0.21325642
   0.74589288  0.24726193  0.35542738
   0.66170180  0.96410263  0.46537358
   0.49503517  0.96410263  0.63524568
   0.32836843  0.96410263  0.80511779
   0.66170180  0.63076925  0.46537358
   0.49503517  0.63076925  0.63524568
   0.32836843  0.63076925  0.80511779
   0.66170180  0.29743591  0.46537358
   0.49503517  0.29743591  0.63524568
   0.32836843  0.29743591  0.80511779
   0.99503517  0.96410263  0.46537358
   0.82836843  0.96410263  0.63524568
   0.66170180  0.96410263  0.80511779
   0.99503517  0.63076925  0.46537358
   0.82836843  0.63076925  0.63524568
   0.66170180  0.63076925  0.80511779
   0.99503517  0.29743591  0.46537358
   0.82836843  0.29743591  0.63524568
   0.66170180  0.29743591  0.80511779
   0.32836843  0.96410263  0.46537358
   0.16170180  0.96410263  0.63524568
   0.99503517  0.96410263  0.80511779
   0.32836843  0.63076925  0.46537358
   0.16170180  0.63076925  0.63524568
   0.99503517  0.63076925  0.80511779
   0.32836843  0.29743591  0.46537358
   0.16170180  0.29743591  0.63524568
   0.99503517  0.29743591  0.80511779
   0.74503511  0.21410263  0.55030960
   0.57836843  0.21410263  0.72018170
   0.41170168  0.21410263  0.89005387
   0.74503511  0.88076937  0.55030960
   0.57836843  0.88076937  0.72018170
   0.41170168  0.88076937  0.89005387
   0.74503511  0.54743588  0.55030960
   0.57836843  0.54743588  0.72018170
   0.41170168  0.54743588  0.89005387
   0.07836843  0.21410263  0.55030960
   0.91170180  0.21410263  0.72018170
   0.74503505  0.21410263  0.89005387
   0.07836843  0.88076937  0.55030960
   0.91170180  0.88076937  0.72018170
   0.74503505  0.88076937  0.89005387
   0.07836843  0.54743588  0.55030960
   0.91170180  0.54743588  0.72018170
   0.74503505  0.54743588  0.89005387
   0.41170192  0.21410263  0.55030960
   0.24503517  0.21410263  0.72018170
   0.07836843  0.21410263  0.89005387
   0.41170192  0.88076937  0.55030960
   0.24503517  0.88076937  0.72018170
   0.07836843  0.88076937  0.89005387
   0.41170192  0.54743588  0.55030960
   0.24503517  0.54743588  0.72018170
   0.07836843  0.54743588  0.89005387
   0.82836843  0.13076925  0.46537358
   0.66170168  0.13076925  0.63524568
   0.49503517  0.13076925  0.80511779
   0.82836843  0.79743588  0.46537358
   0.66170168  0.79743588  0.63524568
   0.49503517  0.79743588  0.80511779
   0.82836843  0.46410257  0.46537358
   0.66170168  0.46410257  0.63524568
   0.49503517  0.46410257  0.80511779
   0.16170180  0.13076925  0.46537358
   0.99503511  0.13076925  0.63524568
   0.82836843  0.13076925  0.80511779
   0.16170180  0.79743588  0.46537358
   0.99503511  0.79743588  0.63524568
   0.82836843  0.79743588  0.80511779
   0.16170180  0.46410257  0.46537358
   0.99503511  0.46410257  0.63524568
   0.82836843  0.46410257  0.80511779
   0.49503517  0.13076925  0.46537358
   0.32836855  0.13076925  0.63524568
   0.16170192  0.13076925  0.80511779
   0.49503517  0.79743588  0.46537358
   0.32836855  0.79743588  0.63524568
   0.16170192  0.79743588  0.80511779
   0.49503517  0.46410257  0.46537358
   0.32836855  0.46410257  0.63524568
   0.16170192  0.46410257  0.80511779
   0.91170180  0.04743600  0.55030960
   0.74503511  0.04743600  0.72018170
   0.57836843  0.04743600  0.89005387
   0.91170180  0.71410263  0.55030960
   0.74503511  0.71410263  0.72018170
   0.57836843  0.71410263  0.89005387
   0.91170180  0.38076925  0.55030960
   0.74503511  0.38076925  0.72018170
   0.57836843  0.38076925  0.89005387
   0.24503517  0.04743600  0.55030960
   0.07836854  0.04743600  0.72018170
   0.91170180  0.04743600  0.89005387
   0.24503517  0.71410263  0.55030960
   0.07836854  0.71410263  0.72018170
   0.91170180  0.71410263  0.89005387
   0.24503517  0.38076925  0.55030960
   0.07836854  0.38076925  0.72018170
   0.91170180  0.38076925  0.89005387
   0.57836843  0.04743600  0.55030960
   0.41170168  0.04743600  0.72018170
   0.24503505  0.04743600  0.89005387
   0.57836843  0.71410263  0.55030960
   0.41170168  0.71410263  0.72018170
   0.24503505  0.71410263  0.89005387
   0.57836843  0.38076925  0.55030960
   0.41170168  0.38076925  0.72018170
   0.24503505  0.38076925  0.89005387
 
 position of ions in cartesian coordinates  (Angst):
  19.50132866 19.52813415  0.00000000
  17.24189540 18.02184469  2.71549988
  14.98246217 16.51555523  5.43100148
   1.42586724  7.47782840  0.00000000
  18.74818385  5.97153835  2.71549988
  16.48875060  4.46524889  5.43100148
   4.43844426  2.95896237  0.00000000
   2.17901059  1.45267305  2.71549988
  19.50132748 19.52813298  5.43100148
   2.93215612 15.00927045  0.00000000
   0.67272193 13.50298099  2.71549988
  17.99503905 11.99669153  5.43100148
   5.94473387 10.49040440  0.00000000
   3.68529975  8.98411494  2.71549988
   1.42586606  7.47782548  5.43100148
   8.95731075  5.97153953  0.00000000
   6.69787634  4.46524977  2.71549988
   4.43844281  2.95896031  5.43100148
  11.96988761  1.45267406  0.00000000
   9.71045322 19.52813298  2.71549988
   7.45101997 18.02184352  5.43100148
   7.45102289 18.02184820  0.00000000
   5.19158906 16.51555874  2.71549988
   2.93215524 15.00926810  5.43100148
  10.46359918 13.50298099  0.00000000
   8.20416477 11.99669153  2.71549988
   5.94473095 10.49040207  5.43100148
  13.47617489  8.98411612  0.00000000
  11.21674166  7.47782666  2.71549988
   8.95730724  5.97153720  5.43100148
  16.48875293  4.46524948  0.00000000
  14.22931969  2.95895973  2.71549988
  11.96988528  1.45267026  5.43100148
  14.98246567 16.51555756  0.00000000
  12.72303242 15.00926810  2.71549988
  10.46359803 13.50297864  5.43100148
  17.99504254 11.99669269  0.00000000
  15.73560930 10.49040323  2.71549988
  13.47617489  8.98411377  5.43100148
   0.29615121 11.62012032  1.35775036
  17.61846898 10.11383086  4.07325097
  15.35903457  8.60754199  6.78875198
   3.30872764  7.10125603  1.35775036
   1.04929390  5.59496657  4.07325097
  18.37161028  4.08867653  6.78875198
   6.32130509  2.58239028  1.35775036
   4.06187098  1.07610068  4.07325097
   1.80243686 19.15156061  6.78875198
   1.80243921 19.15156296  1.35775036
  19.12475626 17.64527350  4.07325097
  16.86532185 16.13898404  6.78875198
   4.81501666 14.63269809  1.35775036
   2.55558313 13.12640863  4.07325097
   0.29614882 11.62011917  6.78875198
   7.82759470 10.11383321  1.35775036
   5.56816088  8.60754316  4.07325097
   3.30872705  7.10125370  6.78875198
  10.84017158  5.59496657  1.35775036
   8.58073717  4.08867682  4.07325097
   6.32130335  2.58238736  6.78875198
  13.85274847  1.07610135  1.35775036
  11.59331406 19.15156061  4.07325097
   9.33388023 17.64527117  6.78875198
   9.33388431 17.64527466  1.35775036
   7.07444990 16.13898520  4.07325097
   4.81501551 14.63269574  6.78875198
  12.34646119 13.12640978  1.35775036
  10.08702678 11.62011917  4.07325097
   7.82759237 10.11382971  6.78875198
  15.35903807  8.60754375  1.35775036
  13.09960366  7.10125370  4.07325097
  10.84016925  5.59496424  6.78875198
  18.37161494  4.08867888  1.35775036
  16.11218053  2.58238912  4.07325097
  13.85274614  1.07609945  6.78875198
  16.86532884 16.13898637  1.35775036
  14.60589443 14.63269691  4.07325097
  12.34645886 13.12640628  6.78875198
   0.67272294  3.71210708  0.00000000
  17.99504021  2.20581748  2.71549988
  15.73560580  0.69952802  5.43100148
   2.17901145 11.24354796  0.00000000
  19.50132866  9.73725967  2.71549988
  17.24189425  8.23096962  5.43100148
   5.19158906  6.72468426  0.00000000
   2.93215553  5.21839480  2.71549988
   0.67272112  3.71210534  5.43100148
   8.20416595  2.20581748  0.00000000
   5.94473212  0.69952810  2.71549988
   3.68529801 18.77498709  5.43100148
   3.68530034 18.77498942  0.00000000
   1.42586593 17.26869996  2.71549988
  18.74818268 15.76241168  5.43100148
   6.69787749 14.25612572  0.00000000
   4.43844338 12.74983626  2.71549988
   2.17900971 11.24354680  5.43100148
   9.71045497  9.73725967  0.00000000
   7.45102114  8.23097021  2.71549988
   5.19158673  6.72468075  5.43100148
  12.72303242  5.21839480  0.00000000
  10.46359918  3.71210534  2.71549988
   8.20416477  2.20581588  5.43100148
  15.73560930  0.69953006  0.00000000
  13.47617489 18.77498942  2.71549988
  11.21674166 17.26869996  5.43100148
  11.21674281 17.26870114  0.00000000
   8.95730842 15.76241283  2.71549988
   6.69787516 14.25612222  5.43100148
  14.22932087 12.74983626  0.00000000
  11.96988646 11.24354680  2.71549988
   9.71045205  9.73725675  5.43100148
  17.24189773  8.23097254  0.00000000
  14.98246450  6.72468308  2.71549988
  12.72303009  5.21839362  5.43100148
  18.74818734 15.76241283  0.00000000
  16.48875293 14.25612337  2.71549988
  14.22931969 12.74983393  5.43100148
   2.55558372  3.33553473  1.35775036
   0.29614986  1.82924541  4.07325097
  17.61846665  0.32295577  6.78875198
   1.04929484 15.38584282  1.35775036
  18.37161261 13.87955218  4.07325097
  16.11217820 12.37326272  6.78875198
   4.06187245 10.86697794  1.35775036
   1.80243892  9.36068789  4.07325097
  19.12475508  7.85439785  6.78875198
   7.07444990  6.34811189  1.35775036
   4.81501607  4.84182243  4.07325097
   2.55558166  3.33553268  6.78875198
  10.08702678  1.82924570  1.35775036
   7.82759354  0.32295638  4.07325097
   5.56815913 18.39841473  6.78875198
   5.56816205 18.39842056  1.35775036
   3.30872823 16.89212993  4.07325097
   1.04929382 15.38584047  6.78875198
   8.58073835 13.87955569  1.35775036
   6.32130394 12.37326505  4.07325097
   4.06187011 10.86697559  6.78875198
  11.59331639  9.36068848  1.35775036
   9.33388198  7.85439902  4.07325097
   7.07444815  6.34810956  6.78875198
  14.60589327  4.84182243  1.35775036
  12.34645886  3.33553297  4.07325097
  10.08702563  1.82924322  6.78875198
  17.61847014  0.32295763  1.35775036
  15.35903574 18.39841706  4.07325097
  13.09960249 16.89212760  6.78875198
  13.09960599 16.89213228  1.35775036
  10.84017158 15.38584282  4.07325097
   8.58073717 13.87955336  6.78875198
  16.11218288 12.37326505  1.35775036
  13.85274847 10.86697559  4.07325097
  11.59331288  9.36068556  6.78875198
  19.12475741  7.85440076  1.35775036
  16.86532300  6.34811072  4.07325097
  14.60588859  4.84182098  6.78875198
  12.95727976 18.87881560  8.88875176
   9.69365541 18.87881560 12.13335147
   6.43002869 18.87881560 15.37795119
  12.95727976 12.35156517  8.88875176
   9.69365541 12.35156517 12.13335147
   6.43002869 12.35156517 15.37795119
  12.95727976  5.82431532  8.88875176
   9.69365541  5.82431532 12.13335147
   6.43002869  5.82431532 15.37795119
  19.48453084 18.87881560  8.88875176
  16.22090413 18.87881560 12.13335147
  12.95727976 18.87881560 15.37795119
  19.48453084 12.35156517  8.88875176
  16.22090413 12.35156517 12.13335147
  12.95727976 12.35156517 15.37795119
  19.48453084  5.82431532  8.88875176
  16.22090413  5.82431532 12.13335147
  12.95727976  5.82431532 15.37795119
   6.43002869 18.87881560  8.88875176
   3.16640432 18.87881560 12.13335147
  19.48453084 18.87881560 15.37795119
   6.43002869 12.35156517  8.88875176
   3.16640432 12.35156517 12.13335147
  19.48453084 12.35156517 15.37795119
   6.43002869  5.82431532  8.88875176
   3.16640432  5.82431532 12.13335147
  19.48453084  5.82431532 15.37795119
  14.58909195  4.19250387 10.51105103
  11.32546641  4.19250387 13.75565077
   8.06183971  4.19250387 17.00025161
  14.58909195 17.24700474 10.51105103
  11.32546641 17.24700474 13.75565077
   8.06183971 17.24700474 17.00025161
  14.58909195 10.71975197 10.51105103
  11.32546641 10.71975197 13.75565077
   8.06183971 10.71975197 17.00025161
   1.53459097  4.19250387 10.51105103
  17.85271748  4.19250387 13.75565077
  14.58909078  4.19250387 17.00025161
   1.53459097 17.24700474 10.51105103
  17.85271748 17.24700474 13.75565077
  14.58909078 17.24700474 17.00025161
   1.53459097 10.71975197 10.51105103
  17.85271748 10.71975197 13.75565077
  14.58909078 10.71975197 17.00025161
   8.06184439  4.19250387 10.51105103
   4.79821769  4.19250387 13.75565077
   1.53459097  4.19250387 17.00025161
   8.06184439 17.24700474 10.51105103
   4.79821769 17.24700474 13.75565077
   1.53459097 17.24700474 17.00025161
   8.06184439 10.71975197 10.51105103
   4.79821769 10.71975197 13.75565077
   1.53459097 10.71975197 17.00025161
  16.22090413  2.56069068  8.88875176
  12.95727743  2.56069068 12.13335147
   9.69365541  2.56069068 15.37795119
  16.22090413 15.61518922  8.88875176
  12.95727743 15.61518922 12.13335147
   9.69365541 15.61518922 15.37795119
  16.22090413  9.08793994  8.88875176
  12.95727743  9.08793994 12.13335147
   9.69365541  9.08793994 15.37795119
   3.16640432  2.56069068  8.88875176
  19.48452967  2.56069068 12.13335147
  16.22090413  2.56069068 15.37795119
   3.16640432 15.61518922  8.88875176
  19.48452967 15.61518922 12.13335147
  16.22090413 15.61518922 15.37795119
   3.16640432  9.08793994  8.88875176
  19.48452967  9.08793994 12.13335147
  16.22090413  9.08793994 15.37795119
   9.69365541  2.56069068  8.88875176
   6.43003104  2.56069068 12.13335147
   3.16640667  2.56069068 15.37795119
   9.69365541 15.61518922  8.88875176
   6.43003104 15.61518922 12.13335147
   3.16640667 15.61518922 15.37795119
   9.69365541  9.08793994  8.88875176
   6.43003104  9.08793994 12.13335147
   3.16640667  9.08793994 15.37795119
  17.85271748  0.92887982 10.51105103
  14.58909195  0.92887982 13.75565077
  11.32546641  0.92887982 17.00025161
  17.85271748 13.98337836 10.51105103
  14.58909195 13.98337836 13.75565077
  11.32546641 13.98337836 17.00025161
  17.85271748  7.45612792 10.51105103
  14.58909195  7.45612792 13.75565077
  11.32546641  7.45612792 17.00025161
   4.79821769  0.92887982 10.51105103
   1.53459332  0.92887982 13.75565077
  17.85271748  0.92887982 17.00025161
   4.79821769 13.98337836 10.51105103
   1.53459332 13.98337836 13.75565077
  17.85271748 13.98337836 17.00025161
   4.79821769  7.45612792 10.51105103
   1.53459332  7.45612792 13.75565077
  17.85271748  7.45612792 17.00025161
  11.32546641  0.92887982 10.51105103
   8.06183971  0.92887982 13.75565077
   4.79821534  0.92887982 17.00025161
  11.32546641 13.98337836 10.51105103
   8.06183971 13.98337836 13.75565077
   4.79821534 13.98337836 17.00025161
  11.32546641  7.45612792 10.51105103
   8.06183971  7.45612792 13.75565077
   4.79821534  7.45612792 17.00025161
 


--------------------------------------------------------------------------------------------------------


 k-point     1 :   0.0000 0.0000 0.0000  plane waves:  307927
 k-point     2 :   0.5000 0.0000 0.0000  plane waves:  307992
 k-point     3 :   0.0000 0.5000 0.0000  plane waves:  307992
 k-point     4 :   0.5000 0.5000 0.0000  plane waves:  308056
 k-point     5 :   0.0000 0.0000 0.5000  plane waves:  308034
 k-point     6 :   0.5000 0.0000 0.5000  plane waves:  308028
 k-point     7 :   0.0000 0.5000 0.5000  plane waves:  308028
 k-point     8 :   0.5000 0.5000 0.5000  plane waves:  307896

 maximum and minimum number of plane-waves per node :     19316    19189

 maximum number of plane-waves:    308056
 maximum index in each direction: 
   IXMAX=   42   IYMAX=   42   IZMAX=   41
   IXMIN=  -42   IYMIN=  -42   IZMIN=  -41


 real space projection operators:
  total allocation   :      63253.05 KBytes
  max/ min on nodes  :       4055.56       3827.16


 parallel 3D FFT for wavefunctions:
    minimum data exchange during FFTs selected (reduces bandwidth)
 parallel 3D FFT for charge:
    minimum data exchange during FFTs selected (reduces bandwidth)


 total amount of memory used by VASP MPI-rank0   918980. kBytes
=======================================================================

   base      :      30000. kBytes
   nonlr-proj:      25730. kBytes
   fftplans  :      41700. kBytes
   grid      :      31129. kBytes
   one-center:        275. kBytes
   wavefun   :     790146. kBytes
 
     INWAV:  cpu time      0.0000: real time      0.0001
 Broyden mixing: mesh for mixing (old mesh)
   NGX = 85   NGY = 85   NGZ = 83
  (NGX  =256   NGY  =256   NGZ  =252)
  gives a total of 599675 points

 initial charge density was supplied:
 charge density of overlapping atoms calculated
 number of electron    1056.0000000 magnetization       1.0000000
 keeping initial charge density in first step


--------------------------------------------------------------------------------------------------------


 Maximum index for non-local projection operator          333
 Maximum index for augmentation-charges         4277 (set IRDMAX)


--------------------------------------------------------------------------------------------------------


 First call to EWALD:  gamma=   0.091
 Maximum number of real-space cells 3x 3x 3
 Maximum number of reciprocal cells 3x 3x 3

    FEWALD:  cpu time      0.0092: real time      0.0093


[...]
      2.55558     13.12641      4.07325        -0.076558      0.096997     -0.064856
      0.29615     11.62012      6.78875         0.014899     -1.301556     -3.673046
      7.82759     10.11383      1.35775        -0.046009     -0.219927      0.104040
      5.56816      8.60754      4.07325         0.025775     -0.002840     -0.115828
      3.30873      7.10125      6.78875        -0.697105      0.028746      0.611586
     10.84017      5.59497      1.35775        -0.122758     -0.507807     -0.170767
      8.58074      4.08868      4.07325         0.045227     -0.041019     -0.098166
      6.32130      2.58239      6.78875        -0.081686     -0.011202      0.821440
     13.85275      1.07610      1.35775        -0.010242     -0.262670     -0.472478
     11.59331     19.15156      4.07325        -0.049006     -0.032922     -0.057447
      9.33388     17.64527      6.78875         0.702985     -0.050082      0.606710
      9.33388     17.64527      1.35775         0.027889     -0.109439     -0.066548
      7.07445     16.13899      4.07325        -0.042789      0.013745     -0.121762
      4.81502     14.63270      6.78875        -0.546979     -0.051713      0.278150
     12.34646     13.12641      1.35775        -0.124790     -0.416261     -0.267604
     10.08703     11.62012      4.07325         0.092792     -0.097628     -0.074482
      7.82759     10.11383      6.78875         0.313266      0.018847      0.434932
     15.35904      8.60754      1.35775        -0.185366     -0.153508     -0.458425
     13.09960      7.10125      4.07325         0.100838     -0.087686     -0.059559
     10.84017      5.59496      6.78875         0.899315      0.068600      0.639167
     18.37161      4.08868      1.35775         0.012418      0.212426     -0.538467
     16.11218      2.58239      4.07325        -0.015246     -0.006263      0.048738
     13.85275      1.07610      6.78875         0.353443     -0.042262      0.970668
     16.86533     16.13899      1.35775         0.154529      0.038269     -0.476826
     14.60589     14.63270      4.07325        -0.064706     -0.034262      0.005019
     12.34646     13.12641      6.78875         0.053417      0.988136     -2.634075
      0.67272      3.71211      0.00000        -0.634012     -0.814420      2.497793
     17.99504      2.20582      2.71550         0.100838     -0.087686      0.059559
     15.73561      0.69953      5.43100        -0.122758     -0.507807      0.170767
      2.17901     11.24355      0.00000         0.848163      1.081165      3.595297
     19.50133      9.73726      2.71550        -0.064706     -0.034262     -0.005019
     17.24189      8.23097      5.43100        -0.124790     -0.416261      0.267604
      5.19159      6.72468      0.00000         0.014899     -1.301556      3.673046
      2.93216      5.21839      2.71550         0.091874      0.021763     -0.029323
      0.67272      3.71211      5.43100        -0.185366     -0.153508      0.458425
      8.20417      2.20582      0.00000        -0.697105      0.028746     -0.611586
      5.94473      0.69953      2.71550         0.058643      0.034050      0.040768
      3.68530     18.77499      5.43100         0.012418      0.212426      0.538467
      3.68530     18.77499      0.00000        -0.250692      0.078343     -1.110701
      1.42587     17.26870      2.71550        -0.015246     -0.006263     -0.048738
     18.74818     15.76241      5.43100        -0.010242     -0.262670      0.472478
      6.69788     14.25613      0.00000        -0.888991     -0.007505     -0.526081
      4.43844     12.74984      2.71550        -0.116412      0.075386      0.030535
      2.17901     11.24355      5.43100         0.154529      0.038269      0.476826
      9.71045      9.73726      0.00000        -0.546979     -0.051713     -0.278150
      7.45102      8.23097      2.71550        -0.076558      0.096997      0.064856
      5.19159      6.72468      5.43100         0.083180      0.368222      0.351442
     12.72303      5.21839      0.00000         0.313266      0.018847     -0.434932
     10.46360      3.71211      2.71550         0.025775     -0.002840      0.115828
      8.20416      2.20582      5.43100        -0.031116      0.186270      0.116548
     15.73561      0.69953      0.00000         0.899315      0.068600     -0.639167
     13.47617     18.77499      2.71550         0.045227     -0.041019      0.098166
     11.21674     17.26870      5.43100        -0.011681      0.049750      0.140768
     11.21674     17.26870      0.00000        -0.081686     -0.011202     -0.821440
      8.95731     15.76241      2.71550        -0.048406      0.059975      0.092774
      6.69788     14.25612      5.43100         0.176978      0.557178      0.219778
     14.22932     12.74984      0.00000         0.702985     -0.050082     -0.606710
     11.96989     11.24355      2.71550        -0.042789      0.013745      0.121762
      9.71045      9.73726      5.43100         0.075369      0.286045     -0.105360
     17.24190      8.23097      0.00000         0.053417      0.988136      2.634075
     14.98246      6.72468      2.71550         0.092792     -0.097628      0.074482
     12.72303      5.21839      5.43100        -0.046009     -0.219927     -0.104040
     18.74819     15.76241      0.00000         0.353443     -0.042262     -0.970668
     16.48875     14.25612      2.71550        -0.049006     -0.032922      0.057447
     14.22932     12.74983      5.43100         0.027889     -0.109439      0.066548
      2.55558      3.33553      1.35775        -0.124790     -0.416261     -0.267604
      0.29615      1.82925      4.07325         0.092792     -0.097628     -0.074482
     17.61847      0.32296      6.78875         0.313266      0.018847      0.434932
      1.04929     15.38584      1.35775        -0.122758     -0.507807     -0.170767
     18.37161     13.87955      4.07325         0.045227     -0.041019     -0.098166
     16.11218     12.37326      6.78875        -0.081686     -0.011202      0.821440
      4.06187     10.86698      1.35775        -0.010242     -0.262670     -0.472478
      1.80244      9.36069      4.07325        -0.049006     -0.032922     -0.057447
     19.12476      7.85440      6.78875         0.702985     -0.050082      0.606710
      7.07445      6.34811      1.35775         0.154529      0.038269     -0.476826
      4.81502      4.84182      4.07325        -0.064706     -0.034262      0.005019
      2.55558      3.33553      6.78875         0.053417      0.988136     -2.634075
     10.08703      1.82925      1.35775         0.083180      0.368222     -0.351442
      7.82759      0.32296      4.07325         0.091874      0.021763      0.029323
      5.56816     18.39841      6.78875        -0.634012     -0.814420     -2.497793
      5.56816     18.39842      1.35775        -0.185366     -0.153508     -0.458425
      3.30873     16.89213      4.07325         0.100838     -0.087686     -0.059559
      1.04929     15.38584      6.78875         0.899315      0.068600      0.639167
      8.58074     13.87956      1.35775         0.012418      0.212426     -0.538467
      6.32130     12.37327      4.07325        -0.015246     -0.006263      0.048738
      4.06187     10.86698      6.78875         0.353443     -0.042262      0.970668
     11.59332      9.36069      1.35775         0.176978      0.557178     -0.219778
      9.33388      7.85440      4.07325        -0.116412      0.075386     -0.030535
      7.07445      6.34811      6.78875         0.848163      1.081165     -3.595297
     14.60589      4.84182      1.35775         0.075369      0.286045      0.105360
     12.34646      3.33553      4.07325        -0.076558      0.096997     -0.064856
     10.08703      1.82924      6.78875         0.014899     -1.301556     -3.673046
     17.61847      0.32296      1.35775        -0.046009     -0.219927      0.104040
     15.35904     18.39842      4.07325         0.025775     -0.002840     -0.115828
     13.09960     16.89213      6.78875        -0.697105      0.028746      0.611586
     13.09961     16.89213      1.35775        -0.031116      0.186270     -0.116548
     10.84017     15.38584      4.07325         0.058643      0.034050     -0.040768
      8.58074     13.87955      6.78875        -0.250692      0.078343      1.110701
     16.11218     12.37327      1.35775        -0.011681      0.049750     -0.140768
     13.85275     10.86698      4.07325        -0.048406      0.059975     -0.092774
     11.59331      9.36069      6.78875        -0.888991     -0.007505      0.526081
     19.12476      7.85440      1.35775         0.027889     -0.109439     -0.066548
     16.86532      6.34811      4.07325        -0.042789      0.013745     -0.121762
     14.60589      4.84182      6.78875        -0.546979     -0.051713      0.278150
     12.95728     18.87882      8.88875         0.515878     -0.181212     -1.685708
      9.69366     18.87882     12.13335         0.013796      0.044377     -0.024242
      6.43003     18.87882     15.37795         0.125355     -0.230118     -0.026753
     12.95728     12.35157      8.88875         0.388749     -0.761963      1.902869
      9.69366     12.35157     12.13335        -0.103663      0.061610      0.124823
      6.43003     12.35157     15.37795        -0.002550      0.079600     -0.207577
     12.95728      5.82432      8.88875        -0.122889     -0.015235     -1.169976
      9.69366      5.82432     12.13335         0.096226     -0.053242      0.067333
      6.43003      5.82432     15.37795        -0.116793      0.180896      0.031405
     19.48453     18.87882      8.88875         0.122385     -0.141554     -1.185814
     16.22090     18.87882     12.13335         0.096501     -0.122647      0.064442
     12.95728     18.87882     15.37795        -0.054714      0.099676      0.261069
     19.48453     12.35157      8.88875        -0.351835      1.141856      2.946578
     16.22090     12.35157     12.13335        -0.018156      0.009362     -0.024714
     12.95728     12.35157     15.37795        -0.084402     -0.245508      0.069997
     19.48453      5.82432      8.88875        -0.673847      0.238439     -1.722086
     16.22090      5.82432     12.13335        -0.087233      0.119758      0.099842
     12.95728      5.82432     15.37795         0.116945      0.203446     -0.279778
      6.43003     18.87882      8.88875         0.769680      1.011543      1.813028
      3.16640     18.87882     12.13335        -0.081084      0.035512      0.088545
     19.48453     18.87882     15.37795        -0.104155     -0.055647     -0.288762
      6.43003     12.35157      8.88875         0.140639     -0.098834     -1.669497
      3.16640     12.35157     12.13335         0.124397     -0.087574      0.097407
     19.48453     12.35157     15.37795         0.097007      0.161958      0.096886
      6.43003      5.82432      8.88875        -0.886562     -1.240095      2.891623
      3.16640      5.82432     12.13335        -0.055238     -0.014041     -0.019472
     19.48453      5.82432     15.37795         0.049110     -0.153305      0.208491
     14.58909      4.19250     10.51105        -0.104155     -0.055647      0.288762
     11.32547      4.19250     13.75565         0.096501     -0.122647     -0.064442
      8.06184      4.19250     17.00025         0.515878     -0.181212      1.685708
     14.58909     17.24700     10.51105         0.097007      0.161958     -0.096886
     11.32547     17.24700     13.75565        -0.018156      0.009362      0.024714
      8.06184     17.24700     17.00025         0.388749     -0.761963     -1.902869
     14.58909     10.71975     10.51105         0.049110     -0.153305     -0.208491
     11.32547     10.71975     13.75565        -0.087233      0.119758     -0.099842
      8.06184     10.71975     17.00025        -0.122889     -0.015235      1.169976
      1.53459      4.19250     10.51105         0.125355     -0.230118      0.026753
     17.85272      4.19250     13.75565        -0.081084      0.035512     -0.088545
     14.58909      4.19250     17.00025         0.122385     -0.141554      1.185814
      1.53459     17.24700     10.51105        -0.002550      0.079600      0.207577
     17.85272     17.24700     13.75565         0.124397     -0.087574     -0.097407
     14.58909     17.24700     17.00025        -0.351835      1.141856     -2.946578
      1.53459     10.71975     10.51105        -0.116793      0.180896     -0.031405
     17.85272     10.71975     13.75565        -0.055238     -0.014041      0.019472
     14.58909     10.71975     17.00025        -0.673847      0.238439      1.722086
      8.06184      4.19250     10.51105        -0.054714      0.099676     -0.261069
      4.79822      4.19250     13.75565         0.013796      0.044377      0.024242
      1.53459      4.19250     17.00025         0.769680      1.011543     -1.813028
      8.06184     17.24700     10.51105        -0.084402     -0.245508     -0.069997
      4.79822     17.24700     13.75565        -0.103663      0.061610     -0.124823
      1.53459     17.24700     17.00025         0.140639     -0.098834      1.669497
      8.06184     10.71975     10.51105         0.116945      0.203446      0.279778
      4.79822     10.71975     13.75565         0.096226     -0.053242     -0.067333
      1.53459     10.71975     17.00025        -0.886562     -1.240095     -2.891623
     16.22090      2.56069      8.88875         0.140639     -0.098834     -1.669497
     12.95728      2.56069     12.13335         0.124397     -0.087574      0.097407
      9.69366      2.56069     15.37795         0.097007      0.161958      0.096886
     16.22090     15.61519      8.88875        -0.886562     -1.240095      2.891623
     12.95728     15.61519     12.13335        -0.055238     -0.014041     -0.019472
      9.69366     15.61519     15.37795         0.049110     -0.153305      0.208491
     16.22090      9.08794      8.88875         0.769680      1.011543      1.813028
     12.95728      9.08794     12.13335        -0.081084      0.035512      0.088545
      9.69366      9.08794     15.37795        -0.104155     -0.055647     -0.288762
      3.16640      2.56069      8.88875         0.388749     -0.761963      1.902869
     19.48453      2.56069     12.13335        -0.103663      0.061610      0.124823
     16.22090      2.56069     15.37795        -0.002550      0.079600     -0.207577
      3.16640     15.61519      8.88875        -0.122889     -0.015235     -1.169976
     19.48453     15.61519     12.13335         0.096226     -0.053242      0.067333
     16.22090     15.61519     15.37795        -0.116793      0.180896      0.031405
      3.16640      9.08794      8.88875         0.515878     -0.181212     -1.685708
     19.48453      9.08794     12.13335         0.013796      0.044377     -0.024242
     16.22090      9.08794     15.37795         0.125355     -0.230118     -0.026753
      9.69366      2.56069      8.88875        -0.351835      1.141856      2.946578
      6.43003      2.56069     12.13335        -0.018156      0.009362     -0.024714
      3.16641      2.56069     15.37795        -0.084402     -0.245508      0.069997
      9.69366     15.61519      8.88875        -0.673847      0.238439     -1.722086
      6.43003     15.61519     12.13335        -0.087233      0.119758      0.099842
      3.16641     15.61519     15.37795         0.116945      0.203446     -0.279778
      9.69366      9.08794      8.88875         0.122385     -0.141554     -1.185814
      6.43003      9.08794     12.13335         0.096501     -0.122647      0.064442
      3.16641      9.08794     15.37795        -0.054714      0.099676      0.261069
     17.85272      0.92888     10.51105         0.116945      0.203446      0.279778
     14.58909      0.92888     13.75565         0.096226     -0.053242     -0.067333
     11.32547      0.92888     17.00025        -0.886562     -1.240095     -2.891623
     17.85272     13.98338     10.51105        -0.054714      0.099676     -0.261069
     14.58909     13.98338     13.75565         0.013796      0.044377      0.024242
     11.32547     13.98338     17.00025         0.769680      1.011543     -1.813028
     17.85272      7.45613     10.51105        -0.084402     -0.245508     -0.069997
     14.58909      7.45613     13.75565        -0.103663      0.061610     -0.124823
     11.32547      7.45613     17.00025         0.140639     -0.098834      1.669497
      4.79822      0.92888     10.51105         0.049110     -0.153305     -0.208491
      1.53459      0.92888     13.75565        -0.087233      0.119758     -0.099842
     17.85272      0.92888     17.00025        -0.122889     -0.015235      1.169976
      4.79822     13.98338     10.51105        -0.104155     -0.055647      0.288762
      1.53459     13.98338     13.75565         0.096501     -0.122647     -0.064442
     17.85272     13.98338     17.00025         0.515878     -0.181212      1.685708
      4.79822      7.45613     10.51105         0.097007      0.161958     -0.096886
      1.53459      7.45613     13.75565        -0.018156      0.009362      0.024714
     17.85272      7.45613     17.00025         0.388749     -0.761963     -1.902869
     11.32547      0.92888     10.51105        -0.116793      0.180896     -0.031405
      8.06184      0.92888     13.75565        -0.055238     -0.014041      0.019472
      4.79822      0.92888     17.00025        -0.673847      0.238439      1.722086
     11.32547     13.98338     10.51105         0.125355     -0.230118      0.026753
      8.06184     13.98338     13.75565        -0.081084      0.035512     -0.088545
      4.79822     13.98338     17.00025         0.122385     -0.141554      1.185814
     11.32547      7.45613     10.51105        -0.002550      0.079600      0.207577
      8.06184      7.45613     13.75565         0.124397     -0.087574     -0.097407
      4.79822      7.45613     17.00025        -0.351835      1.141856     -2.946578
 -----------------------------------------------------------------------------------
    total drift:                                0.196994     -0.024123      0.013067


--------------------------------------------------------------------------------------------------------



  FREE ENERGIE OF THE ION-ELECTRON SYSTEM (eV)
  ---------------------------------------------------
  free  energy   TOTEN  =     -1172.48237693 eV

  energy  without entropy=    -1172.47460295  energy(sigma->0) =    -1172.47848994
 


--------------------------------------------------------------------------------------------------------


    POTLOK:  cpu time      3.2284: real time      3.2486


--------------------------------------------------------------------------------------------------------


     LOOP+:  cpu time   5641.4183: real time   5696.1719
    4ORBIT:  cpu time      0.0000: real time      0.0000

 total amount of memory used by VASP MPI-rank0   918980. kBytes
=======================================================================

   base      :      30000. kBytes
   nonlr-proj:      25730. kBytes
   fftplans  :      41700. kBytes
   grid      :      31129. kBytes
   one-center:        275. kBytes
   wavefun   :     790146. kBytes
 
  
  
 General timing and accounting informations for this job:
 ========================================================
  
                  Total CPU time used (sec):     5960.548
                            User time (sec):     5689.635
                          System time (sec):      270.913
                         Elapsed time (sec):     6022.367
  
                   Maximum memory used (kb):     1233128.
                   Average memory used (kb):          N/A
  
                          Minor page faults:      1034425
                          Major page faults:          957
                 Voluntary context switches:         3452
