       N       E                     dE             d eps       ncg     rms          rms(c)
DAV:   1     0.196858637779E+04    0.19686E+04   -0.21441E+05 13824   0.173E+03
DAV:   2    -0.361177091426E+03   -0.23298E+04   -0.22469E+04 16184   0.215E+02
DAV:   3    -0.577994043377E+03   -0.21682E+03   -0.21060E+03 17064   0.573E+01
DAV:   4    -0.585768907933E+03   -0.77749E+01   -0.76550E+01 16352   0.117E+01
DAV:   5    -0.586058369303E+03   -0.28946E+00   -0.28780E+00 18296   0.222E+00    0.319E+01
DAV:   6    -0.576758882908E+03    0.92995E+01   -0.14719E+01 16624   0.795E+00    0.145E+01
DAV:   7    -0.576659199959E+03    0.99683E-01   -0.13932E+01 16736   0.811E+00    0.605E+00
DAV:   8    -0.576040091618E+03    0.61911E+00   -0.36233E+00 16720   0.456E+00    0.164E+00
DAV:   9    -0.576061792576E+03   -0.21701E-01   -0.95192E-01 16272   0.142E+00    0.111E+00
DAV:  10    -0.576053353674E+03    0.84389E-02   -0.11446E-01 16152   0.589E-01    0.652E-01
DAV:  11    -0.576053482602E+03   -0.12893E-03   -0.31099E-02 15896   0.291E-01    0.399E-01
DAV:  12    -0.576053255132E+03    0.22747E-03   -0.87571E-03 16728   0.187E-01    0.196E-01
DAV:  13    -0.576053508221E+03   -0.25309E-03   -0.45517E-03 17000   0.128E-01    0.112E-01
DAV:  14    -0.576053201625E+03    0.30660E-03   -0.23201E-03 17136   0.930E-02    0.509E-02
DAV:  15    -0.576053216425E+03   -0.14800E-04   -0.37314E-04 15632   0.346E-02    0.434E-02
DAV:  16    -0.576053237601E+03   -0.21176E-04   -0.87622E-05 15816   0.143E-02    0.334E-02
DAV:  17    -0.576053249299E+03   -0.11698E-04   -0.39028E-05 16016   0.888E-03    0.127E-02
DAV:  18    -0.576053250347E+03   -0.10483E-05   -0.11483E-05 16152   0.568E-03    0.985E-03
DAV:  19    -0.576053252549E+03   -0.22021E-05   -0.30728E-06 15552   0.293E-03    0.752E-03
DAV:  20    -0.576053256729E+03   -0.41796E-05   -0.42756E-06 16344   0.304E-03    0.462E-03
DAV:  21    -0.576053258133E+03   -0.14041E-05   -0.14146E-06 16504   0.185E-03    0.446E-03
DAV:  22    -0.576053258196E+03   -0.62981E-07   -0.19325E-07  9496   0.792E-04
   1 F= -.57605326E+03 E0= -.57605255E+03  d E =-.141181E-02  mag=     1.0000
