 264 264   0   0
  0.2770664E+02  0.1946760E-08  0.1946760E-08  0.1930025E-08  0.5000000E-15
  1.000000000000000E-004
  CAR 
 Si and Ge interface calculation         
      6.64471032     -8.91209781  301      4.06852214      1.00000000
     -8.912  0.0000E+00  0.0000E+00  0.0000E+00  0.0000E+00
     -8.860  0.0000E+00  0.0000E+00  0.0000E+00  0.0000E+00
     -8.808  0.0000E+00  0.0000E+00  0.0000E+00  0.0000E+00
     -8.757  0.0000E+00  0.0000E+00  0.0000E+00  0.0000E+00
     -8.705  0.0000E+00  0.0000E+00  0.0000E+00  0.0000E+00
     -8.653  0.0000E+00  0.0000E+00  0.0000E+00  0.0000E+00
     -8.601  0.0000E+00  0.0000E+00  0.0000E+00  0.0000E+00
     -8.549  0.0000E+00  0.0000E+00  0.0000E+00  0.0000E+00
     -8.497  0.0000E+00  0.0000E+00  0.0000E+00  0.0000E+00
     -8.445  0.0000E+00  0.0000E+00  0.0000E+00  0.0000E+00
     -8.394  0.0000E+00  0.0000E+00  0.0000E+00  0.0000E+00
     -8.342  0.0000E+00  0.0000E+00  0.0000E+00  0.0000E+00
     -8.290  0.0000E+00  0.0000E+00  0.0000E+00  0.0000E+00
     -8.238  0.1450E-04  0.4169E-05  0.7518E-06  0.2162E-06
     -8.186  0.9826E+01  0.9686E+01  0.5096E+00  0.5023E+00
     -8.134  0.1934E+02  0.1917E+02  0.1512E+01  0.1497E+01
     -8.082  0.1888E+02  0.1905E+02  0.2491E+01  0.2484E+01
     -8.031  0.1415E+02  0.1331E+02  0.3225E+01  0.3175E+01
     -7.979  0.5541E+01  0.6400E+01  0.3512E+01  0.3506E+01
     -7.927  0.1494E+02  0.1370E+02  0.4287E+01  0.4217E+01
     -7.875  0.3268E+02  0.3382E+02  0.5982E+01  0.5970E+01
     -7.823  0.2456E+02  0.2370E+02  0.7255E+01  0.7199E+01
     -7.771  0.2126E+02  0.2148E+02  0.8358E+01  0.8313E+01
     -7.719  0.1223E+02  0.1296E+02  0.8992E+01  0.8985E+01
     -7.668  0.1945E+02  0.1957E+02  0.1000E+02  0.1000E+02
     -7.616  0.9625E+01  0.9638E+01  0.1050E+02  0.1050E+02
     -7.564  0.8249E+01  0.6831E+01  0.1093E+02  0.1085E+02
     -7.512  0.2473E+02  0.2453E+02  0.1221E+02  0.1213E+02
     -7.460  0.2510E+02  0.2661E+02  0.1351E+02  0.1351E+02
     -7.408  0.2870E+02  0.2880E+02  0.1500E+02  0.1500E+02
     -7.356  0.9227E+01  0.8849E+01  0.1548E+02  0.1546E+02
     -7.305  0.2582E+02  0.2489E+02  0.1682E+02  0.1675E+02
     -7.253  0.3274E+02  0.3211E+02  0.1852E+02  0.1841E+02
     -7.201  0.3290E+02  0.3326E+02  0.2022E+02  0.2014E+02
     -7.149  0.2013E+02  0.2019E+02  0.2126E+02  0.2119E+02
     -7.097  0.2956E+02  0.2986E+02  0.2280E+02  0.2273E+02
     -7.045  0.5962E+02  0.5985E+02  0.2589E+02  0.2584E+02
     -6.993  0.3065E+02  0.3119E+02  0.2748E+02  0.2746E+02
     -6.942  0.2971E+02  0.2942E+02  0.2902E+02  0.2898E+02
     -6.890  0.3805E+02  0.3855E+02  0.3099E+02  0.3098E+02
     -6.838  0.2797E+02  0.2635E+02  0.3244E+02  0.3235E+02
     -6.786  0.6553E+02  0.6614E+02  0.3584E+02  0.3578E+02
     -6.734  0.2894E+02  0.2790E+02  0.3734E+02  0.3722E+02
     -6.682  0.5343E+02  0.5448E+02  0.4011E+02  0.4005E+02
     -6.630  0.4771E+02  0.4757E+02  0.4259E+02  0.4252E+02
     -6.579  0.4305E+02  0.4209E+02  0.4482E+02  0.4470E+02
     -6.527  0.4233E+02  0.4237E+02  0.4701E+02  0.4690E+02
     -6.475  0.4744E+02  0.4730E+02  0.4947E+02  0.4935E+02
     -6.423  0.3598E+02  0.3645E+02  0.5134E+02  0.5124E+02
     -6.371  0.5113E+02  0.5287E+02  0.5399E+02  0.5398E+02
     -6.319  0.3609E+02  0.3434E+02  0.5586E+02  0.5576E+02
     -6.267  0.4608E+02  0.4639E+02  0.5825E+02  0.5817E+02
     -6.216  0.4720E+02  0.4701E+02  0.6070E+02  0.6060E+02
     -6.164  0.7861E+02  0.7857E+02  0.6478E+02  0.6468E+02
     -6.112  0.6481E+02  0.6409E+02  0.6814E+02  0.6800E+02
     -6.060  0.6221E+02  0.6223E+02  0.7136E+02  0.7123E+02
     -6.008  0.8130E+02  0.8235E+02  0.7558E+02  0.7550E+02
     -5.956  0.4408E+02  0.4495E+02  0.7786E+02  0.7783E+02
     -5.904  0.4606E+02  0.4221E+02  0.8025E+02  0.8002E+02
     -5.853  0.7636E+02  0.7812E+02  0.8421E+02  0.8407E+02
     -5.801  0.7384E+02  0.7280E+02  0.8804E+02  0.8784E+02
     -5.749  0.7588E+02  0.7483E+02  0.9198E+02  0.9173E+02
     -5.697  0.5957E+02  0.6214E+02  0.9507E+02  0.9495E+02
     -5.645  0.9274E+02  0.9026E+02  0.9987E+02  0.9963E+02
     -5.593  0.9519E+02  0.9429E+02  0.1048E+03  0.1045E+03
     -5.541  0.8144E+02  0.8207E+02  0.1090E+03  0.1088E+03
     -5.490  0.6789E+02  0.7064E+02  0.1126E+03  0.1124E+03
     -5.438  0.7909E+02  0.7635E+02  0.1167E+03  0.1164E+03
     -5.386  0.7350E+02  0.7436E+02  0.1205E+03  0.1203E+03
     -5.334  0.5592E+02  0.5713E+02  0.1234E+03  0.1232E+03
     -5.282  0.8461E+02  0.8236E+02  0.1278E+03  0.1275E+03
     -5.230  0.6390E+02  0.6671E+02  0.1311E+03  0.1309E+03
     -5.178  0.7718E+02  0.7639E+02  0.1351E+03  0.1349E+03
     -5.127  0.5809E+02  0.5723E+02  0.1381E+03  0.1379E+03
     -5.075  0.6101E+02  0.6101E+02  0.1412E+03  0.1410E+03
     -5.023  0.9133E+02  0.9176E+02  0.1460E+03  0.1458E+03
     -4.971  0.6548E+02  0.6441E+02  0.1494E+03  0.1491E+03
     -4.919  0.7312E+02  0.7438E+02  0.1532E+03  0.1530E+03
     -4.867  0.6832E+02  0.6873E+02  0.1567E+03  0.1566E+03
     -4.815  0.8441E+02  0.7908E+02  0.1611E+03  0.1607E+03
     -4.764  0.1333E+03  0.1359E+03  0.1680E+03  0.1677E+03
     -4.712  0.1074E+03  0.1078E+03  0.1736E+03  0.1733E+03
     -4.660  0.1157E+03  0.1151E+03  0.1796E+03  0.1793E+03
     -4.608  0.9445E+02  0.9542E+02  0.1845E+03  0.1842E+03
     -4.556  0.1115E+03  0.1102E+03  0.1903E+03  0.1899E+03
     -4.504  0.1020E+03  0.1015E+03  0.1955E+03  0.1952E+03
     -4.452  0.1009E+03  0.1020E+03  0.2008E+03  0.2005E+03
     -4.401  0.1028E+03  0.1011E+03  0.2061E+03  0.2057E+03
     -4.349  0.8189E+02  0.8439E+02  0.2104E+03  0.2101E+03
     -4.297  0.6213E+02  0.6126E+02  0.2136E+03  0.2133E+03
     -4.245  0.6562E+02  0.6807E+02  0.2170E+03  0.2168E+03
     -4.193  0.8809E+02  0.8653E+02  0.2215E+03  0.2213E+03
     -4.141  0.9569E+02  0.9587E+02  0.2265E+03  0.2263E+03
     -4.089  0.6068E+02  0.6191E+02  0.2297E+03  0.2295E+03
     -4.038  0.6328E+02  0.6466E+02  0.2329E+03  0.2328E+03
     -3.986  0.6398E+02  0.6053E+02  0.2363E+03  0.2360E+03
     -3.934  0.7146E+02  0.7277E+02  0.2400E+03  0.2397E+03
     -3.882  0.7206E+02  0.7186E+02  0.2437E+03  0.2435E+03
     -3.830  0.7657E+02  0.7719E+02  0.2477E+03  0.2475E+03
     -3.778  0.7224E+02  0.7188E+02  0.2514E+03  0.2512E+03
     -3.726  0.7349E+02  0.7453E+02  0.2552E+03  0.2551E+03
     -3.675  0.6538E+02  0.6555E+02  0.2586E+03  0.2585E+03
     -3.623  0.5132E+02  0.5224E+02  0.2613E+03  0.2612E+03
     -3.571  0.6770E+02  0.6830E+02  0.2648E+03  0.2647E+03
     -3.519  0.3994E+02  0.3573E+02  0.2669E+03  0.2666E+03
     -3.467  0.9588E+02  0.9438E+02  0.2718E+03  0.2715E+03
     -3.415  0.5839E+02  0.6092E+02  0.2749E+03  0.2746E+03
     -3.364  0.8753E+02  0.8705E+02  0.2794E+03  0.2791E+03
     -3.312  0.6588E+02  0.6723E+02  0.2828E+03  0.2826E+03
     -3.260  0.7410E+02  0.7336E+02  0.2867E+03  0.2864E+03
     -3.208  0.7941E+02  0.8007E+02  0.2908E+03  0.2906E+03
     -3.156  0.7894E+02  0.7865E+02  0.2949E+03  0.2947E+03
     -3.104  0.9171E+02  0.9270E+02  0.2996E+03  0.2995E+03
     -3.052  0.7211E+02  0.7175E+02  0.3034E+03  0.3032E+03
     -3.001  0.4386E+02  0.4161E+02  0.3056E+03  0.3053E+03
     -2.949  0.1055E+03  0.1061E+03  0.3111E+03  0.3108E+03
     -2.897  0.8650E+02  0.8564E+02  0.3156E+03  0.3153E+03
     -2.845  0.8464E+02  0.8734E+02  0.3200E+03  0.3198E+03
     -2.793  0.6434E+02  0.6423E+02  0.3233E+03  0.3231E+03
     -2.741  0.9669E+02  0.9463E+02  0.3283E+03  0.3280E+03
     -2.689  0.1121E+03  0.1131E+03  0.3341E+03  0.3339E+03
     -2.638  0.8501E+02  0.8395E+02  0.3386E+03  0.3383E+03
     -2.586  0.1079E+03  0.1046E+03  0.3441E+03  0.3437E+03
     -2.534  0.1338E+03  0.1358E+03  0.3511E+03  0.3507E+03
     -2.482  0.1197E+03  0.1207E+03  0.3573E+03  0.3570E+03
     -2.430  0.8353E+02  0.8540E+02  0.3616E+03  0.3614E+03
     -2.378  0.9955E+02  0.9739E+02  0.3668E+03  0.3665E+03
     -2.326  0.9463E+02  0.9590E+02  0.3717E+03  0.3714E+03
     -2.275  0.1050E+03  0.1018E+03  0.3771E+03  0.3767E+03
     -2.223  0.7088E+02  0.7824E+02  0.3808E+03  0.3808E+03
     -2.171  0.5294E+02  0.4753E+02  0.3836E+03  0.3832E+03
     -2.119  0.6093E+02  0.6278E+02  0.3867E+03  0.3865E+03
     -2.067  0.4941E+02  0.5140E+02  0.3893E+03  0.3892E+03
     -2.015  0.8732E+02  0.8415E+02  0.3938E+03  0.3935E+03
     -1.963  0.8388E+02  0.8423E+02  0.3982E+03  0.3979E+03
     -1.912  0.9343E+02  0.9328E+02  0.4030E+03  0.4027E+03
     -1.860  0.9839E+02  0.9960E+02  0.4081E+03  0.4079E+03
     -1.808  0.7069E+02  0.7133E+02  0.4118E+03  0.4116E+03
     -1.756  0.9589E+02  0.9449E+02  0.4167E+03  0.4165E+03
     -1.704  0.8212E+02  0.8221E+02  0.4210E+03  0.4208E+03
     -1.652  0.9466E+02  0.9700E+02  0.4259E+03  0.4258E+03
     -1.600  0.7236E+02  0.6775E+02  0.4297E+03  0.4293E+03
     -1.549  0.8493E+02  0.8783E+02  0.4341E+03  0.4339E+03
     -1.497  0.7585E+02  0.7506E+02  0.4380E+03  0.4378E+03
     -1.445  0.5894E+02  0.6220E+02  0.4411E+03  0.4410E+03
     -1.393  0.3841E+02  0.3561E+02  0.4431E+03  0.4428E+03
     -1.341  0.8168E+02  0.8086E+02  0.4473E+03  0.4470E+03
     -1.289  0.5357E+02  0.5686E+02  0.4501E+03  0.4500E+03
     -1.237  0.4442E+02  0.4323E+02  0.4524E+03  0.4522E+03
     -1.186  0.6067E+02  0.6035E+02  0.4555E+03  0.4553E+03
     -1.134  0.5182E+02  0.5076E+02  0.4582E+03  0.4580E+03
     -1.082  0.4757E+02  0.4938E+02  0.4607E+03  0.4605E+03
     -1.030  0.6079E+02  0.6059E+02  0.4638E+03  0.4637E+03
     -0.978  0.4031E+02  0.4147E+02  0.4659E+03  0.4658E+03
     -0.926  0.4696E+02  0.4680E+02  0.4683E+03  0.4682E+03
     -0.874  0.5684E+02  0.5571E+02  0.4713E+03  0.4711E+03
     -0.823  0.5558E+02  0.5170E+02  0.4742E+03  0.4738E+03
     -0.771  0.8112E+02  0.8616E+02  0.4784E+03  0.4783E+03
     -0.719  0.4593E+02  0.4387E+02  0.4808E+03  0.4806E+03
     -0.667  0.6404E+02  0.6378E+02  0.4841E+03  0.4839E+03
     -0.615  0.4417E+02  0.4728E+02  0.4864E+03  0.4863E+03
     -0.563  0.3395E+02  0.3365E+02  0.4881E+03  0.4881E+03
     -0.511  0.2146E+02  0.2282E+02  0.4893E+03  0.4892E+03
     -0.460  0.3985E+02  0.3792E+02  0.4913E+03  0.4912E+03
     -0.408  0.3940E+02  0.3796E+02  0.4934E+03  0.4932E+03
     -0.356  0.4937E+02  0.4954E+02  0.4959E+03  0.4958E+03
     -0.304  0.8691E+02  0.8573E+02  0.5004E+03  0.5002E+03
     -0.252  0.6304E+02  0.6403E+02  0.5037E+03  0.5035E+03
     -0.200  0.8242E+02  0.8285E+02  0.5080E+03  0.5078E+03
     -0.148  0.9715E+02  0.9268E+02  0.5130E+03  0.5126E+03
     -0.097  0.1203E+03  0.1210E+03  0.5192E+03  0.5189E+03
     -0.045  0.1199E+03  0.1200E+03  0.5255E+03  0.5251E+03
      0.007  0.1030E+03  0.1052E+03  0.5308E+03  0.5306E+03
      0.059  0.1413E+03  0.1363E+03  0.5381E+03  0.5376E+03
      0.111  0.1530E+03  0.1558E+03  0.5461E+03  0.5457E+03
      0.163  0.7819E+02  0.7981E+02  0.5501E+03  0.5499E+03
      0.215  0.6588E+02  0.6677E+02  0.5535E+03  0.5533E+03
      0.266  0.1106E+03  0.1084E+03  0.5593E+03  0.5589E+03
      0.318  0.7555E+02  0.7920E+02  0.5632E+03  0.5631E+03
      0.370  0.7272E+02  0.7074E+02  0.5670E+03  0.5667E+03
      0.422  0.1253E+03  0.1248E+03  0.5735E+03  0.5732E+03
      0.474  0.6901E+02  0.7061E+02  0.5770E+03  0.5769E+03
      0.526  0.1066E+03  0.1045E+03  0.5826E+03  0.5823E+03
      0.578  0.1338E+03  0.1324E+03  0.5895E+03  0.5891E+03
      0.629  0.1383E+03  0.1396E+03  0.5967E+03  0.5964E+03
      0.681  0.1498E+03  0.1482E+03  0.6044E+03  0.6041E+03
      0.733  0.1265E+03  0.1294E+03  0.6110E+03  0.6108E+03
      0.785  0.1100E+03  0.1068E+03  0.6167E+03  0.6163E+03
      0.837  0.1136E+03  0.1178E+03  0.6226E+03  0.6224E+03
      0.889  0.9586E+02  0.9600E+02  0.6276E+03  0.6274E+03
      0.941  0.1005E+03  0.9845E+02  0.6328E+03  0.6325E+03
      0.992  0.9631E+02  0.9755E+02  0.6378E+03  0.6376E+03
      1.044  0.1443E+03  0.1395E+03  0.6453E+03  0.6448E+03
      1.096  0.1507E+03  0.1543E+03  0.6531E+03  0.6528E+03
      1.148  0.1145E+03  0.1120E+03  0.6590E+03  0.6586E+03
      1.200  0.1711E+03  0.1694E+03  0.6679E+03  0.6674E+03
      1.252  0.1862E+03  0.1866E+03  0.6775E+03  0.6771E+03
      1.304  0.1767E+03  0.1759E+03  0.6867E+03  0.6862E+03
      1.355  0.1912E+03  0.1910E+03  0.6966E+03  0.6961E+03
      1.407  0.1835E+03  0.1841E+03  0.7061E+03  0.7056E+03
      1.459  0.1396E+03  0.1439E+03  0.7134E+03  0.7131E+03
      1.511  0.1896E+03  0.1809E+03  0.7232E+03  0.7225E+03
      1.563  0.2184E+03  0.2224E+03  0.7345E+03  0.7340E+03
      1.615  0.1872E+03  0.1873E+03  0.7442E+03  0.7437E+03
      1.667  0.1725E+03  0.1730E+03  0.7532E+03  0.7527E+03
      1.718  0.1843E+03  0.1807E+03  0.7627E+03  0.7621E+03
      1.770  0.1786E+03  0.1835E+03  0.7720E+03  0.7716E+03
      1.822  0.1765E+03  0.1728E+03  0.7812E+03  0.7805E+03
      1.874  0.1591E+03  0.1642E+03  0.7894E+03  0.7890E+03
      1.926  0.1926E+03  0.1859E+03  0.7994E+03  0.7987E+03
      1.978  0.2072E+03  0.2062E+03  0.8101E+03  0.8094E+03
      2.030  0.1525E+03  0.1558E+03  0.8181E+03  0.8175E+03
      2.081  0.2017E+03  0.2026E+03  0.8285E+03  0.8280E+03
      2.133  0.1705E+03  0.1713E+03  0.8374E+03  0.8368E+03
      2.185  0.2022E+03  0.2009E+03  0.8478E+03  0.8473E+03
      2.237  0.1490E+03  0.1476E+03  0.8556E+03  0.8549E+03
      2.289  0.1860E+03  0.1844E+03  0.8652E+03  0.8645E+03
      2.341  0.1473E+03  0.1491E+03  0.8728E+03  0.8722E+03
      2.393  0.2136E+03  0.2191E+03  0.8839E+03  0.8836E+03
      2.444  0.1426E+03  0.1415E+03  0.8913E+03  0.8909E+03
      2.496  0.1481E+03  0.1455E+03  0.8990E+03  0.8984E+03
      2.548  0.1788E+03  0.1770E+03  0.9083E+03  0.9076E+03
      2.600  0.1548E+03  0.1570E+03  0.9163E+03  0.9158E+03
      2.652  0.1102E+03  0.1117E+03  0.9220E+03  0.9216E+03
      2.704  0.1499E+03  0.1458E+03  0.9298E+03  0.9291E+03
      2.756  0.1405E+03  0.1413E+03  0.9371E+03  0.9364E+03
      2.807  0.1341E+03  0.1321E+03  0.9440E+03  0.9433E+03
      2.859  0.1463E+03  0.1499E+03  0.9516E+03  0.9511E+03
      2.911  0.1296E+03  0.1331E+03  0.9583E+03  0.9580E+03
      2.963  0.9777E+02  0.9359E+02  0.9634E+03  0.9628E+03
      3.015  0.1381E+03  0.1361E+03  0.9706E+03  0.9699E+03
      3.067  0.1283E+03  0.1323E+03  0.9772E+03  0.9767E+03
      3.119  0.1255E+03  0.1204E+03  0.9837E+03  0.9830E+03
      3.170  0.8802E+02  0.8988E+02  0.9883E+03  0.9876E+03
      3.222  0.1245E+03  0.1268E+03  0.9947E+03  0.9942E+03
      3.274  0.1170E+03  0.1121E+03  0.1001E+04  0.1000E+04
      3.326  0.1047E+03  0.1119E+03  0.1006E+04  0.1006E+04
      3.378  0.6771E+02  0.7105E+02  0.1010E+04  0.1010E+04
      3.430  0.8811E+02  0.8105E+02  0.1014E+04  0.1014E+04
      3.481  0.8073E+02  0.8391E+02  0.1019E+04  0.1018E+04
      3.533  0.7968E+02  0.7675E+02  0.1023E+04  0.1022E+04
      3.585  0.9154E+02  0.9543E+02  0.1027E+04  0.1027E+04
      3.637  0.7631E+02  0.7544E+02  0.1031E+04  0.1031E+04
      3.689  0.4461E+02  0.4295E+02  0.1034E+04  0.1033E+04
      3.741  0.6077E+02  0.6383E+02  0.1037E+04  0.1036E+04
      3.793  0.4485E+02  0.4414E+02  0.1039E+04  0.1039E+04
      3.844  0.6536E+02  0.6672E+02  0.1043E+04  0.1042E+04
      3.896  0.3289E+02  0.3545E+02  0.1044E+04  0.1044E+04
      3.948  0.5486E+02  0.4055E+02  0.1047E+04  0.1046E+04
      4.000  0.7832E+02  0.8578E+02  0.1051E+04  0.1051E+04
      4.052  0.6451E+02  0.6365E+02  0.1054E+04  0.1054E+04
      4.104  0.1023E+03  0.1005E+03  0.1060E+04  0.1059E+04
      4.156  0.9217E+02  0.8642E+02  0.1065E+04  0.1064E+04
      4.207  0.1075E+03  0.1051E+03  0.1070E+04  0.1069E+04
      4.259  0.1005E+03  0.1006E+03  0.1075E+04  0.1074E+04
      4.311  0.8210E+02  0.9393E+02  0.1080E+04  0.1079E+04
      4.363  0.1142E+03  0.1031E+03  0.1086E+04  0.1084E+04
      4.415  0.1206E+03  0.1221E+03  0.1092E+04  0.1091E+04
      4.467  0.1419E+03  0.1467E+03  0.1099E+04  0.1098E+04
      4.519  0.1027E+03  0.1041E+03  0.1104E+04  0.1104E+04
      4.570  0.9712E+02  0.9699E+02  0.1109E+04  0.1109E+04
      4.622  0.9339E+02  0.9604E+02  0.1114E+04  0.1114E+04
      4.674  0.1249E+03  0.1231E+03  0.1121E+04  0.1120E+04
      4.726  0.1116E+03  0.1092E+03  0.1127E+04  0.1126E+04
      4.778  0.1237E+03  0.1256E+03  0.1133E+04  0.1132E+04
      4.830  0.1240E+03  0.1253E+03  0.1139E+04  0.1139E+04
      4.882  0.1128E+03  0.1128E+03  0.1145E+04  0.1145E+04
      4.933  0.1065E+03  0.1076E+03  0.1151E+04  0.1150E+04
      4.985  0.1175E+03  0.1156E+03  0.1157E+04  0.1156E+04
      5.037  0.1279E+03  0.1275E+03  0.1164E+04  0.1163E+04
      5.089  0.1423E+03  0.1399E+03  0.1171E+04  0.1170E+04
      5.141  0.1091E+03  0.1147E+03  0.1177E+04  0.1176E+04
      5.193  0.8977E+02  0.8777E+02  0.1181E+04  0.1181E+04
      5.245  0.1127E+03  0.1153E+03  0.1187E+04  0.1187E+04
      5.296  0.1039E+03  0.9990E+02  0.1192E+04  0.1192E+04
      5.348  0.1498E+03  0.1524E+03  0.1200E+04  0.1200E+04
      5.400  0.1244E+03  0.1190E+03  0.1207E+04  0.1206E+04
      5.452  0.1462E+03  0.1510E+03  0.1214E+04  0.1214E+04
      5.504  0.1215E+03  0.1204E+03  0.1221E+04  0.1220E+04
      5.556  0.1556E+03  0.1574E+03  0.1229E+04  0.1228E+04
      5.608  0.1371E+03  0.1324E+03  0.1236E+04  0.1235E+04
      5.659  0.1187E+03  0.1221E+03  0.1242E+04  0.1241E+04
      5.711  0.1174E+03  0.1166E+03  0.1248E+04  0.1247E+04
      5.763  0.1297E+03  0.1336E+03  0.1255E+04  0.1254E+04
      5.815  0.1390E+03  0.1286E+03  0.1262E+04  0.1261E+04
      5.867  0.1229E+03  0.1219E+03  0.1268E+04  0.1267E+04
      5.919  0.5458E+02  0.7013E+02  0.1271E+04  0.1271E+04
      5.971  0.1703E+02  0.2021E+02  0.1272E+04  0.1272E+04
      6.022  0.0000E+00  0.0000E+00  0.1272E+04  0.1272E+04
      6.074  0.0000E+00  0.0000E+00  0.1272E+04  0.1272E+04
      6.126  0.0000E+00  0.0000E+00  0.1272E+04  0.1272E+04
      6.178  0.0000E+00  0.0000E+00  0.1272E+04  0.1272E+04
      6.230  0.0000E+00  0.0000E+00  0.1272E+04  0.1272E+04
      6.282  0.0000E+00  0.0000E+00  0.1272E+04  0.1272E+04
      6.334  0.0000E+00  0.0000E+00  0.1272E+04  0.1272E+04
      6.385  0.0000E+00  0.0000E+00  0.1272E+04  0.1272E+04
      6.437  0.0000E+00  0.0000E+00  0.1272E+04  0.1272E+04
      6.489  0.0000E+00  0.0000E+00  0.1272E+04  0.1272E+04
      6.541  0.0000E+00  0.0000E+00  0.1272E+04  0.1272E+04
      6.593  0.0000E+00  0.0000E+00  0.1272E+04  0.1272E+04
      6.645  0.0000E+00  0.0000E+00  0.1272E+04  0.1272E+04
