<?xml version="1.0" encoding="ISO-8859-1"?>
<modeling>
 <generator>
  <i name="program" type="string">vasp </i>
  <i name="version" type="string">6.4.3  </i>
  <i name="subversion" type="string">19Mar24 (build Oct 22 2024 11:23:12) complex                          parallel </i>
  <i name="platform" type="string">LinuxIFC </i>
  <i name="date" type="string">2025 06 04 </i>
  <i name="time" type="string">07:17:55 </i>
 </generator>
 <incar>
  <i type="string" name="SYSTEM">Si and Ge interface calculation</i>
  <i type="int" name="ISTART">     0</i>
  <i type="logical" name="ADDGRID"> T  </i>
  <i type="int" name="ISPIN">     2</i>
  <i name="AMIX">      0.60000000</i>
  <i type="int" name="ICHARG">     2</i>
  <i type="int" name="NELM">   100</i>
  <i name="EDIFF">      0.00000010</i>
  <i name="ENCUT">    700.00000000</i>
  <i name="ENAUG">    900.00000000</i>
  <i type="int" name="NBANDS">   231</i>
  <i name="NUPDOWN">      1.00000000</i>
  <i name="NELECT">    384.00000000</i>
  <i type="string" name="LREAL">AUTO</i>
  <i type="int" name="ISMEAR">     0</i>
  <i name="SIGMA">      0.01000000</i>
  <i type="int" name="LMAXMIX">     6</i>
  <i type="logical" name="LWAVE"> F  </i>
  <i type="logical" name="LVTOT"> F  </i>
  <i type="logical" name="LVHAR"> T  </i>
  <i type="logical" name="LASPH"> T  </i>
  <i type="logical" name="LMIXTAU"> T  </i>
 </incar>
 <primitive_cell>
  <structure name="primitive_cell" >
   <crystal>
    <varray name="basis" >
     <v>       2.53024530      -3.09890361       0.00000000 </v>
     <v>       7.59073590       6.19781312       0.00000000 </v>
     <v>       0.00000000       0.00000000      13.73516273 </v>
    </varray>
    <i name="volume">    538.48631863 </i>
    <varray name="rec_basis" >
     <v>       0.15808753      -0.19361679       0.00000000 </v>
     <v>       0.07904369       0.06453893       0.00000000 </v>
     <v>       0.00000000       0.00000000       0.07280584 </v>
    </varray>
   </crystal>
   <varray name="positions" >
    <v>       0.58891666       0.27405492       0.42041528 </v>
    <v>       0.08891662       0.94072263       0.00000002 </v>
    <v>       0.58891661       0.60738894       0.08408309 </v>
    <v>       0.08891665       0.27405550       0.16816616 </v>
    <v>       0.58891649       0.94072233       0.25224918 </v>
    <v>       0.08891570       0.60738884       0.33633217 </v>
    <v>       0.58891656       0.52405498       0.42041531 </v>
    <v>       0.08891649       0.19072281       0.00000001 </v>
    <v>       0.58891621       0.85738921       0.08408308 </v>
    <v>       0.08891679       0.52405545       0.16816616 </v>
    <v>       0.58891638       0.19072216       0.25224918 </v>
    <v>       0.08891631       0.85738879       0.33633226 </v>
    <v>       0.71267232       0.02802328       0.92041534 </v>
    <v>       0.21267260       0.69469075       0.50000006 </v>
    <v>       0.71267268       0.36135733       0.58408308 </v>
    <v>       0.21267225       0.02802390       0.66816616 </v>
    <v>       0.71267155       0.69469057       0.75224924 </v>
    <v>       0.21267230       0.36135679       0.83633232 </v>
    <v>       0.71267239       0.27802338       0.92041534 </v>
    <v>       0.21267214       0.94469093       0.50000006 </v>
    <v>       0.71267281       0.61135728       0.58408308 </v>
    <v>       0.21267238       0.27802397       0.66816616 </v>
    <v>       0.71267222       0.94469031       0.75224918 </v>
    <v>       0.21267232       0.61135691       0.83633232 </v>
   </varray>
  </structure>
  <varray name="primitive_index" >
   <v type="int" >        1 </v>
   <v type="int" >       32 </v>
   <v type="int" >        3 </v>
   <v type="int" >       34 </v>
   <v type="int" >       35 </v>
   <v type="int" >       30 </v>
   <v type="int" >       37 </v>
   <v type="int" >       44 </v>
   <v type="int" >       45 </v>
   <v type="int" >       22 </v>
   <v type="int" >       23 </v>
   <v type="int" >       48 </v>
   <v type="int" >       73 </v>
   <v type="int" >       56 </v>
   <v type="int" >       75 </v>
   <v type="int" >       76 </v>
   <v type="int" >       59 </v>
   <v type="int" >       60 </v>
   <v type="int" >       61 </v>
   <v type="int" >       86 </v>
   <v type="int" >       63 </v>
   <v type="int" >       64 </v>
   <v type="int" >       89 </v>
   <v type="int" >       96 </v>
  </varray>
 </primitive_cell>
 <kpoints>
  <generation param="Gamma">
   <v type="int" name="divisions">       3        3        2 </v>
   <v name="usershift">      0.00000000       0.00000000       0.00000000 </v>
   <v name="genvec1">      0.33333333       0.00000000       0.00000000 </v>
   <v name="genvec2">      0.00000000       0.33333333       0.00000000 </v>
   <v name="genvec3">      0.00000000       0.00000000       0.50000000 </v>
   <v name="shift">      0.00000000       0.00000000       0.00000000 </v>
  </generation>
  <varray name="kpointlist" >
   <v>       0.00000000       0.00000000       0.00000000 </v>
   <v>       0.33333333       0.00000000       0.00000000 </v>
   <v>       0.00000000      -0.33333333       0.00000000 </v>
   <v>       0.33333333       0.33333333       0.00000000 </v>
   <v>      -0.33333333       0.33333333       0.00000000 </v>
   <v>       0.00000000       0.00000000       0.50000000 </v>
   <v>       0.33333333       0.00000000       0.50000000 </v>
   <v>       0.00000000      -0.33333333       0.50000000 </v>
   <v>       0.33333333       0.33333333       0.50000000 </v>
   <v>      -0.33333333       0.33333333       0.50000000 </v>
  </varray>
  <varray name="weights" >
   <v>       0.05555556 </v>
   <v>       0.11111111 </v>
   <v>       0.11111111 </v>
   <v>       0.11111111 </v>
   <v>       0.11111111 </v>
   <v>       0.05555556 </v>
   <v>       0.11111111 </v>
   <v>       0.11111111 </v>
   <v>       0.11111111 </v>
   <v>       0.11111111 </v>
  </varray>
 </kpoints>
 <parameters>
  <separator name="general" >
   <i type="string" name="SYSTEM">Si and Ge interface calculation</i>
   <i type="logical" name="LCOMPAT"> F  </i>
  </separator>
  <separator name="electronic" >
   <i type="string" name="PREC">normal</i>
   <i name="ENMAX">    700.00000000</i>
   <i name="ENAUG">    900.00000000</i>
   <i name="EDIFF">      0.00000010</i>
   <i type="int" name="IALGO">    38</i>
   <i type="int" name="IWAVPR">    10</i>
   <i type="int" name="NBANDS">   232</i>
   <i type="int" name="NBANDSLOW">    -1</i>
   <i type="int" name="NBANDSHIGH">    -1</i>
   <i name="NELECT">    384.00000000</i>
   <i type="int" name="TURBO">     0</i>
   <i type="int" name="IRESTART">     0</i>
   <i type="int" name="NREBOOT">     0</i>
   <i type="int" name="NMIN">     0</i>
   <i name="EREF">      0.00000000</i>
   <separator name="electronic smearing" >
    <i type="int" name="ISMEAR">     0</i>
    <i name="SIGMA">      0.01000000</i>
    <i name="KSPACING">      0.50000000</i>
    <i type="logical" name="KGAMMA"> T  </i>
    <i type="logical" name="KBLOWUP"> T  </i>
   </separator>
   <separator name="electronic projectors" >
    <i type="logical" name="LREAL"> T  </i>
    <v name="ROPT">     -0.00050000</v>
    <i type="int" name="LMAXPAW">  -100</i>
    <i type="int" name="LMAXMIX">     6</i>
    <i type="logical" name="NLSPLINE"> F  </i>
   </separator>
   <separator name="electronic startup" >
    <i type="int" name="ISTART">     0</i>
    <i type="int" name="ICHARG">     2</i>
    <i type="int" name="INIWAV">     1</i>
   </separator>
   <separator name="electronic spin" >
    <i type="int" name="ISPIN">     2</i>
    <i type="logical" name="LNONCOLLINEAR"> F  </i>
    <v name="MAGMOM">      0.01041667      0.01041667      0.01041667      0.01041667      0.01041667      0.01041667      0.01041667      0.01041667      0.01041667      0.01041667      0.01041667      0.01041667      0.01041667      0.01041667      0.01041667      0.01041667      0.01041667      0.01041667      0.01041667      0.01041667
      0.01041667      0.01041667      0.01041667      0.01041667      0.01041667      0.01041667      0.01041667      0.01041667      0.01041667      0.01041667      0.01041667      0.01041667      0.01041667      0.01041667      0.01041667      0.01041667      0.01041667      0.01041667      0.01041667      0.01041667
      0.01041667      0.01041667      0.01041667      0.01041667      0.01041667      0.01041667      0.01041667      0.01041667      0.01041667      0.01041667      0.01041667      0.01041667      0.01041667      0.01041667      0.01041667      0.01041667      0.01041667      0.01041667      0.01041667      0.01041667
      0.01041667      0.01041667      0.01041667      0.01041667      0.01041667      0.01041667      0.01041667      0.01041667      0.01041667      0.01041667      0.01041667      0.01041667      0.01041667      0.01041667      0.01041667      0.01041667      0.01041667      0.01041667      0.01041667      0.01041667
      0.01041667      0.01041667      0.01041667      0.01041667      0.01041667      0.01041667      0.01041667      0.01041667      0.01041667      0.01041667      0.01041667      0.01041667      0.01041667      0.01041667      0.01041667      0.01041667</v>
    <i name="NUPDOWN">      1.00000000</i>
    <i type="logical" name="LSORBIT"> F  </i>
    <v name="SAXIS">      0.00000000      0.00000000      1.00000000</v>
    <i type="logical" name="LSPIRAL"> F  </i>
    <v name="QSPIRAL">      0.00000000      0.00000000      0.00000000</v>
    <i type="logical" name="LZEROZ"> F  </i>
   </separator>
   <separator name="electronic exchange-correlation" >
    <i type="logical" name="LASPH"> T  </i>
   </separator>
   <separator name="electronic convergence" >
    <i type="int" name="NELM">   100</i>
    <i type="int" name="NELMDL">    -5</i>
    <i type="int" name="NELMIN">     2</i>
    <i name="ENINI">    700.00000000</i>
    <separator name="electronic convergence detail" >
     <i type="logical" name="LDIAG"> T  </i>
     <i type="logical" name="LSUBROT"> F  </i>
     <i name="WEIMIN">      0.00000000</i>
     <i name="EBREAK">      0.00000000</i>
     <i name="DEPER">      0.30000000</i>
     <i type="int" name="NRMM">     4</i>
     <i name="TIME">      0.40000000</i>
    </separator>
   </separator>
   <separator name="electronic mixer" >
    <i name="AMIX">      0.60000000</i>
    <i name="BMIX">      1.00000000</i>
    <i name="AMIN">      0.10000000</i>
    <i name="AMIX_MAG">      2.40000000</i>
    <i name="BMIX_MAG">      1.00000000</i>
    <separator name="electronic mixer details" >
     <i type="int" name="IMIX">     4</i>
     <i type="logical" name="MIXFIRST"> F  </i>
     <i type="int" name="MAXMIX">   -45</i>
     <i name="WC">    100.00000000</i>
     <i type="int" name="INIMIX">     1</i>
     <i type="int" name="MIXPRE">     1</i>
     <i type="int" name="MREMOVE">     5</i>
    </separator>
   </separator>
   <separator name="electronic dipolcorrection" >
    <i type="logical" name="LDIPOL"> F  </i>
    <i type="logical" name="LMONO"> F  </i>
    <i type="int" name="IDIPOL">     0</i>
    <i name="EPSILON">      1.00000000</i>
    <v name="DIPOL">   -100.00000000   -100.00000000   -100.00000000</v>
    <i name="EFIELD">      0.00000000</i>
    <i type="logical" name="LVACPOTAV"> F  </i>
   </separator>
  </separator>
  <separator name="grids" >
   <i type="int" name="NGX">    84</i>
   <i type="int" name="NGY">    84</i>
   <i type="int" name="NGZ">    90</i>
   <i type="int" name="NGXF">   168</i>
   <i type="int" name="NGYF">   168</i>
   <i type="int" name="NGZF">   180</i>
   <i type="logical" name="ADDGRID"> T  </i>
  </separator>
  <separator name="ionic" >
   <i type="int" name="NSW">     0</i>
   <i type="int" name="IBRION">    -1</i>
   <i type="int" name="MDALGO">     0</i>
   <i type="int" name="ISIF">     2</i>
   <i name="PSTRESS">      0.00000000</i>
   <i name="EDIFFG">      0.00000100</i>
   <i type="int" name="NFREE">     0</i>
   <i name="POTIM">      0.50000000</i>
   <i name="SMASS">     -3.00000000</i>
   <i name="SCALEE">      1.00000000</i>
  </separator>
  <separator name="ionic md" >
   <i name="TEBEG">      0.00010000</i>
   <i name="TEEND">      0.00010000</i>
   <i type="int" name="NBLOCK">     1</i>
   <i type="int" name="KBLOCK">     1</i>
   <i type="int" name="NPACO">   256</i>
   <i name="APACO">     10.00000000</i>
  </separator>
  <separator name="symmetry" >
   <i type="int" name="ISYM">     2</i>
   <i name="SYMPREC">      0.00001000</i>
  </separator>
  <separator name="dos" >
   <i type="int" name="LORBIT">     0</i>
   <v name="RWIGS">     -1.00000000</v>
   <i type="int" name="NEDOS">   301</i>
   <i name="EMIN">     10.00000000</i>
   <i name="EMAX">    -10.00000000</i>
   <i name="EFERMI">      0.00000000</i>
  </separator>
  <separator name="writing" >
   <i type="int" name="NWRITE">     2</i>
   <i type="logical" name="LWAVE"> F  </i>
   <i type="logical" name="LDOWNSAMPLE"> F  </i>
   <i type="logical" name="LCHARG"> T  </i>
   <i type="logical" name="LPARD"> F  </i>
   <i type="logical" name="LVTOT"> F  </i>
   <i type="logical" name="LVHAR"> T  </i>
   <i type="logical" name="LELF"> F  </i>
   <i type="logical" name="LOPTICS"> F  </i>
   <v name="STM">      0.00000000      0.00000000      0.00000000      0.00000000      0.00000000      0.00000000      0.00000000</v>
  </separator>
  <separator name="performance" >
   <i type="int" name="NPAR">     4</i>
   <i type="int" name="NSIM">     4</i>
   <i type="int" name="NBLK">    -1</i>
   <i type="logical" name="LPLANE"> T  </i>
   <i type="logical" name="LSCALAPACK"> T  </i>
   <i type="logical" name="LSCAAWARE"> F  </i>
   <i type="logical" name="LSCALU"> F  </i>
   <i type="logical" name="LASYNC"> F  </i>
   <i type="logical" name="LORBITALREAL"> F  </i>
  </separator>
  <separator name="miscellaneous" >
   <i type="int" name="IDIOT">     3</i>
   <i type="int" name="PHON_NSTRUCT">    -1</i>
   <i type="logical" name="LMUSIC"> F  </i>
   <v name="POMASS">     72.61000000</v>
   <v name="DARWINR">      0.00000000</v>
   <v name="DARWINV">      1.00000000</v>
   <i type="logical" name="LCORR"> T  </i>
  </separator>
  <i type="logical" name="GGA_COMPAT"> T  </i>
  <i type="logical" name="LBERRY"> F  </i>
  <i type="int" name="ICORELEVEL">     0</i>
  <i type="logical" name="LDAU"> F  </i>
  <i type="int" name="I_CONSTRAINED_M">     0</i>
  <separator name="electronic exchange-correlation" >
   <i type="string" name="GGA    ">PE</i>
   <i type="string" name="XC_C">1</i>
   <i type="int" name="VOSKOWN">     0</i>
   <i type="logical" name="LHFCALC"> F  </i>
   <i type="string" name="PRECFOCK"></i>
   <i type="logical" name="LSYMGRAD"> F  </i>
   <i type="logical" name="LHFONE"> F  </i>
   <i type="logical" name="LRHFCALC"> F  </i>
   <i type="logical" name="LTHOMAS"> F  </i>
   <i type="logical" name="LMODELHF"> F  </i>
   <i type="logical" name="LFOCKACE"> F  </i>
   <i name="ENCUT4O">     -1.00000000</i>
   <i type="int" name="EXXOEP">     0</i>
   <i type="int" name="FOURORBIT">     0</i>
   <i name="AEXX">      0.00000000</i>
   <i name="HFALPHA">      0.00000000</i>
   <i name="MCALPHA">      0.00000000</i>
   <i name="ALDAX">      1.00000000</i>
   <i name="AGGAX">      1.00000000</i>
   <i name="AMGGAX">      1.00000000</i>
   <i name="ALDAC">      1.00000000</i>
   <i name="AGGAC">      1.00000000</i>
   <i name="AMGGAC">      1.00000000</i>
   <i type="int" name="NKREDX">     1</i>
   <i type="int" name="NKREDY">     1</i>
   <i type="int" name="NKREDZ">     1</i>
   <i type="logical" name="SHIFTRED"> F  </i>
   <i type="logical" name="ODDONLY"> F  </i>
   <i type="logical" name="EVENONLY"> F  </i>
   <i type="int" name="LMAXFOCK">     0</i>
   <i type="int" name="NMAXFOCKAE">     0</i>
   <i type="logical" name="LFOCKAEDFT"> F  </i>
   <i name="HFSCREEN">      0.00000000</i>
   <i name="HFSCREENC">      0.00000000</i>
   <i type="int" name="NBANDSGWLOW">     0</i>
  </separator>
  <separator name="vdW DFT" >
   <i type="logical" name="LUSE_VDW"> F  </i>
   <i type="int" name="IVDW_NL">    -1</i>
   <i type="logical" name="LSPIN_VDW"> F  </i>
   <i name="ZAB_VDW">     -0.84910000</i>
   <i name="GAMMA_VDW">      1.39626340</i>
   <i name="ALPHA_VDW">      0.00000000</i>
   <i name="PARAM1">      0.12340000</i>
   <i name="PARAM2">      1.00000000</i>
   <i name="BPARAM">      6.30000000</i>
   <i name="CPARAM">      0.00930000</i>
  </separator>
  <separator name="model GW" >
   <i type="int" name="MODEL_GW">     0</i>
   <i name="MODEL_EPS0">     13.46215877</i>
   <i name="MODEL_ALPHA">      1.00000000</i>
  </separator>
  <separator name="linear response parameters" >
   <i type="logical" name="LEPSILON"> F  </i>
   <i type="logical" name="LRPA"> F  </i>
   <i type="logical" name="LNABLA"> F  </i>
   <i type="logical" name="LVEL"> F  </i>
   <i name="CSHIFT">      0.10000000</i>
   <i name="OMEGAMAX">     -1.00000000</i>
   <i name="DEG_THRESHOLD">      0.00200000</i>
   <i name="RTIME">     -0.10000000</i>
   <i name="WPLASMAI">      0.00000000</i>
   <v name="DFIELD">      0.00000000      0.00000000      0.00000000</v>
   <v name="WPLASMA">      0.00000000      0.00000000      0.00000000      0.00000000      0.00000000      0.00000000      0.00000000      0.00000000      0.00000000</v>
  </separator>
  <separator name="orbital magnetization" >
   <i type="logical" name="NUCIND"> F  </i>
   <v name="MAGPOS">      0.00000000      0.00000000      0.00000000</v>
   <i type="logical" name="LNICSALL"> T  </i>
   <i type="logical" name="ORBITALMAG"> F  </i>
   <i type="logical" name="LMAGBLOCH"> F  </i>
   <i type="logical" name="LCHIMAG"> F  </i>
   <i type="logical" name="LGAUGE"> T  </i>
   <i type="int" name="MAGATOM">     0</i>
   <v name="MAGDIPOL">      0.00000000      0.00000000      0.00000000</v>
   <v name="AVECCONST">      0.00000000      0.00000000      0.00000000</v>
  </separator>
  <separator name="response functions" >
   <i type="logical" name="LALL_IN_ONE"> F  </i>
   <i type="int" name="IALL_IN_ONE">    -1</i>
   <i type="int" name="NBANDS_WAVE">    -1</i>
   <i type="logical" name="LFINITE_TEMPERATURE"> F  </i>
   <i type="logical" name="LADDER"> F  </i>
   <i type="logical" name="LRPAFORCE"> F  </i>
   <i type="logical" name="LFXC"> F  </i>
   <i type="logical" name="LHARTREE"> T  </i>
   <i type="int" name="IBSE">     0</i>
   <v type="int" name="KPOINT">    -1     0     0     0</v>
   <i type="logical" name="LTCTC"> F  </i>
   <i type="logical" name="LTCTE"> F  </i>
   <i type="logical" name="LTETE"> F  </i>
   <i type="logical" name="LTRIPLET"> F  </i>
   <i type="logical" name="LFXCEPS"> F  </i>
   <i type="logical" name="LFXHEG"> F  </i>
   <i type="int" name="NATURALO">     2</i>
   <i type="logical" name="LHOLEGF"> F  </i>
   <i type="logical" name="L2ORDER"> F  </i>
   <i type="logical" name="LDMP1"> F  </i>
   <i type="logical" name="LMP2LT"> F  </i>
   <i type="logical" name="LSMP2LT"> F  </i>
   <i type="logical" name="LGWLF"> F  </i>
   <i name="ENCUTGW">     -1.60000002</i>
   <i name="ENCUTGWSOFT">     -1.60000002</i>
   <i name="ENCUTLF">     -1.00000000</i>
   <i type="logical" name="ESF_SPLINES"> F  </i>
   <i name="ESF_CONV">      0.01000000</i>
   <i type="int" name="ESF_NINTER">    15</i>
   <i type="int" name="LMAXMP2">    -1</i>
   <i name="SCISSOR">      0.00000000</i>
   <i type="int" name="NOMEGA">     0</i>
   <i type="int" name="NOMEGAR">     0</i>
   <i type="int" name="NBANDSGW">    -1</i>
   <i type="int" name="NBANDSO">    -1</i>
   <i type="int" name="NBANDSV">    -1</i>
   <i type="int" name="NELMGW">     1</i>
   <i type="int" name="NELMHF">     1</i>
   <i type="int" name="DIM">     3</i>
   <i type="int" name="IESPILON">     4</i>
   <i type="int" name="ANTIRES">     0</i>
   <i name="OMEGAMAX">    -30.00000000</i>
   <i name="OMEGAMIN">    -30.00000000</i>
   <i name="OMEGATL">   -200.00000000</i>
   <i type="int" name="OMEGAGRID">     0</i>
   <i name="CSHIFT">     -0.10000000</i>
   <i type="logical" name="LSELFENERGY"> F  </i>
   <i type="logical" name="LSPECTRAL"> F  </i>
   <i type="logical" name="LSPECTRALGW"> F  </i>
   <i type="logical" name="LSINGLES"> F  </i>
   <i type="logical" name="LFERMIGW"> F  </i>
   <i type="logical" name="ODDONLYGW"> F  </i>
   <i type="logical" name="EVENONLYGW"> F  </i>
   <i type="int" name="NKREDLFX">     1</i>
   <i type="int" name="NKREDLFY">     1</i>
   <i type="int" name="NKREDLFZ">     1</i>
   <i type="int" name="MAXMEM">  2800</i>
   <i type="int" name="TELESCOPE">     0</i>
   <i type="int" name="NTAUPAR">    -1</i>
   <i type="int" name="NOMEGAPAR">    -1</i>
   <i name="DAMP_NEWTON">      0.80000001</i>
   <i name="LAMBDA">      1.00000000</i>
  </separator>
  <separator name="External order field" >
   <i name="OFIELD_KAPPA">      0.00000000</i>
   <v name="OFIELD_K">      0.00000000      0.00000000      0.00000000</v>
   <i name="OFIELD_Q6_NEAR">      0.00000000</i>
   <i name="OFIELD_Q6_FAR">      0.00000000</i>
   <i name="OFIELD_A">      0.00000000</i>
  </separator>
  <separator name="optional k-points parameters" >
   <i type="int" name="KPOINTS_OPT_MODE">     1</i>
   <i type="logical" name="LKPOINTS_OPT"> F  </i>
  </separator>
 </parameters>
 <atominfo>
  <atoms>      96 </atoms>
  <types>       1 </types>
  <array name="atoms" >
   <dimension dim="1">ion</dimension>
   <field type="string">element</field>
   <field type="int">atomtype</field>
   <set>
    <rc><c>Ge</c><c>   1</c></rc>
    <rc><c>Ge</c><c>   1</c></rc>
    <rc><c>Ge</c><c>   1</c></rc>
    <rc><c>Ge</c><c>   1</c></rc>
    <rc><c>Ge</c><c>   1</c></rc>
    <rc><c>Ge</c><c>   1</c></rc>
    <rc><c>Ge</c><c>   1</c></rc>
    <rc><c>Ge</c><c>   1</c></rc>
    <rc><c>Ge</c><c>   1</c></rc>
    <rc><c>Ge</c><c>   1</c></rc>
    <rc><c>Ge</c><c>   1</c></rc>
    <rc><c>Ge</c><c>   1</c></rc>
    <rc><c>Ge</c><c>   1</c></rc>
    <rc><c>Ge</c><c>   1</c></rc>
    <rc><c>Ge</c><c>   1</c></rc>
    <rc><c>Ge</c><c>   1</c></rc>
    <rc><c>Ge</c><c>   1</c></rc>
    <rc><c>Ge</c><c>   1</c></rc>
    <rc><c>Ge</c><c>   1</c></rc>
    <rc><c>Ge</c><c>   1</c></rc>
    <rc><c>Ge</c><c>   1</c></rc>
    <rc><c>Ge</c><c>   1</c></rc>
    <rc><c>Ge</c><c>   1</c></rc>
    <rc><c>Ge</c><c>   1</c></rc>
    <rc><c>Ge</c><c>   1</c></rc>
    <rc><c>Ge</c><c>   1</c></rc>
    <rc><c>Ge</c><c>   1</c></rc>
    <rc><c>Ge</c><c>   1</c></rc>
    <rc><c>Ge</c><c>   1</c></rc>
    <rc><c>Ge</c><c>   1</c></rc>
    <rc><c>Ge</c><c>   1</c></rc>
    <rc><c>Ge</c><c>   1</c></rc>
    <rc><c>Ge</c><c>   1</c></rc>
    <rc><c>Ge</c><c>   1</c></rc>
    <rc><c>Ge</c><c>   1</c></rc>
    <rc><c>Ge</c><c>   1</c></rc>
    <rc><c>Ge</c><c>   1</c></rc>
    <rc><c>Ge</c><c>   1</c></rc>
    <rc><c>Ge</c><c>   1</c></rc>
    <rc><c>Ge</c><c>   1</c></rc>
    <rc><c>Ge</c><c>   1</c></rc>
    <rc><c>Ge</c><c>   1</c></rc>
    <rc><c>Ge</c><c>   1</c></rc>
    <rc><c>Ge</c><c>   1</c></rc>
    <rc><c>Ge</c><c>   1</c></rc>
    <rc><c>Ge</c><c>   1</c></rc>
    <rc><c>Ge</c><c>   1</c></rc>
    <rc><c>Ge</c><c>   1</c></rc>
    <rc><c>Ge</c><c>   1</c></rc>
    <rc><c>Ge</c><c>   1</c></rc>
    <rc><c>Ge</c><c>   1</c></rc>
    <rc><c>Ge</c><c>   1</c></rc>
    <rc><c>Ge</c><c>   1</c></rc>
    <rc><c>Ge</c><c>   1</c></rc>
    <rc><c>Ge</c><c>   1</c></rc>
    <rc><c>Ge</c><c>   1</c></rc>
    <rc><c>Ge</c><c>   1</c></rc>
    <rc><c>Ge</c><c>   1</c></rc>
    <rc><c>Ge</c><c>   1</c></rc>
    <rc><c>Ge</c><c>   1</c></rc>
    <rc><c>Ge</c><c>   1</c></rc>
    <rc><c>Ge</c><c>   1</c></rc>
    <rc><c>Ge</c><c>   1</c></rc>
    <rc><c>Ge</c><c>   1</c></rc>
    <rc><c>Ge</c><c>   1</c></rc>
    <rc><c>Ge</c><c>   1</c></rc>
    <rc><c>Ge</c><c>   1</c></rc>
    <rc><c>Ge</c><c>   1</c></rc>
    <rc><c>Ge</c><c>   1</c></rc>
    <rc><c>Ge</c><c>   1</c></rc>
    <rc><c>Ge</c><c>   1</c></rc>
    <rc><c>Ge</c><c>   1</c></rc>
    <rc><c>Ge</c><c>   1</c></rc>
    <rc><c>Ge</c><c>   1</c></rc>
    <rc><c>Ge</c><c>   1</c></rc>
    <rc><c>Ge</c><c>   1</c></rc>
    <rc><c>Ge</c><c>   1</c></rc>
    <rc><c>Ge</c><c>   1</c></rc>
    <rc><c>Ge</c><c>   1</c></rc>
    <rc><c>Ge</c><c>   1</c></rc>
    <rc><c>Ge</c><c>   1</c></rc>
    <rc><c>Ge</c><c>   1</c></rc>
    <rc><c>Ge</c><c>   1</c></rc>
    <rc><c>Ge</c><c>   1</c></rc>
    <rc><c>Ge</c><c>   1</c></rc>
    <rc><c>Ge</c><c>   1</c></rc>
    <rc><c>Ge</c><c>   1</c></rc>
    <rc><c>Ge</c><c>   1</c></rc>
    <rc><c>Ge</c><c>   1</c></rc>
    <rc><c>Ge</c><c>   1</c></rc>
    <rc><c>Ge</c><c>   1</c></rc>
    <rc><c>Ge</c><c>   1</c></rc>
    <rc><c>Ge</c><c>   1</c></rc>
    <rc><c>Ge</c><c>   1</c></rc>
    <rc><c>Ge</c><c>   1</c></rc>
    <rc><c>Ge</c><c>   1</c></rc>
   </set>
  </array>
  <array name="atomtypes" >
   <dimension dim="1">type</dimension>
   <field type="int">atomspertype</field>
   <field type="string">element</field>
   <field>mass</field>
   <field>valence</field>
   <field type="string">pseudopotential</field>
   <set>
    <rc><c>  96</c><c>Ge</c><c>     72.61000000</c><c>      4.00000000</c><c>  PAW_PBE Ge 05Jan2001                  </c></rc>
   </set>
  </array>
 </atominfo>
 <structure name="initialpos" >
  <crystal>
   <varray name="basis" >
    <v>      12.65122604       0.00000000       0.00000000 </v>
    <v>       2.53024530      12.39562035       0.00000000 </v>
    <v>       0.00000000       0.00000000      13.73516273 </v>
   </varray>
   <i name="volume">   2153.94540375 </i>
   <varray name="rec_basis" >
    <v>       0.07904372      -0.01613473       0.00000000 </v>
    <v>       0.00000000       0.08067366       0.00000000 </v>
    <v>       0.00000000       0.00000000       0.07280584 </v>
   </varray>
  </crystal>
  <varray name="positions" >
   <v>       0.78425658       0.48979867       0.42041528 </v>
   <v>       0.99259037       0.94813251       0.00000002 </v>
   <v>       0.95092356       0.65646577       0.08408309 </v>
   <v>       0.90925682       0.36479890       0.16816616 </v>
   <v>       0.86759007       0.07313222       0.25224918 </v>
   <v>       0.82592332       0.78146553       0.33633217 </v>
   <v>       0.28425661       0.98979878       0.42041531 </v>
   <v>       0.49259037       0.44813251       0.00000003 </v>
   <v>       0.45092362       0.15646577       0.08408309 </v>
   <v>       0.40925688       0.86479896       0.16816616 </v>
   <v>       0.36759013       0.57313228       0.25224918 </v>
   <v>       0.32592338       0.28146553       0.33633223 </v>
   <v>       0.15925664       0.36479878       0.42041531 </v>
   <v>       0.36759040       0.82313263       0.00000001 </v>
   <v>       0.32592362       0.53146583       0.08408309 </v>
   <v>       0.28425688       0.23979901       0.16816619 </v>
   <v>       0.24259017       0.94813240       0.25224918 </v>
   <v>       0.20092338       0.65646565       0.33633223 </v>
   <v>       0.65925658       0.86479867       0.42041528 </v>
   <v>       0.86759049       0.32313258       0.00000001 </v>
   <v>       0.82592368       0.03146578       0.08408309 </v>
   <v>       0.78425688       0.73979890       0.16816616 </v>
   <v>       0.74259013       0.44813234       0.25224918 </v>
   <v>       0.70092338       0.15646553       0.33633217 </v>
   <v>       0.03425656       0.23979878       0.42041528 </v>
   <v>       0.24259035       0.69813263       0.00000000 </v>
   <v>       0.20092359       0.40646580       0.08408308 </v>
   <v>       0.15925685       0.11479896       0.16816616 </v>
   <v>       0.11759009       0.82313240       0.25224915 </v>
   <v>       0.07592334       0.53146553       0.33633217 </v>
   <v>       0.53425670       0.73979867       0.42041531 </v>
   <v>       0.74259043       0.19813251       0.00000002 </v>
   <v>       0.70092362       0.90646571       0.08408309 </v>
   <v>       0.65925688       0.61479890       0.16816616 </v>
   <v>       0.61759025       0.32313234       0.25224918 </v>
   <v>       0.57592344       0.03146547       0.33633217 </v>
   <v>       0.90925658       0.61479878       0.42041531 </v>
   <v>       0.11759036       0.07313251       0.00000002 </v>
   <v>       0.07592360       0.78146577       0.08408309 </v>
   <v>       0.03425685       0.48979896       0.16816616 </v>
   <v>       0.99259007       0.19813222       0.25224918 </v>
   <v>       0.95092338       0.90646553       0.33633223 </v>
   <v>       0.40925661       0.11479884       0.42041531 </v>
   <v>       0.61759049       0.57313258       0.00000001 </v>
   <v>       0.57592362       0.28146583       0.08408308 </v>
   <v>       0.53425694       0.98979902       0.16816619 </v>
   <v>       0.49259019       0.69813228       0.25224924 </v>
   <v>       0.45092344       0.40646553       0.33633226 </v>
   <v>       0.94217962       0.08584392       0.92041534 </v>
   <v>       0.40051341       0.29417765       0.50000006 </v>
   <v>       0.10884666       0.25251091       0.58408308 </v>
   <v>       0.81717992       0.21084416       0.66816616 </v>
   <v>       0.52551317       0.16917741       0.75224924 </v>
   <v>       0.23384643       0.12751067       0.83633232 </v>
   <v>       0.44217968       0.58584392       0.92041534 </v>
   <v>       0.90051347       0.79417765       0.50000006 </v>
   <v>       0.60884666       0.75251091       0.58408308 </v>
   <v>       0.31717992       0.71084422       0.66816616 </v>
   <v>       0.02551317       0.66917741       0.75224924 </v>
   <v>       0.73384643       0.62751067       0.83633232 </v>
   <v>       0.81717974       0.46084398       0.92041534 </v>
   <v>       0.27551365       0.66917771       0.50000006 </v>
   <v>       0.98384678       0.62751091       0.58408308 </v>
   <v>       0.69218004       0.58584422       0.66816616 </v>
   <v>       0.40051341       0.54417747       0.75224924 </v>
   <v>       0.10884666       0.50251073       0.83633232 </v>
   <v>       0.31717968       0.96084392       0.92041528 </v>
   <v>       0.77551353       0.16917777       0.50000006 </v>
   <v>       0.48384672       0.12751102       0.58408308 </v>
   <v>       0.19217992       0.08584416       0.66816616 </v>
   <v>       0.90051329       0.04417753       0.75224924 </v>
   <v>       0.60884649       0.00251067       0.83633232 </v>
   <v>       0.69217968       0.33584389       0.92041534 </v>
   <v>       0.15051353       0.54417765       0.50000006 </v>
   <v>       0.85884678       0.50251091       0.58408308 </v>
   <v>       0.56717998       0.46084416       0.66816616 </v>
   <v>       0.27551329       0.41917741       0.75224918 </v>
   <v>       0.98384649       0.37751067       0.83633226 </v>
   <v>       0.19217968       0.83584404       0.92041534 </v>
   <v>       0.65051347       0.04417777       0.50000006 </v>
   <v>       0.35884666       0.00251102       0.58408308 </v>
   <v>       0.06717992       0.96084416       0.66816616 </v>
   <v>       0.77551323       0.91917753       0.75224924 </v>
   <v>       0.48384643       0.87751079       0.83633232 </v>
   <v>       0.06717968       0.21084392       0.92041534 </v>
   <v>       0.52551347       0.41917768       0.50000006 </v>
   <v>       0.23384666       0.37751091       0.58408308 </v>
   <v>       0.94217998       0.33584419       0.66816616 </v>
   <v>       0.65051317       0.29417741       0.75224918 </v>
   <v>       0.35884643       0.25251067       0.83633232 </v>
   <v>       0.56717974       0.71084404       0.92041534 </v>
   <v>       0.02551353       0.91917777       0.50000006 </v>
   <v>       0.73384672       0.87751091       0.58408308 </v>
   <v>       0.44218004       0.83584428       0.66816616 </v>
   <v>       0.15051317       0.79417753       0.75224924 </v>
   <v>       0.85884649       0.75251079       0.83633232 </v>
  </varray>
 </structure>
 <calculation>
  <scstep>
   <time name="dav">   19.30   19.46</time>
   <time name="total">   20.98   21.15</time>
   <energy>
    <i name="alphaZ">    817.79019152 </i>
    <i name="ewald"> -10159.97194987 </i>
    <i name="hartreedc">   -932.75250535 </i>
    <i name="XCdc">   -716.09948631 </i>
    <i name="pawpsdc">   8461.93788731 </i>
    <i name="pawaedc">  -7071.13096423 </i>
    <i name="eentropy">     -0.00165152 </i>
    <i name="bandstr">   1460.53386248 </i>
    <i name="atom">  10079.60734648 </i>
    <i name="e_fr_energy">   1939.91273052 </i>
    <i name="e_wo_entrp">   1939.91438205 </i>
    <i name="e_0_energy">   1939.91355628 </i>
   </energy>
  </scstep>
  <scstep>
   <time name="dav">   21.60   21.79</time>
   <time name="total">   21.61   21.79</time>
   <energy>
    <i name="e_fr_energy">   -161.76997293 </i>
    <i name="e_wo_entrp">   -161.76795496 </i>
    <i name="e_0_energy">   -161.76896395 </i>
   </energy>
  </scstep>
  <scstep>
   <time name="dav">   22.50   22.69</time>
   <time name="total">   22.50   22.69</time>
   <energy>
    <i name="e_fr_energy">   -376.04563890 </i>
    <i name="e_wo_entrp">   -376.04364313 </i>
    <i name="e_0_energy">   -376.04464102 </i>
   </energy>
  </scstep>
  <scstep>
   <time name="dav">   22.06   22.25</time>
   <time name="total">   22.07   22.25</time>
   <energy>
    <i name="e_fr_energy">   -384.50733511 </i>
    <i name="e_wo_entrp">   -384.50442167 </i>
    <i name="e_0_energy">   -384.50587839 </i>
   </energy>
  </scstep>
  <scstep>
   <time name="dav">   23.15   23.35</time>
   <time name="total">   24.41   24.61</time>
   <energy>
    <i name="e_fr_energy">   -384.82868849 </i>
    <i name="e_wo_entrp">   -384.82583455 </i>
    <i name="e_0_energy">   -384.82726152 </i>
   </energy>
  </scstep>
  <scstep>
   <time name="dav">   21.97   22.16</time>
   <time name="total">   24.84   25.04</time>
   <energy>
    <i name="e_fr_energy">   -380.41196011 </i>
    <i name="e_wo_entrp">   -380.40938813 </i>
    <i name="e_0_energy">   -380.41067412 </i>
   </energy>
  </scstep>
  <scstep>
   <time name="dav">   22.26   22.45</time>
   <time name="total">   25.14   25.34</time>
   <energy>
    <i name="e_fr_energy">   -380.22124842 </i>
    <i name="e_wo_entrp">   -380.21937482 </i>
    <i name="e_0_energy">   -380.22031162 </i>
   </energy>
  </scstep>
  <scstep>
   <time name="dav">   21.93   22.12</time>
   <time name="total">   24.78   25.00</time>
   <energy>
    <i name="e_fr_energy">   -379.76322138 </i>
    <i name="e_wo_entrp">   -379.76127204 </i>
    <i name="e_0_energy">   -379.76224671 </i>
   </energy>
  </scstep>
  <scstep>
   <time name="dav">   21.50   21.68</time>
   <time name="total">   24.38   24.57</time>
   <energy>
    <i name="e_fr_energy">   -379.75613295 </i>
    <i name="e_wo_entrp">   -379.75380786 </i>
    <i name="e_0_energy">   -379.75497041 </i>
   </energy>
  </scstep>
  <scstep>
   <time name="dav">   21.21   21.38</time>
   <time name="total">   24.09   24.28</time>
   <energy>
    <i name="e_fr_energy">   -379.75636253 </i>
    <i name="e_wo_entrp">   -379.75405752 </i>
    <i name="e_0_energy">   -379.75521002 </i>
   </energy>
  </scstep>
  <scstep>
   <time name="dav">   21.65   21.82</time>
   <time name="total">   24.53   24.72</time>
   <energy>
    <i name="e_fr_energy">   -379.75560654 </i>
    <i name="e_wo_entrp">   -379.75341292 </i>
    <i name="e_0_energy">   -379.75450973 </i>
   </energy>
  </scstep>
  <scstep>
   <time name="dav">   22.25   22.43</time>
   <time name="total">   25.13   25.33</time>
   <energy>
    <i name="e_fr_energy">   -379.75570934 </i>
    <i name="e_wo_entrp">   -379.75350291 </i>
    <i name="e_0_energy">   -379.75460612 </i>
   </energy>
  </scstep>
  <scstep>
   <time name="dav">   21.35   21.55</time>
   <time name="total">   24.25   24.46</time>
   <energy>
    <i name="e_fr_energy">   -379.75586656 </i>
    <i name="e_wo_entrp">   -379.75364100 </i>
    <i name="e_0_energy">   -379.75475378 </i>
   </energy>
  </scstep>
  <scstep>
   <time name="dav">   21.92   22.10</time>
   <time name="total">   24.80   25.00</time>
   <energy>
    <i name="e_fr_energy">   -379.75587574 </i>
    <i name="e_wo_entrp">   -379.75365807 </i>
    <i name="e_0_energy">   -379.75476691 </i>
   </energy>
  </scstep>
  <scstep>
   <time name="dav">   21.21   21.39</time>
   <time name="total">   24.09   24.28</time>
   <energy>
    <i name="e_fr_energy">   -379.75588370 </i>
    <i name="e_wo_entrp">   -379.75366857 </i>
    <i name="e_0_energy">   -379.75477613 </i>
   </energy>
  </scstep>
  <scstep>
   <time name="dav">   21.80   21.99</time>
   <time name="total">   24.68   24.88</time>
   <energy>
    <i name="e_fr_energy">   -379.75588598 </i>
    <i name="e_wo_entrp">   -379.75367035 </i>
    <i name="e_0_energy">   -379.75477817 </i>
   </energy>
  </scstep>
  <scstep>
   <time name="dav">   21.73   21.93</time>
   <time name="total">   24.62   24.83</time>
   <energy>
    <i name="e_fr_energy">   -379.75588613 </i>
    <i name="e_wo_entrp">   -379.75366985 </i>
    <i name="e_0_energy">   -379.75477799 </i>
   </energy>
  </scstep>
  <scstep>
   <time name="dav">   15.94   16.09</time>
   <time name="total">   18.83   18.98</time>
   <energy>
    <i name="e_fr_energy">   -379.75588582 </i>
    <i name="e_wo_entrp">   -379.75366953 </i>
    <i name="e_0_energy">   -379.75477768 </i>
   </energy>
  </scstep>
  <scstep>
   <time name="dav">   14.04   14.16</time>
   <time name="total">   15.67   15.80</time>
   <energy>
    <i name="alphaZ">    817.79019152 </i>
    <i name="ewald"> -10159.97194987 </i>
    <i name="hartreedc">  -1050.33191031 </i>
    <i name="XCdc">   -693.05180852 </i>
    <i name="pawpsdc">  22264.49209870 </i>
    <i name="pawaedc"> -20890.96162622 </i>
    <i name="eentropy">     -0.00221634 </i>
    <i name="bandstr">   -747.32601117 </i>
    <i name="atom">  10079.60734648 </i>
    <i name="e_fr_energy">   -379.75588573 </i>
    <i name="e_wo_entrp">   -379.75366939 </i>
    <i name="e_0_energy">   -379.75477756 </i>
   </energy>
  </scstep>
  <structure>
   <crystal>
    <varray name="basis" >
     <v>      12.65122604       0.00000000       0.00000000 </v>
     <v>       2.53024530      12.39562035       0.00000000 </v>
     <v>       0.00000000       0.00000000      13.73516273 </v>
    </varray>
    <i name="volume">   2153.94540375 </i>
    <varray name="rec_basis" >
     <v>       0.07904372      -0.01613473       0.00000000 </v>
     <v>       0.00000000       0.08067366       0.00000000 </v>
     <v>       0.00000000       0.00000000       0.07280584 </v>
    </varray>
   </crystal>
   <varray name="positions" >
    <v>       0.78425658       0.48979867       0.42041528 </v>
    <v>       0.99259037       0.94813251       0.00000002 </v>
    <v>       0.95092356       0.65646577       0.08408309 </v>
    <v>       0.90925682       0.36479890       0.16816616 </v>
    <v>       0.86759007       0.07313222       0.25224918 </v>
    <v>       0.82592332       0.78146553       0.33633217 </v>
    <v>       0.28425661       0.98979878       0.42041531 </v>
    <v>       0.49259037       0.44813251       0.00000003 </v>
    <v>       0.45092362       0.15646577       0.08408309 </v>
    <v>       0.40925688       0.86479896       0.16816616 </v>
    <v>       0.36759013       0.57313228       0.25224918 </v>
    <v>       0.32592338       0.28146553       0.33633223 </v>
    <v>       0.15925664       0.36479878       0.42041531 </v>
    <v>       0.36759040       0.82313263       0.00000001 </v>
    <v>       0.32592362       0.53146583       0.08408309 </v>
    <v>       0.28425688       0.23979901       0.16816619 </v>
    <v>       0.24259017       0.94813240       0.25224918 </v>
    <v>       0.20092338       0.65646565       0.33633223 </v>
    <v>       0.65925658       0.86479867       0.42041528 </v>
    <v>       0.86759049       0.32313258       0.00000001 </v>
    <v>       0.82592368       0.03146578       0.08408309 </v>
    <v>       0.78425688       0.73979890       0.16816616 </v>
    <v>       0.74259013       0.44813234       0.25224918 </v>
    <v>       0.70092338       0.15646553       0.33633217 </v>
    <v>       0.03425656       0.23979878       0.42041528 </v>
    <v>       0.24259035       0.69813263       0.00000000 </v>
    <v>       0.20092359       0.40646580       0.08408308 </v>
    <v>       0.15925685       0.11479896       0.16816616 </v>
    <v>       0.11759009       0.82313240       0.25224915 </v>
    <v>       0.07592334       0.53146553       0.33633217 </v>
    <v>       0.53425670       0.73979867       0.42041531 </v>
    <v>       0.74259043       0.19813251       0.00000002 </v>
    <v>       0.70092362       0.90646571       0.08408309 </v>
    <v>       0.65925688       0.61479890       0.16816616 </v>
    <v>       0.61759025       0.32313234       0.25224918 </v>
    <v>       0.57592344       0.03146547       0.33633217 </v>
    <v>       0.90925658       0.61479878       0.42041531 </v>
    <v>       0.11759036       0.07313251       0.00000002 </v>
    <v>       0.07592360       0.78146577       0.08408309 </v>
    <v>       0.03425685       0.48979896       0.16816616 </v>
    <v>       0.99259007       0.19813222       0.25224918 </v>
    <v>       0.95092338       0.90646553       0.33633223 </v>
    <v>       0.40925661       0.11479884       0.42041531 </v>
    <v>       0.61759049       0.57313258       0.00000001 </v>
    <v>       0.57592362       0.28146583       0.08408308 </v>
    <v>       0.53425694       0.98979902       0.16816619 </v>
    <v>       0.49259019       0.69813228       0.25224924 </v>
    <v>       0.45092344       0.40646553       0.33633226 </v>
    <v>       0.94217962       0.08584392       0.92041534 </v>
    <v>       0.40051341       0.29417765       0.50000006 </v>
    <v>       0.10884666       0.25251091       0.58408308 </v>
    <v>       0.81717992       0.21084416       0.66816616 </v>
    <v>       0.52551317       0.16917741       0.75224924 </v>
    <v>       0.23384643       0.12751067       0.83633232 </v>
    <v>       0.44217968       0.58584392       0.92041534 </v>
    <v>       0.90051347       0.79417765       0.50000006 </v>
    <v>       0.60884666       0.75251091       0.58408308 </v>
    <v>       0.31717992       0.71084422       0.66816616 </v>
    <v>       0.02551317       0.66917741       0.75224924 </v>
    <v>       0.73384643       0.62751067       0.83633232 </v>
    <v>       0.81717974       0.46084398       0.92041534 </v>
    <v>       0.27551365       0.66917771       0.50000006 </v>
    <v>       0.98384678       0.62751091       0.58408308 </v>
    <v>       0.69218004       0.58584422       0.66816616 </v>
    <v>       0.40051341       0.54417747       0.75224924 </v>
    <v>       0.10884666       0.50251073       0.83633232 </v>
    <v>       0.31717968       0.96084392       0.92041528 </v>
    <v>       0.77551353       0.16917777       0.50000006 </v>
    <v>       0.48384672       0.12751102       0.58408308 </v>
    <v>       0.19217992       0.08584416       0.66816616 </v>
    <v>       0.90051329       0.04417753       0.75224924 </v>
    <v>       0.60884649       0.00251067       0.83633232 </v>
    <v>       0.69217968       0.33584389       0.92041534 </v>
    <v>       0.15051353       0.54417765       0.50000006 </v>
    <v>       0.85884678       0.50251091       0.58408308 </v>
    <v>       0.56717998       0.46084416       0.66816616 </v>
    <v>       0.27551329       0.41917741       0.75224918 </v>
    <v>       0.98384649       0.37751067       0.83633226 </v>
    <v>       0.19217968       0.83584404       0.92041534 </v>
    <v>       0.65051347       0.04417777       0.50000006 </v>
    <v>       0.35884666       0.00251102       0.58408308 </v>
    <v>       0.06717992       0.96084416       0.66816616 </v>
    <v>       0.77551323       0.91917753       0.75224924 </v>
    <v>       0.48384643       0.87751079       0.83633232 </v>
    <v>       0.06717968       0.21084392       0.92041534 </v>
    <v>       0.52551347       0.41917768       0.50000006 </v>
    <v>       0.23384666       0.37751091       0.58408308 </v>
    <v>       0.94217998       0.33584419       0.66816616 </v>
    <v>       0.65051317       0.29417741       0.75224918 </v>
    <v>       0.35884643       0.25251067       0.83633232 </v>
    <v>       0.56717974       0.71084404       0.92041534 </v>
    <v>       0.02551353       0.91917777       0.50000006 </v>
    <v>       0.73384672       0.87751091       0.58408308 </v>
    <v>       0.44218004       0.83584428       0.66816616 </v>
    <v>       0.15051317       0.79417753       0.75224924 </v>
    <v>       0.85884649       0.75251079       0.83633232 </v>
   </varray>
  </structure>
  <varray name="forces" >
   <v>      -0.72196272      -0.03873494       0.25181019 </v>
   <v>       0.30479093      -6.20148434       3.25749864 </v>
   <v>      -0.46976048      -0.27111395      -0.86411786 </v>
   <v>       0.21482552       0.03492516       0.44549785 </v>
   <v>       0.06581262       0.10883261      -0.05404086 </v>
   <v>      -0.42458137       0.37200325      -1.52453345 </v>
   <v>      -0.72196272      -0.03873494       0.25181019 </v>
   <v>       0.30479093      -6.20148434       3.25749864 </v>
   <v>      -0.46976048      -0.27111395      -0.86411786 </v>
   <v>       0.21482552       0.03492516       0.44549785 </v>
   <v>       0.06581262       0.10883261      -0.05404086 </v>
   <v>      -0.42458137       0.37200325      -1.52453345 </v>
   <v>      -0.82129282      -0.80277434      -2.22224939 </v>
   <v>       2.79151591      -5.30008423       4.90127365 </v>
   <v>      -0.61799437      -0.19471413       0.85216396 </v>
   <v>       0.04734708       0.12227058      -0.46155681 </v>
   <v>       0.03709020      -0.10865905      -0.03030355 </v>
   <v>       0.28222602       0.78769122      -0.75019876 </v>
   <v>      -0.82129282      -0.80277434      -2.22224939 </v>
   <v>       2.79151591      -5.30008423       4.90127365 </v>
   <v>      -0.61799437      -0.19471413       0.85216396 </v>
   <v>       0.04734708       0.12227058      -0.46155681 </v>
   <v>       0.03709020      -0.10865905      -0.03030355 </v>
   <v>       0.28222602       0.78769122      -0.75019876 </v>
   <v>      -0.72196272      -0.03873494       0.25181019 </v>
   <v>       0.30479093      -6.20148434       3.25749864 </v>
   <v>      -0.46976048      -0.27111395      -0.86411786 </v>
   <v>       0.21482552       0.03492516       0.44549785 </v>
   <v>       0.06581262       0.10883261      -0.05404086 </v>
   <v>      -0.42458137       0.37200325      -1.52453345 </v>
   <v>      -0.72196272      -0.03873494       0.25181019 </v>
   <v>       0.30479093      -6.20148434       3.25749864 </v>
   <v>      -0.46976048      -0.27111395      -0.86411786 </v>
   <v>       0.21482552       0.03492516       0.44549785 </v>
   <v>       0.06581262       0.10883261      -0.05404086 </v>
   <v>      -0.42458137       0.37200325      -1.52453345 </v>
   <v>      -0.82129282      -0.80277434      -2.22224939 </v>
   <v>       2.79151591      -5.30008423       4.90127365 </v>
   <v>      -0.61799437      -0.19471413       0.85216396 </v>
   <v>       0.04734708       0.12227058      -0.46155681 </v>
   <v>       0.03709020      -0.10865905      -0.03030355 </v>
   <v>       0.28222602       0.78769122      -0.75019876 </v>
   <v>      -0.82129282      -0.80277434      -2.22224939 </v>
   <v>       2.79151591      -5.30008423       4.90127365 </v>
   <v>      -0.61799437      -0.19471413       0.85216396 </v>
   <v>       0.04734708       0.12227058      -0.46155681 </v>
   <v>       0.03709020      -0.10865905      -0.03030355 </v>
   <v>       0.28222602       0.78769122      -0.75019876 </v>
   <v>      -2.79151591       5.30008423      -4.90127365 </v>
   <v>       0.82129282       0.80277434       2.22224939 </v>
   <v>      -0.28222602      -0.78769122       0.75019876 </v>
   <v>      -0.03709020       0.10865905       0.03030355 </v>
   <v>      -0.04734708      -0.12227058       0.46155681 </v>
   <v>       0.61799437       0.19471413      -0.85216396 </v>
   <v>      -2.79151591       5.30008423      -4.90127365 </v>
   <v>       0.82129282       0.80277434       2.22224939 </v>
   <v>      -0.28222602      -0.78769122       0.75019876 </v>
   <v>      -0.03709020       0.10865905       0.03030355 </v>
   <v>      -0.04734708      -0.12227058       0.46155681 </v>
   <v>       0.61799437       0.19471413      -0.85216396 </v>
   <v>      -0.30479093       6.20148434      -3.25749864 </v>
   <v>       0.72196272       0.03873494      -0.25181019 </v>
   <v>       0.42458137      -0.37200325       1.52453345 </v>
   <v>      -0.06581262      -0.10883261       0.05404086 </v>
   <v>      -0.21482552      -0.03492516      -0.44549785 </v>
   <v>       0.46976048       0.27111395       0.86411786 </v>
   <v>      -0.30479093       6.20148434      -3.25749864 </v>
   <v>       0.72196272       0.03873494      -0.25181019 </v>
   <v>       0.42458137      -0.37200325       1.52453345 </v>
   <v>      -0.06581262      -0.10883261       0.05404086 </v>
   <v>      -0.21482552      -0.03492516      -0.44549785 </v>
   <v>       0.46976048       0.27111395       0.86411786 </v>
   <v>      -2.79151591       5.30008423      -4.90127365 </v>
   <v>       0.82129282       0.80277434       2.22224939 </v>
   <v>      -0.28222602      -0.78769122       0.75019876 </v>
   <v>      -0.03709020       0.10865905       0.03030355 </v>
   <v>      -0.04734708      -0.12227058       0.46155681 </v>
   <v>       0.61799437       0.19471413      -0.85216396 </v>
   <v>      -2.79151591       5.30008423      -4.90127365 </v>
   <v>       0.82129282       0.80277434       2.22224939 </v>
   <v>      -0.28222602      -0.78769122       0.75019876 </v>
   <v>      -0.03709020       0.10865905       0.03030355 </v>
   <v>      -0.04734708      -0.12227058       0.46155681 </v>
   <v>       0.61799437       0.19471413      -0.85216396 </v>
   <v>      -0.30479093       6.20148434      -3.25749864 </v>
   <v>       0.72196272       0.03873494      -0.25181019 </v>
   <v>       0.42458137      -0.37200325       1.52453345 </v>
   <v>      -0.06581262      -0.10883261       0.05404086 </v>
   <v>      -0.21482552      -0.03492516      -0.44549785 </v>
   <v>       0.46976048       0.27111395       0.86411786 </v>
   <v>      -0.30479093       6.20148434      -3.25749864 </v>
   <v>       0.72196272       0.03873494      -0.25181019 </v>
   <v>       0.42458137      -0.37200325       1.52453345 </v>
   <v>      -0.06581262      -0.10883261       0.05404086 </v>
   <v>      -0.21482552      -0.03492516      -0.44549785 </v>
   <v>       0.46976048       0.27111395       0.86411786 </v>
  </varray>
  <varray name="stress" >
   <v>      91.77264528      -2.20585154       8.61124868 </v>
   <v>      -2.20585256     125.21091155     -41.89088909 </v>
   <v>       8.61123321     -41.89085195     129.75267059 </v>
  </varray>
  <energy>
   <i name="e_fr_energy">   -379.75588573 </i>
   <i name="e_wo_entrp">   -379.75366939 </i>
   <i name="e_0_energy">   -379.75477756 </i>
  </energy>
  <time name="totalsc">  476.63  480.83</time>
  <eigenvalues>
   <array>
    <dimension dim="1">band</dimension>
    <dimension dim="2">kpoint</dimension>
    <dimension dim="3">spin</dimension>
    <field>eigene</field>
    <field>occ</field>
    <set>
     <set comment="spin 1">
      <set comment="kpoint 1">
       <r>  -10.3317    1.0000 </r>
       <r>   -9.9452    1.0000 </r>
       <r>   -9.8858    1.0000 </r>
       <r>   -9.8858    1.0000 </r>
       <r>   -9.4384    1.0000 </r>
       <r>   -9.4383    1.0000 </r>
       <r>   -9.2262    1.0000 </r>
       <r>   -8.5246    1.0000 </r>
       <r>   -8.3504    1.0000 </r>
       <r>   -8.1686    1.0000 </r>
       <r>   -7.9871    1.0000 </r>
       <r>   -7.9871    1.0000 </r>
       <r>   -7.9786    1.0000 </r>
       <r>   -7.9638    1.0000 </r>
       <r>   -7.9638    1.0000 </r>
       <r>   -7.9467    1.0000 </r>
       <r>   -7.7140    1.0000 </r>
       <r>   -7.5775    1.0000 </r>
       <r>   -7.5775    1.0000 </r>
       <r>   -7.5346    1.0000 </r>
       <r>   -7.5346    1.0000 </r>
       <r>   -7.3019    1.0000 </r>
       <r>   -7.1314    1.0000 </r>
       <r>   -7.1286    1.0000 </r>
       <r>   -7.0987    1.0000 </r>
       <r>   -6.7735    1.0000 </r>
       <r>   -6.6869    1.0000 </r>
       <r>   -6.5963    1.0000 </r>
       <r>   -6.5963    1.0000 </r>
       <r>   -6.4814    1.0000 </r>
       <r>   -6.4814    1.0000 </r>
       <r>   -6.3810    1.0000 </r>
       <r>   -6.3481    1.0000 </r>
       <r>   -6.3481    1.0000 </r>
       <r>   -6.3084    1.0000 </r>
       <r>   -6.2878    1.0000 </r>
       <r>   -6.0784    1.0000 </r>
       <r>   -6.0784    1.0000 </r>
       <r>   -5.9725    1.0000 </r>
       <r>   -5.8813    1.0000 </r>
       <r>   -5.7023    1.0000 </r>
       <r>   -5.7023    1.0000 </r>
       <r>   -5.5775    1.0000 </r>
       <r>   -5.5371    1.0000 </r>
       <r>   -5.4612    1.0000 </r>
       <r>   -5.4508    1.0000 </r>
       <r>   -5.3760    1.0000 </r>
       <r>   -5.3760    1.0000 </r>
       <r>   -5.3556    1.0000 </r>
       <r>   -5.3191    1.0000 </r>
       <r>   -5.0205    1.0000 </r>
       <r>   -5.0205    1.0000 </r>
       <r>   -4.7631    1.0000 </r>
       <r>   -4.7162    1.0000 </r>
       <r>   -4.6129    1.0000 </r>
       <r>   -4.5724    1.0000 </r>
       <r>   -4.5724    1.0000 </r>
       <r>   -4.5289    1.0000 </r>
       <r>   -4.4038    1.0000 </r>
       <r>   -4.1230    1.0000 </r>
       <r>   -4.1230    1.0000 </r>
       <r>   -4.0607    1.0000 </r>
       <r>   -4.0306    1.0000 </r>
       <r>   -4.0306    1.0000 </r>
       <r>   -3.8365    1.0000 </r>
       <r>   -3.8069    1.0000 </r>
       <r>   -3.7574    1.0000 </r>
       <r>   -3.7574    1.0000 </r>
       <r>   -3.4656    1.0000 </r>
       <r>   -3.4656    1.0000 </r>
       <r>   -3.4351    1.0000 </r>
       <r>   -3.3732    1.0000 </r>
       <r>   -3.2105    1.0000 </r>
       <r>   -3.1074    1.0000 </r>
       <r>   -3.1074    1.0000 </r>
       <r>   -2.6766    1.0000 </r>
       <r>   -2.6396    1.0000 </r>
       <r>   -2.6261    1.0000 </r>
       <r>   -2.6261    1.0000 </r>
       <r>   -2.5903    1.0000 </r>
       <r>   -2.5127    1.0000 </r>
       <r>   -2.2993    1.0000 </r>
       <r>   -2.1833    1.0000 </r>
       <r>   -2.1759    1.0000 </r>
       <r>   -2.1759    1.0000 </r>
       <r>   -1.9583    1.0000 </r>
       <r>   -1.7742    1.0000 </r>
       <r>   -1.7742    1.0000 </r>
       <r>   -1.7274    1.0000 </r>
       <r>   -1.4215    1.0000 </r>
       <r>   -1.4215    1.0000 </r>
       <r>   -1.3474    1.0000 </r>
       <r>   -1.3265    1.0000 </r>
       <r>   -1.3265    1.0000 </r>
       <r>   -1.1037    1.0000 </r>
       <r>   -1.0550    1.0000 </r>
       <r>   -0.9707    1.0000 </r>
       <r>   -0.9707    1.0000 </r>
       <r>   -0.9040    1.0000 </r>
       <r>   -0.8269    1.0000 </r>
       <r>   -0.6758    1.0000 </r>
       <r>   -0.5200    1.0000 </r>
       <r>   -0.5200    1.0000 </r>
       <r>   -0.5053    1.0000 </r>
       <r>   -0.3483    1.0000 </r>
       <r>   -0.3483    1.0000 </r>
       <r>   -0.3072    1.0000 </r>
       <r>   -0.3072    1.0000 </r>
       <r>   -0.2747    1.0000 </r>
       <r>   -0.2081    1.0000 </r>
       <r>   -0.1518    1.0000 </r>
       <r>   -0.1518    1.0000 </r>
       <r>   -0.0644    1.0000 </r>
       <r>   -0.0004    1.0000 </r>
       <r>    0.0185    1.0000 </r>
       <r>    0.0185    1.0000 </r>
       <r>    0.0874    1.0000 </r>
       <r>    0.1389    1.0000 </r>
       <r>    0.1741    1.0000 </r>
       <r>    0.1766    1.0000 </r>
       <r>    0.1766    1.0000 </r>
       <r>    0.2893    1.0000 </r>
       <r>    0.3009    1.0000 </r>
       <r>    0.3009    1.0000 </r>
       <r>    0.4262    1.0000 </r>
       <r>    0.4312    1.0000 </r>
       <r>    0.4340    1.0000 </r>
       <r>    0.4340    1.0000 </r>
       <r>    0.5219    1.0000 </r>
       <r>    0.6204    1.0000 </r>
       <r>    0.6699    1.0000 </r>
       <r>    0.6699    1.0000 </r>
       <r>    0.6966    1.0000 </r>
       <r>    0.7884    1.0000 </r>
       <r>    0.8480    1.0000 </r>
       <r>    0.8699    1.0000 </r>
       <r>    0.8861    1.0000 </r>
       <r>    0.8861    1.0000 </r>
       <r>    0.8998    1.0000 </r>
       <r>    1.1422    1.0000 </r>
       <r>    1.1570    1.0000 </r>
       <r>    1.1570    1.0000 </r>
       <r>    1.2311    1.0000 </r>
       <r>    1.2679    1.0000 </r>
       <r>    1.2679    1.0000 </r>
       <r>    1.2946    1.0000 </r>
       <r>    1.3251    1.0000 </r>
       <r>    1.4474    1.0000 </r>
       <r>    1.4474    1.0000 </r>
       <r>    1.5289    1.0000 </r>
       <r>    1.5289    1.0000 </r>
       <r>    1.5421    1.0000 </r>
       <r>    1.5546    1.0000 </r>
       <r>    1.5546    1.0000 </r>
       <r>    1.6287    1.0000 </r>
       <r>    1.6475    1.0000 </r>
       <r>    1.8286    1.0000 </r>
       <r>    1.9258    1.0000 </r>
       <r>    1.9258    1.0000 </r>
       <r>    1.9601    1.0000 </r>
       <r>    2.0084    1.0000 </r>
       <r>    2.0494    1.0000 </r>
       <r>    2.0657    1.0000 </r>
       <r>    2.1584    1.0000 </r>
       <r>    2.1601    1.0000 </r>
       <r>    2.1601    1.0000 </r>
       <r>    2.1892    1.0000 </r>
       <r>    2.3813    1.0000 </r>
       <r>    2.3829    1.0000 </r>
       <r>    2.3829    1.0000 </r>
       <r>    2.4252    1.0000 </r>
       <r>    2.5956    1.0000 </r>
       <r>    2.6557    1.0000 </r>
       <r>    2.6557    1.0000 </r>
       <r>    2.7665    1.0000 </r>
       <r>    2.8979    1.0000 </r>
       <r>    2.9355    1.0000 </r>
       <r>    2.9795    1.0000 </r>
       <r>    2.9795    1.0000 </r>
       <r>    3.0490    1.0000 </r>
       <r>    3.0719    1.0000 </r>
       <r>    3.0929    1.0000 </r>
       <r>    3.0929    1.0000 </r>
       <r>    3.1722    1.0000 </r>
       <r>    3.1722    1.0000 </r>
       <r>    3.1830    1.0000 </r>
       <r>    3.3372    1.0000 </r>
       <r>    3.3372    1.0000 </r>
       <r>    3.4167    1.0000 </r>
       <r>    3.4183    1.0000 </r>
       <r>    3.5643    1.0000 </r>
       <r>    3.7262    1.0000 </r>
       <r>    3.7604    0.9926 </r>
       <r>    3.8412    0.0000 </r>
       <r>    3.8915    0.0000 </r>
       <r>    4.0497    0.0000 </r>
       <r>    4.0497    0.0000 </r>
       <r>    4.1517    0.0000 </r>
       <r>    4.1872    0.0000 </r>
       <r>    4.1931    0.0000 </r>
       <r>    4.2168    0.0000 </r>
       <r>    4.3098    0.0000 </r>
       <r>    4.3327    0.0000 </r>
       <r>    4.3327    0.0000 </r>
       <r>    4.4455    0.0000 </r>
       <r>    4.5271    0.0000 </r>
       <r>    4.5758    0.0000 </r>
       <r>    4.5953    0.0000 </r>
       <r>    4.5953    0.0000 </r>
       <r>    4.6536    0.0000 </r>
       <r>    4.6536    0.0000 </r>
       <r>    4.8114    0.0000 </r>
       <r>    4.8227    0.0000 </r>
       <r>    4.9029    0.0000 </r>
       <r>    4.9808    0.0000 </r>
       <r>    4.9808    0.0000 </r>
       <r>    5.0252    0.0000 </r>
       <r>    5.0252    0.0000 </r>
       <r>    5.0912    0.0000 </r>
       <r>    5.1030    0.0000 </r>
       <r>    5.2122    0.0000 </r>
       <r>    5.3169    0.0000 </r>
       <r>    5.4440    0.0000 </r>
       <r>    5.4440    0.0000 </r>
       <r>    5.5163    0.0000 </r>
       <r>    5.5197    0.0000 </r>
       <r>    5.5575    0.0000 </r>
       <r>    5.5653    0.0000 </r>
       <r>    5.6222    0.0000 </r>
       <r>    5.6223    0.0000 </r>
       <r>    5.7415    0.0000 </r>
       <r>    5.7467    0.0000 </r>
      </set>
      <set comment="kpoint 2">
       <r>  -10.2769    1.0000 </r>
       <r>  -10.1209    1.0000 </r>
       <r>   -9.8869    1.0000 </r>
       <r>   -9.7149    1.0000 </r>
       <r>   -9.6054    1.0000 </r>
       <r>   -9.3437    1.0000 </r>
       <r>   -9.0755    1.0000 </r>
       <r>   -8.6597    1.0000 </r>
       <r>   -8.4533    1.0000 </r>
       <r>   -8.2616    1.0000 </r>
       <r>   -8.1583    1.0000 </r>
       <r>   -8.1088    1.0000 </r>
       <r>   -8.0162    1.0000 </r>
       <r>   -7.9200    1.0000 </r>
       <r>   -7.7965    1.0000 </r>
       <r>   -7.7725    1.0000 </r>
       <r>   -7.6025    1.0000 </r>
       <r>   -7.5680    1.0000 </r>
       <r>   -7.5465    1.0000 </r>
       <r>   -7.3948    1.0000 </r>
       <r>   -7.3433    1.0000 </r>
       <r>   -7.2114    1.0000 </r>
       <r>   -7.0790    1.0000 </r>
       <r>   -7.0579    1.0000 </r>
       <r>   -7.0371    1.0000 </r>
       <r>   -7.0278    1.0000 </r>
       <r>   -6.7886    1.0000 </r>
       <r>   -6.7326    1.0000 </r>
       <r>   -6.7135    1.0000 </r>
       <r>   -6.6894    1.0000 </r>
       <r>   -6.3898    1.0000 </r>
       <r>   -6.3658    1.0000 </r>
       <r>   -6.3644    1.0000 </r>
       <r>   -6.3576    1.0000 </r>
       <r>   -6.3192    1.0000 </r>
       <r>   -6.2162    1.0000 </r>
       <r>   -6.1400    1.0000 </r>
       <r>   -6.1025    1.0000 </r>
       <r>   -6.0484    1.0000 </r>
       <r>   -5.8798    1.0000 </r>
       <r>   -5.7896    1.0000 </r>
       <r>   -5.7343    1.0000 </r>
       <r>   -5.6489    1.0000 </r>
       <r>   -5.6458    1.0000 </r>
       <r>   -5.5001    1.0000 </r>
       <r>   -5.3729    1.0000 </r>
       <r>   -5.3033    1.0000 </r>
       <r>   -5.2954    1.0000 </r>
       <r>   -5.1484    1.0000 </r>
       <r>   -5.0885    1.0000 </r>
       <r>   -5.0770    1.0000 </r>
       <r>   -4.8885    1.0000 </r>
       <r>   -4.8597    1.0000 </r>
       <r>   -4.6432    1.0000 </r>
       <r>   -4.6404    1.0000 </r>
       <r>   -4.6201    1.0000 </r>
       <r>   -4.6143    1.0000 </r>
       <r>   -4.4616    1.0000 </r>
       <r>   -4.4426    1.0000 </r>
       <r>   -4.2138    1.0000 </r>
       <r>   -4.1438    1.0000 </r>
       <r>   -4.1068    1.0000 </r>
       <r>   -4.1001    1.0000 </r>
       <r>   -4.0114    1.0000 </r>
       <r>   -3.9143    1.0000 </r>
       <r>   -3.6686    1.0000 </r>
       <r>   -3.6655    1.0000 </r>
       <r>   -3.5402    1.0000 </r>
       <r>   -3.5015    1.0000 </r>
       <r>   -3.3584    1.0000 </r>
       <r>   -3.3223    1.0000 </r>
       <r>   -3.3219    1.0000 </r>
       <r>   -3.2935    1.0000 </r>
       <r>   -3.0484    1.0000 </r>
       <r>   -3.0374    1.0000 </r>
       <r>   -2.9194    1.0000 </r>
       <r>   -2.9032    1.0000 </r>
       <r>   -2.8048    1.0000 </r>
       <r>   -2.6628    1.0000 </r>
       <r>   -2.6327    1.0000 </r>
       <r>   -2.3258    1.0000 </r>
       <r>   -2.2707    1.0000 </r>
       <r>   -2.2510    1.0000 </r>
       <r>   -2.2350    1.0000 </r>
       <r>   -2.1440    1.0000 </r>
       <r>   -2.0457    1.0000 </r>
       <r>   -1.9099    1.0000 </r>
       <r>   -1.7306    1.0000 </r>
       <r>   -1.6365    1.0000 </r>
       <r>   -1.6142    1.0000 </r>
       <r>   -1.3797    1.0000 </r>
       <r>   -1.1464    1.0000 </r>
       <r>   -1.1209    1.0000 </r>
       <r>   -1.1203    1.0000 </r>
       <r>   -1.1181    1.0000 </r>
       <r>   -1.0427    1.0000 </r>
       <r>   -0.9899    1.0000 </r>
       <r>   -0.8641    1.0000 </r>
       <r>   -0.7511    1.0000 </r>
       <r>   -0.7047    1.0000 </r>
       <r>   -0.6697    1.0000 </r>
       <r>   -0.6167    1.0000 </r>
       <r>   -0.5716    1.0000 </r>
       <r>   -0.5170    1.0000 </r>
       <r>   -0.4424    1.0000 </r>
       <r>   -0.4004    1.0000 </r>
       <r>   -0.3517    1.0000 </r>
       <r>   -0.3484    1.0000 </r>
       <r>   -0.2860    1.0000 </r>
       <r>   -0.2584    1.0000 </r>
       <r>   -0.2506    1.0000 </r>
       <r>   -0.2249    1.0000 </r>
       <r>   -0.1779    1.0000 </r>
       <r>   -0.0491    1.0000 </r>
       <r>   -0.0302    1.0000 </r>
       <r>   -0.0098    1.0000 </r>
       <r>   -0.0062    1.0000 </r>
       <r>    0.1459    1.0000 </r>
       <r>    0.2210    1.0000 </r>
       <r>    0.2675    1.0000 </r>
       <r>    0.2763    1.0000 </r>
       <r>    0.3210    1.0000 </r>
       <r>    0.3457    1.0000 </r>
       <r>    0.3639    1.0000 </r>
       <r>    0.3823    1.0000 </r>
       <r>    0.5028    1.0000 </r>
       <r>    0.5223    1.0000 </r>
       <r>    0.5472    1.0000 </r>
       <r>    0.5665    1.0000 </r>
       <r>    0.5711    1.0000 </r>
       <r>    0.5907    1.0000 </r>
       <r>    0.6366    1.0000 </r>
       <r>    0.7558    1.0000 </r>
       <r>    0.7784    1.0000 </r>
       <r>    0.8261    1.0000 </r>
       <r>    0.8760    1.0000 </r>
       <r>    0.9169    1.0000 </r>
       <r>    0.9542    1.0000 </r>
       <r>    1.0026    1.0000 </r>
       <r>    1.0765    1.0000 </r>
       <r>    1.1074    1.0000 </r>
       <r>    1.1320    1.0000 </r>
       <r>    1.1388    1.0000 </r>
       <r>    1.1509    1.0000 </r>
       <r>    1.2112    1.0000 </r>
       <r>    1.2484    1.0000 </r>
       <r>    1.2587    1.0000 </r>
       <r>    1.2647    1.0000 </r>
       <r>    1.3046    1.0000 </r>
       <r>    1.3680    1.0000 </r>
       <r>    1.4929    1.0000 </r>
       <r>    1.5668    1.0000 </r>
       <r>    1.5769    1.0000 </r>
       <r>    1.6463    1.0000 </r>
       <r>    1.6870    1.0000 </r>
       <r>    1.6878    1.0000 </r>
       <r>    1.8310    1.0000 </r>
       <r>    1.8317    1.0000 </r>
       <r>    1.8370    1.0000 </r>
       <r>    1.8608    1.0000 </r>
       <r>    1.8859    1.0000 </r>
       <r>    1.9348    1.0000 </r>
       <r>    2.0617    1.0000 </r>
       <r>    2.1083    1.0000 </r>
       <r>    2.1910    1.0000 </r>
       <r>    2.2050    1.0000 </r>
       <r>    2.2666    1.0000 </r>
       <r>    2.3100    1.0000 </r>
       <r>    2.3688    1.0000 </r>
       <r>    2.4803    1.0000 </r>
       <r>    2.5575    1.0000 </r>
       <r>    2.5630    1.0000 </r>
       <r>    2.5979    1.0000 </r>
       <r>    2.6590    1.0000 </r>
       <r>    2.8179    1.0000 </r>
       <r>    2.8515    1.0000 </r>
       <r>    2.8632    1.0000 </r>
       <r>    2.9363    1.0000 </r>
       <r>    3.0291    1.0000 </r>
       <r>    3.1434    1.0000 </r>
       <r>    3.1446    1.0000 </r>
       <r>    3.2449    1.0000 </r>
       <r>    3.2917    1.0000 </r>
       <r>    3.2962    1.0000 </r>
       <r>    3.4240    1.0000 </r>
       <r>    3.4635    1.0000 </r>
       <r>    3.4749    1.0000 </r>
       <r>    3.4811    1.0000 </r>
       <r>    3.6037    1.0000 </r>
       <r>    3.6264    1.0000 </r>
       <r>    3.6843    1.0000 </r>
       <r>    3.7846    0.1621 </r>
       <r>    3.8174    0.0000 </r>
       <r>    3.8292    0.0000 </r>
       <r>    3.8465    0.0000 </r>
       <r>    4.0117    0.0000 </r>
       <r>    4.0281    0.0000 </r>
       <r>    4.0621    0.0000 </r>
       <r>    4.0782    0.0000 </r>
       <r>    4.2199    0.0000 </r>
       <r>    4.2305    0.0000 </r>
       <r>    4.3190    0.0000 </r>
       <r>    4.3224    0.0000 </r>
       <r>    4.3577    0.0000 </r>
       <r>    4.3862    0.0000 </r>
       <r>    4.4311    0.0000 </r>
       <r>    4.4853    0.0000 </r>
       <r>    4.4963    0.0000 </r>
       <r>    4.5087    0.0000 </r>
       <r>    4.6087    0.0000 </r>
       <r>    4.6396    0.0000 </r>
       <r>    4.7505    0.0000 </r>
       <r>    4.8045    0.0000 </r>
       <r>    4.8579    0.0000 </r>
       <r>    4.8917    0.0000 </r>
       <r>    4.9356    0.0000 </r>
       <r>    4.9863    0.0000 </r>
       <r>    5.0996    0.0000 </r>
       <r>    5.1410    0.0000 </r>
       <r>    5.2116    0.0000 </r>
       <r>    5.2688    0.0000 </r>
       <r>    5.2855    0.0000 </r>
       <r>    5.3492    0.0000 </r>
       <r>    5.3794    0.0000 </r>
       <r>    5.5169    0.0000 </r>
       <r>    5.5176    0.0000 </r>
       <r>    5.5905    0.0000 </r>
       <r>    5.6347    0.0000 </r>
       <r>    5.6388    0.0000 </r>
       <r>    5.7199    0.0000 </r>
       <r>    5.7307    0.0000 </r>
       <r>    5.7830    0.0000 </r>
      </set>
      <set comment="kpoint 3">
       <r>  -10.2772    1.0000 </r>
       <r>  -10.1216    1.0000 </r>
       <r>   -9.8867    1.0000 </r>
       <r>   -9.7144    1.0000 </r>
       <r>   -9.6040    1.0000 </r>
       <r>   -9.3425    1.0000 </r>
       <r>   -9.0768    1.0000 </r>
       <r>   -8.6613    1.0000 </r>
       <r>   -8.4507    1.0000 </r>
       <r>   -8.2546    1.0000 </r>
       <r>   -8.1528    1.0000 </r>
       <r>   -8.1059    1.0000 </r>
       <r>   -8.0293    1.0000 </r>
       <r>   -7.9342    1.0000 </r>
       <r>   -7.7921    1.0000 </r>
       <r>   -7.7694    1.0000 </r>
       <r>   -7.6011    1.0000 </r>
       <r>   -7.5955    1.0000 </r>
       <r>   -7.5378    1.0000 </r>
       <r>   -7.3864    1.0000 </r>
       <r>   -7.3133    1.0000 </r>
       <r>   -7.2511    1.0000 </r>
       <r>   -7.0900    1.0000 </r>
       <r>   -7.0712    1.0000 </r>
       <r>   -7.0157    1.0000 </r>
       <r>   -7.0114    1.0000 </r>
       <r>   -6.8362    1.0000 </r>
       <r>   -6.7288    1.0000 </r>
       <r>   -6.7276    1.0000 </r>
       <r>   -6.7266    1.0000 </r>
       <r>   -6.3827    1.0000 </r>
       <r>   -6.3642    1.0000 </r>
       <r>   -6.3148    1.0000 </r>
       <r>   -6.2869    1.0000 </r>
       <r>   -6.2776    1.0000 </r>
       <r>   -6.2743    1.0000 </r>
       <r>   -6.0572    1.0000 </r>
       <r>   -6.0188    1.0000 </r>
       <r>   -5.9836    1.0000 </r>
       <r>   -5.9363    1.0000 </r>
       <r>   -5.8096    1.0000 </r>
       <r>   -5.7286    1.0000 </r>
       <r>   -5.6410    1.0000 </r>
       <r>   -5.6171    1.0000 </r>
       <r>   -5.4216    1.0000 </r>
       <r>   -5.4136    1.0000 </r>
       <r>   -5.3013    1.0000 </r>
       <r>   -5.3013    1.0000 </r>
       <r>   -5.2638    1.0000 </r>
       <r>   -5.2554    1.0000 </r>
       <r>   -5.0786    1.0000 </r>
       <r>   -5.0159    1.0000 </r>
       <r>   -5.0015    1.0000 </r>
       <r>   -4.7430    1.0000 </r>
       <r>   -4.7107    1.0000 </r>
       <r>   -4.5896    1.0000 </r>
       <r>   -4.5596    1.0000 </r>
       <r>   -4.4477    1.0000 </r>
       <r>   -4.2730    1.0000 </r>
       <r>   -4.2411    1.0000 </r>
       <r>   -4.1306    1.0000 </r>
       <r>   -4.0943    1.0000 </r>
       <r>   -3.9842    1.0000 </r>
       <r>   -3.8727    1.0000 </r>
       <r>   -3.8026    1.0000 </r>
       <r>   -3.7075    1.0000 </r>
       <r>   -3.6590    1.0000 </r>
       <r>   -3.6473    1.0000 </r>
       <r>   -3.4617    1.0000 </r>
       <r>   -3.3662    1.0000 </r>
       <r>   -3.3647    1.0000 </r>
       <r>   -3.3390    1.0000 </r>
       <r>   -3.1041    1.0000 </r>
       <r>   -2.9938    1.0000 </r>
       <r>   -2.9812    1.0000 </r>
       <r>   -2.8620    1.0000 </r>
       <r>   -2.7817    1.0000 </r>
       <r>   -2.7586    1.0000 </r>
       <r>   -2.7579    1.0000 </r>
       <r>   -2.7240    1.0000 </r>
       <r>   -2.3782    1.0000 </r>
       <r>   -2.3627    1.0000 </r>
       <r>   -2.3298    1.0000 </r>
       <r>   -2.2365    1.0000 </r>
       <r>   -2.2042    1.0000 </r>
       <r>   -2.1359    1.0000 </r>
       <r>   -1.9792    1.0000 </r>
       <r>   -1.8368    1.0000 </r>
       <r>   -1.6153    1.0000 </r>
       <r>   -1.5351    1.0000 </r>
       <r>   -1.3407    1.0000 </r>
       <r>   -1.2198    1.0000 </r>
       <r>   -1.1677    1.0000 </r>
       <r>   -1.1459    1.0000 </r>
       <r>   -1.1229    1.0000 </r>
       <r>   -0.9315    1.0000 </r>
       <r>   -0.9186    1.0000 </r>
       <r>   -0.8351    1.0000 </r>
       <r>   -0.7640    1.0000 </r>
       <r>   -0.6927    1.0000 </r>
       <r>   -0.6920    1.0000 </r>
       <r>   -0.6021    1.0000 </r>
       <r>   -0.5764    1.0000 </r>
       <r>   -0.5325    1.0000 </r>
       <r>   -0.5136    1.0000 </r>
       <r>   -0.4669    1.0000 </r>
       <r>   -0.4008    1.0000 </r>
       <r>   -0.3266    1.0000 </r>
       <r>   -0.3051    1.0000 </r>
       <r>   -0.2505    1.0000 </r>
       <r>   -0.2261    1.0000 </r>
       <r>   -0.1886    1.0000 </r>
       <r>   -0.0794    1.0000 </r>
       <r>    0.0049    1.0000 </r>
       <r>    0.0643    1.0000 </r>
       <r>    0.0645    1.0000 </r>
       <r>    0.1116    1.0000 </r>
       <r>    0.1154    1.0000 </r>
       <r>    0.1226    1.0000 </r>
       <r>    0.1391    1.0000 </r>
       <r>    0.2467    1.0000 </r>
       <r>    0.2729    1.0000 </r>
       <r>    0.2743    1.0000 </r>
       <r>    0.3033    1.0000 </r>
       <r>    0.4692    1.0000 </r>
       <r>    0.4716    1.0000 </r>
       <r>    0.5061    1.0000 </r>
       <r>    0.5091    1.0000 </r>
       <r>    0.5320    1.0000 </r>
       <r>    0.5484    1.0000 </r>
       <r>    0.5749    1.0000 </r>
       <r>    0.6589    1.0000 </r>
       <r>    0.7324    1.0000 </r>
       <r>    0.7679    1.0000 </r>
       <r>    0.9286    1.0000 </r>
       <r>    0.9368    1.0000 </r>
       <r>    0.9728    1.0000 </r>
       <r>    1.0093    1.0000 </r>
       <r>    1.0449    1.0000 </r>
       <r>    1.0569    1.0000 </r>
       <r>    1.0638    1.0000 </r>
       <r>    1.1689    1.0000 </r>
       <r>    1.1727    1.0000 </r>
       <r>    1.2019    1.0000 </r>
       <r>    1.2411    1.0000 </r>
       <r>    1.2428    1.0000 </r>
       <r>    1.2563    1.0000 </r>
       <r>    1.3046    1.0000 </r>
       <r>    1.3254    1.0000 </r>
       <r>    1.4465    1.0000 </r>
       <r>    1.4661    1.0000 </r>
       <r>    1.5106    1.0000 </r>
       <r>    1.5328    1.0000 </r>
       <r>    1.6150    1.0000 </r>
       <r>    1.6670    1.0000 </r>
       <r>    1.7166    1.0000 </r>
       <r>    1.7388    1.0000 </r>
       <r>    1.7822    1.0000 </r>
       <r>    1.8843    1.0000 </r>
       <r>    1.9325    1.0000 </r>
       <r>    1.9396    1.0000 </r>
       <r>    2.0103    1.0000 </r>
       <r>    2.0247    1.0000 </r>
       <r>    2.0824    1.0000 </r>
       <r>    2.2122    1.0000 </r>
       <r>    2.3341    1.0000 </r>
       <r>    2.3365    1.0000 </r>
       <r>    2.3690    1.0000 </r>
       <r>    2.4468    1.0000 </r>
       <r>    2.4750    1.0000 </r>
       <r>    2.5208    1.0000 </r>
       <r>    2.5461    1.0000 </r>
       <r>    2.6663    1.0000 </r>
       <r>    2.7489    1.0000 </r>
       <r>    2.7728    1.0000 </r>
       <r>    2.8186    1.0000 </r>
       <r>    2.8495    1.0000 </r>
       <r>    2.8715    1.0000 </r>
       <r>    2.9670    1.0000 </r>
       <r>    3.0193    1.0000 </r>
       <r>    3.0603    1.0000 </r>
       <r>    3.0655    1.0000 </r>
       <r>    3.1902    1.0000 </r>
       <r>    3.3167    1.0000 </r>
       <r>    3.3187    1.0000 </r>
       <r>    3.3666    1.0000 </r>
       <r>    3.4687    1.0000 </r>
       <r>    3.4884    1.0000 </r>
       <r>    3.4911    1.0000 </r>
       <r>    3.5481    1.0000 </r>
       <r>    3.6460    1.0000 </r>
       <r>    3.6821    1.0000 </r>
       <r>    3.7865    0.1052 </r>
       <r>    3.8370    0.0000 </r>
       <r>    3.8395    0.0000 </r>
       <r>    3.8781    0.0000 </r>
       <r>    4.0433    0.0000 </r>
       <r>    4.0845    0.0000 </r>
       <r>    4.1822    0.0000 </r>
       <r>    4.2536    0.0000 </r>
       <r>    4.2682    0.0000 </r>
       <r>    4.2953    0.0000 </r>
       <r>    4.3436    0.0000 </r>
       <r>    4.4512    0.0000 </r>
       <r>    4.4637    0.0000 </r>
       <r>    4.5172    0.0000 </r>
       <r>    4.5324    0.0000 </r>
       <r>    4.5566    0.0000 </r>
       <r>    4.6206    0.0000 </r>
       <r>    4.6725    0.0000 </r>
       <r>    4.7202    0.0000 </r>
       <r>    4.8675    0.0000 </r>
       <r>    4.8722    0.0000 </r>
       <r>    4.9024    0.0000 </r>
       <r>    4.9334    0.0000 </r>
       <r>    4.9562    0.0000 </r>
       <r>    5.0118    0.0000 </r>
       <r>    5.0667    0.0000 </r>
       <r>    5.0792    0.0000 </r>
       <r>    5.1433    0.0000 </r>
       <r>    5.1749    0.0000 </r>
       <r>    5.2185    0.0000 </r>
       <r>    5.3938    0.0000 </r>
       <r>    5.4645    0.0000 </r>
       <r>    5.4861    0.0000 </r>
       <r>    5.5405    0.0000 </r>
       <r>    5.5585    0.0000 </r>
       <r>    5.6731    0.0000 </r>
       <r>    5.7241    0.0000 </r>
       <r>    5.7284    0.0000 </r>
       <r>    5.7494    0.0000 </r>
       <r>    5.7671    0.0000 </r>
      </set>
      <set comment="kpoint 4">
       <r>  -10.3201    1.0000 </r>
       <r>   -9.9390    1.0000 </r>
       <r>   -9.8956    1.0000 </r>
       <r>   -9.8946    1.0000 </r>
       <r>   -9.4478    1.0000 </r>
       <r>   -9.4470    1.0000 </r>
       <r>   -9.2241    1.0000 </r>
       <r>   -8.4737    1.0000 </r>
       <r>   -8.3389    1.0000 </r>
       <r>   -8.2953    1.0000 </r>
       <r>   -8.1406    1.0000 </r>
       <r>   -8.0447    1.0000 </r>
       <r>   -8.0380    1.0000 </r>
       <r>   -7.9856    1.0000 </r>
       <r>   -7.8106    1.0000 </r>
       <r>   -7.7670    1.0000 </r>
       <r>   -7.7443    1.0000 </r>
       <r>   -7.6699    1.0000 </r>
       <r>   -7.6237    1.0000 </r>
       <r>   -7.2585    1.0000 </r>
       <r>   -7.2291    1.0000 </r>
       <r>   -7.2051    1.0000 </r>
       <r>   -7.1590    1.0000 </r>
       <r>   -6.9944    1.0000 </r>
       <r>   -6.9809    1.0000 </r>
       <r>   -6.9095    1.0000 </r>
       <r>   -6.7634    1.0000 </r>
       <r>   -6.7422    1.0000 </r>
       <r>   -6.6951    1.0000 </r>
       <r>   -6.5878    1.0000 </r>
       <r>   -6.5743    1.0000 </r>
       <r>   -6.3765    1.0000 </r>
       <r>   -6.3732    1.0000 </r>
       <r>   -6.3601    1.0000 </r>
       <r>   -6.3581    1.0000 </r>
       <r>   -6.3167    1.0000 </r>
       <r>   -6.1906    1.0000 </r>
       <r>   -6.1169    1.0000 </r>
       <r>   -6.0098    1.0000 </r>
       <r>   -5.9818    1.0000 </r>
       <r>   -5.9600    1.0000 </r>
       <r>   -5.8633    1.0000 </r>
       <r>   -5.6959    1.0000 </r>
       <r>   -5.5563    1.0000 </r>
       <r>   -5.3537    1.0000 </r>
       <r>   -5.3469    1.0000 </r>
       <r>   -5.2719    1.0000 </r>
       <r>   -5.1773    1.0000 </r>
       <r>   -5.1540    1.0000 </r>
       <r>   -5.1534    1.0000 </r>
       <r>   -4.9218    1.0000 </r>
       <r>   -4.9092    1.0000 </r>
       <r>   -4.8525    1.0000 </r>
       <r>   -4.7699    1.0000 </r>
       <r>   -4.6299    1.0000 </r>
       <r>   -4.6008    1.0000 </r>
       <r>   -4.5894    1.0000 </r>
       <r>   -4.3603    1.0000 </r>
       <r>   -4.3202    1.0000 </r>
       <r>   -4.3140    1.0000 </r>
       <r>   -4.2271    1.0000 </r>
       <r>   -4.1560    1.0000 </r>
       <r>   -4.0753    1.0000 </r>
       <r>   -3.8313    1.0000 </r>
       <r>   -3.8228    1.0000 </r>
       <r>   -3.7586    1.0000 </r>
       <r>   -3.6438    1.0000 </r>
       <r>   -3.5767    1.0000 </r>
       <r>   -3.5488    1.0000 </r>
       <r>   -3.4716    1.0000 </r>
       <r>   -3.2598    1.0000 </r>
       <r>   -3.1527    1.0000 </r>
       <r>   -3.0695    1.0000 </r>
       <r>   -3.0306    1.0000 </r>
       <r>   -3.0100    1.0000 </r>
       <r>   -2.8937    1.0000 </r>
       <r>   -2.8107    1.0000 </r>
       <r>   -2.8074    1.0000 </r>
       <r>   -2.7568    1.0000 </r>
       <r>   -2.5508    1.0000 </r>
       <r>   -2.5079    1.0000 </r>
       <r>   -2.4522    1.0000 </r>
       <r>   -2.3836    1.0000 </r>
       <r>   -2.3754    1.0000 </r>
       <r>   -2.2047    1.0000 </r>
       <r>   -2.0824    1.0000 </r>
       <r>   -2.0393    1.0000 </r>
       <r>   -2.0096    1.0000 </r>
       <r>   -1.3906    1.0000 </r>
       <r>   -1.3876    1.0000 </r>
       <r>   -1.3130    1.0000 </r>
[...]
       <r>    -9.3034    22.5126    12.0000 </r>
       <r>    -9.2441     0.0007    12.0000 </r>
       <r>    -9.1849    11.2561    12.6667 </r>
       <r>    -9.1257     0.0000    12.6667 </r>
       <r>    -9.0665    10.5350    13.2906 </r>
       <r>    -9.0072    11.9787    14.0000 </r>
       <r>    -8.9480     0.0000    14.0000 </r>
       <r>    -8.8888     0.0000    14.0000 </r>
       <r>    -8.8296     0.0000    14.0000 </r>
       <r>    -8.7703     0.0000    14.0000 </r>
       <r>    -8.7111     0.0000    14.0000 </r>
       <r>    -8.6519     3.9684    14.2350 </r>
       <r>    -8.5927    18.5453    15.3333 </r>
       <r>    -8.5335     6.2505    15.7035 </r>
       <r>    -8.4742     3.5629    15.9147 </r>
       <r>    -8.4150    13.1957    16.6962 </r>
       <r>    -8.3558    11.3239    17.3668 </r>
       <r>    -8.2966    22.8900    18.7224 </r>
       <r>    -8.2373    23.0534    20.0878 </r>
       <r>    -8.1781     0.4116    20.1121 </r>
       <r>    -8.1189    20.9693    21.3540 </r>
       <r>    -8.0597    33.1895    23.3199 </r>
       <r>    -8.0004    23.9779    24.7400 </r>
       <r>    -7.9412    32.6459    26.6737 </r>
       <r>    -7.8820    11.9835    27.3835 </r>
       <r>    -7.8228    13.7680    28.1988 </r>
       <r>    -7.7636    35.3223    30.2909 </r>
       <r>    -7.7043    39.3396    32.6208 </r>
       <r>    -7.6451    24.7108    34.0845 </r>
       <r>    -7.5859    15.0741    34.9772 </r>
       <r>    -7.5267    35.2312    37.0637 </r>
       <r>    -7.4674    15.8095    38.0000 </r>
       <r>    -7.4082     1.2061    38.0714 </r>
       <r>    -7.3490    17.6914    39.1192 </r>
       <r>    -7.2898    23.9030    40.5348 </r>
       <r>    -7.2305    37.4386    42.7525 </r>
       <r>    -7.1713    25.4477    44.2597 </r>
       <r>    -7.1121    24.4166    45.7058 </r>
       <r>    -7.0529    20.4656    46.9179 </r>
       <r>    -6.9937    31.2840    48.7706 </r>
       <r>    -6.9344    27.8584    50.4205 </r>
       <r>    -6.8752    20.9216    51.6596 </r>
       <r>    -6.8160    16.0464    52.6102 </r>
       <r>    -6.7568    33.0406    54.5669 </r>
       <r>    -6.6975    51.9262    57.6423 </r>
       <r>    -6.6383    15.3257    58.5505 </r>
       <r>    -6.5791    17.5249    59.5884 </r>
       <r>    -6.5199    27.3993    61.2111 </r>
       <r>    -6.4606    25.5087    62.7218 </r>
       <r>    -6.4014    15.8073    63.6580 </r>
       <r>    -6.3422    58.3686    67.1148 </r>
       <r>    -6.2830    42.6539    69.6411 </r>
       <r>    -6.2237    26.5941    71.2162 </r>
       <r>    -6.1645    15.5267    72.1358 </r>
       <r>    -6.1053    32.8292    74.0802 </r>
       <r>    -6.0461    23.0324    75.4443 </r>
       <r>    -5.9869    24.4458    76.8920 </r>
       <r>    -5.9276    29.7247    78.6527 </r>
       <r>    -5.8684    12.8932    79.4164 </r>
       <r>    -5.8092    28.9391    81.1302 </r>
       <r>    -5.7500    23.7547    82.5371 </r>
       <r>    -5.6907    19.7068    83.7045 </r>
       <r>    -5.6315    28.8460    85.4129 </r>
       <r>    -5.5723    19.8333    86.5875 </r>
       <r>    -5.5131    27.0115    88.1875 </r>
       <r>    -5.4538    16.5498    89.1679 </r>
       <r>    -5.3946    32.9574    91.1197 </r>
       <r>    -5.3354    42.8793    93.6592 </r>
       <r>    -5.2762    25.4394    95.1658 </r>
       <r>    -5.2170    23.1835    96.5388 </r>
       <r>    -5.1577    18.9075    97.6586 </r>
       <r>    -5.0985    24.4344    99.1057 </r>
       <r>    -5.0393    20.5057   100.3201 </r>
       <r>    -4.9801    28.8532   102.0289 </r>
       <r>    -4.9208    19.0478   103.1570 </r>
       <r>    -4.8616    28.5727   104.8492 </r>
       <r>    -4.8024    19.2025   105.9866 </r>
       <r>    -4.7432    29.4388   107.7300 </r>
       <r>    -4.6839    32.3087   109.6435 </r>
       <r>    -4.6247    19.6025   110.8045 </r>
       <r>    -4.5655    25.9539   112.3417 </r>
       <r>    -4.5063    24.9681   113.8204 </r>
       <r>    -4.4471    27.6579   115.4584 </r>
       <r>    -4.3878    22.3515   116.7822 </r>
       <r>    -4.3286    13.7691   117.5977 </r>
       <r>    -4.2694    11.2972   118.2668 </r>
       <r>    -4.2102    17.9585   119.3304 </r>
       <r>    -4.1509     7.7847   119.7916 </r>
       <r>    -4.0917    34.2066   121.8175 </r>
       <r>    -4.0325    27.5192   123.4475 </r>
       <r>    -3.9733    23.9623   124.8669 </r>
       <r>    -3.9140    10.2158   125.4719 </r>
       <r>    -3.8548    14.2029   126.3130 </r>
       <r>    -3.7956    21.7496   127.6011 </r>
       <r>    -3.7364    32.7052   129.5380 </r>
       <r>    -3.6771    23.4771   130.9288 </r>
       <r>    -3.6179    31.0727   132.7693 </r>
       <r>    -3.5587    17.4019   133.8002 </r>
       <r>    -3.4995    24.7145   135.2639 </r>
       <r>    -3.4403    38.8253   137.5633 </r>
       <r>    -3.3810    17.3055   138.5885 </r>
       <r>    -3.3218    32.1113   140.4903 </r>
       <r>    -3.2626    35.9030   142.6166 </r>
       <r>    -3.2034    16.4549   143.5911 </r>
       <r>    -3.1441    10.6843   144.2239 </r>
       <r>    -3.0849    23.1353   145.5940 </r>
       <r>    -3.0257    35.6174   147.7034 </r>
       <r>    -2.9665    35.5446   149.8085 </r>
       <r>    -2.9072    23.2903   151.1881 </r>
       <r>    -2.8480    32.2259   153.0967 </r>
       <r>    -2.7888    28.2609   154.7704 </r>
       <r>    -2.7296    40.7921   157.1863 </r>
       <r>    -2.6704    23.7361   158.5920 </r>
       <r>    -2.6111    25.7844   160.1191 </r>
       <r>    -2.5519    23.1938   161.4927 </r>
       <r>    -2.4927    30.1793   163.2801 </r>
       <r>    -2.4335    12.5223   164.0217 </r>
       <r>    -2.3742    18.4237   165.1128 </r>
       <r>    -2.3150    27.3493   166.7326 </r>
       <r>    -2.2558    24.7596   168.1989 </r>
       <r>    -2.1966    24.8205   169.6689 </r>
       <r>    -2.1373    24.0438   171.0928 </r>
       <r>    -2.0781    10.3759   171.7075 </r>
       <r>    -2.0189    24.3120   173.1474 </r>
       <r>    -1.9597    19.5459   174.3049 </r>
       <r>    -1.9005    10.1624   174.9068 </r>
       <r>    -1.8412     5.4742   175.2310 </r>
       <r>    -1.7820     7.3327   175.6653 </r>
       <r>    -1.7228    16.1191   176.6199 </r>
       <r>    -1.6636    13.8325   177.4391 </r>
       <r>    -1.6043    11.7826   178.1370 </r>
       <r>    -1.5451    12.4854   178.8765 </r>
       <r>    -1.4859    17.0603   179.8869 </r>
       <r>    -1.4267     3.8831   180.1168 </r>
       <r>    -1.3674    13.4123   180.9112 </r>
       <r>    -1.3082    20.4924   182.1248 </r>
       <r>    -1.2490     5.4079   182.4452 </r>
       <r>    -1.1898    11.6800   183.1369 </r>
       <r>    -1.1305    32.8448   185.0821 </r>
       <r>    -1.0713    46.8092   187.8543 </r>
       <r>    -1.0121    24.8415   189.3258 </r>
       <r>    -0.9529    14.5936   190.1904 </r>
       <r>    -0.8937    31.2165   192.0392 </r>
       <r>    -0.8344    36.2809   194.1879 </r>
       <r>    -0.7752    28.3064   195.8645 </r>
       <r>    -0.7160    27.1160   197.4704 </r>
       <r>    -0.6568    44.0531   200.0795 </r>
       <r>    -0.5975    45.0872   202.7497 </r>
       <r>    -0.5383    53.2599   205.9041 </r>
       <r>    -0.4791    39.7563   208.2590 </r>
       <r>    -0.4199    41.6242   210.7242 </r>
       <r>    -0.3606    17.0965   211.7368 </r>
       <r>    -0.3014    44.5797   214.3771 </r>
       <r>    -0.2422    62.7508   218.0934 </r>
       <r>    -0.1830    39.9842   220.4618 </r>
       <r>    -0.1238    47.5243   223.2764 </r>
       <r>    -0.0645    46.6347   226.0382 </r>
       <r>    -0.0053    33.3566   228.0138 </r>
       <r>     0.0539    50.2647   230.9906 </r>
       <r>     0.1131    47.9692   233.8318 </r>
       <r>     0.1724    57.2712   237.2237 </r>
       <r>     0.2316    26.9089   238.8176 </r>
       <r>     0.2908    50.2436   241.7932 </r>
       <r>     0.3500    61.1820   245.4170 </r>
       <r>     0.4093    49.8043   248.3669 </r>
       <r>     0.4685    49.2770   251.2855 </r>
       <r>     0.5277    42.3398   253.7931 </r>
       <r>     0.5869    49.8197   256.7436 </r>
       <r>     0.6461    53.9690   259.9398 </r>
       <r>     0.7054    45.1591   262.6143 </r>
       <r>     0.7646    48.9206   265.5116 </r>
       <r>     0.8238    43.9530   268.1151 </r>
       <r>     0.8830    56.3159   271.4506 </r>
       <r>     0.9423    51.9136   274.5253 </r>
       <r>     1.0015    44.8779   277.1831 </r>
       <r>     1.0607    50.3535   280.1655 </r>
       <r>     1.1199    49.5278   283.0989 </r>
       <r>     1.1792    52.7866   286.2251 </r>
       <r>     1.2384    49.4267   289.1523 </r>
       <r>     1.2976    72.7623   293.4616 </r>
       <r>     1.3568    55.0737   296.7233 </r>
       <r>     1.4161    26.7086   298.3054 </r>
       <r>     1.4753    30.6861   300.1227 </r>
       <r>     1.5345    47.6645   302.9459 </r>
       <r>     1.5937    41.1933   305.3859 </r>
       <r>     1.6529    36.3345   307.5378 </r>
       <r>     1.7122    48.0802   310.3853 </r>
       <r>     1.7714    40.2419   312.7686 </r>
       <r>     1.8306    32.7303   314.7072 </r>
       <r>     1.8898    56.3954   318.0475 </r>
       <r>     1.9491    41.0363   320.4778 </r>
       <r>     2.0083    32.8933   322.4260 </r>
       <r>     2.0675    41.9356   324.9098 </r>
       <r>     2.1267    39.2233   327.2327 </r>
       <r>     2.1860    27.1326   328.8396 </r>
       <r>     2.2452    51.1272   331.8676 </r>
       <r>     2.3044    23.7632   333.2753 </r>
       <r>     2.3636    36.9827   335.4658 </r>
       <r>     2.4228    39.2474   337.7903 </r>
       <r>     2.4821    32.2249   339.6987 </r>
       <r>     2.5413    46.7476   342.4674 </r>
       <r>     2.6005    37.8336   344.7081 </r>
       <r>     2.6597    40.0163   347.0780 </r>
       <r>     2.7190    19.7351   348.2471 </r>
       <r>     2.7782    27.4159   349.8708 </r>
       <r>     2.8374    31.3361   351.7268 </r>
       <r>     2.8966    47.2815   354.5274 </r>
       <r>     2.9559    36.8418   356.7096 </r>
       <r>     3.0151    21.8477   358.0036 </r>
       <r>     3.0743    51.2786   361.0405 </r>
       <r>     3.1335    29.1916   362.7693 </r>
       <r>     3.1927    31.0900   364.6106 </r>
       <r>     3.2520    40.9115   367.0335 </r>
       <r>     3.3112    30.4378   368.8368 </r>
       <r>     3.3704    44.2107   371.4552 </r>
       <r>     3.4296    21.7343   372.7424 </r>
       <r>     3.4889    56.0539   376.0621 </r>
       <r>     3.5481    30.0261   377.8404 </r>
       <r>     3.6073    21.1003   379.0900 </r>
       <r>     3.6665    34.6633   381.1430 </r>
       <r>     3.7258    29.8105   382.9085 </r>
       <r>     3.7850    26.5597   384.4816 </r>
       <r>     3.8442    56.1653   387.8079 </r>
       <r>     3.9034    36.0611   389.9436 </r>
       <r>     3.9627    22.4558   391.2735 </r>
       <r>     4.0219    11.3536   391.9460 </r>
       <r>     4.0811    43.2372   394.5067 </r>
       <r>     4.1403    29.5749   396.2583 </r>
       <r>     4.1995    30.2135   398.0477 </r>
       <r>     4.2588    39.8648   400.4086 </r>
       <r>     4.3180    45.3917   403.0969 </r>
       <r>     4.3772    43.1043   405.6497 </r>
       <r>     4.4364    39.2125   407.9722 </r>
       <r>     4.4957    37.1654   410.1733 </r>
       <r>     4.5549    55.7708   413.4764 </r>
       <r>     4.6141    31.0500   415.3155 </r>
       <r>     4.6733    23.8531   416.7282 </r>
       <r>     4.7326    39.3255   419.0577 </r>
       <r>     4.7918    33.5621   421.0454 </r>
       <r>     4.8510    42.3560   423.5540 </r>
       <r>     4.9102    39.0931   425.8692 </r>
       <r>     4.9694    43.1778   428.4266 </r>
       <r>     5.0287    25.8304   429.9568 </r>
       <r>     5.0879    33.2306   431.9249 </r>
       <r>     5.1471    40.6524   434.3325 </r>
       <r>     5.2063    42.0391   436.8223 </r>
       <r>     5.2656    51.3096   439.8614 </r>
       <r>     5.3248    32.9368   441.8121 </r>
       <r>     5.3840    43.7673   444.4043 </r>
       <r>     5.4432    29.4427   446.1481 </r>
       <r>     5.5025    49.1424   449.0587 </r>
       <r>     5.5617    52.2203   452.1516 </r>
       <r>     5.6209    33.9941   454.1648 </r>
       <r>     5.6801    56.9323   457.5367 </r>
       <r>     5.7393    55.0796   460.7988 </r>
       <r>     5.7986    40.0323   463.1702 </r>
       <r>     5.8578    14.0064   464.0000 </r>
       <r>     5.9170     0.0000   464.0000 </r>
       <r>     5.9762     0.0000   464.0000 </r>
       <r>     6.0355     0.0000   464.0000 </r>
       <r>     6.0947     0.0000   464.0000 </r>
       <r>     6.1539     0.0000   464.0000 </r>
       <r>     6.2131     0.0000   464.0000 </r>
       <r>     6.2724     0.0000   464.0000 </r>
       <r>     6.3316     0.0000   464.0000 </r>
       <r>     6.3908     0.0000   464.0000 </r>
       <r>     6.4500     0.0000   464.0000 </r>
       <r>     6.5092     0.0000   464.0000 </r>
       <r>     6.5685     0.0000   464.0000 </r>
       <r>     6.6277     0.0000   464.0000 </r>
      </set>
     </set>
    </array>
   </total>
  </dos>
 </calculation>
 <structure name="finalpos" >
  <crystal>
   <varray name="basis" >
    <v>      12.65122604       0.00000000       0.00000000 </v>
    <v>       2.53024530      12.39562035       0.00000000 </v>
    <v>       0.00000000       0.00000000      13.73516273 </v>
   </varray>
   <i name="volume">   2153.94540375 </i>
   <varray name="rec_basis" >
    <v>       0.07904372      -0.01613473       0.00000000 </v>
    <v>       0.00000000       0.08067366       0.00000000 </v>
    <v>       0.00000000       0.00000000       0.07280584 </v>
   </varray>
  </crystal>
  <varray name="positions" >
   <v>       0.78425658       0.48979867       0.42041528 </v>
   <v>       0.99259037       0.94813251       0.00000002 </v>
   <v>       0.95092356       0.65646577       0.08408309 </v>
   <v>       0.90925682       0.36479890       0.16816616 </v>
   <v>       0.86759007       0.07313222       0.25224918 </v>
   <v>       0.82592332       0.78146553       0.33633217 </v>
   <v>       0.28425661       0.98979878       0.42041531 </v>
   <v>       0.49259037       0.44813251       0.00000003 </v>
   <v>       0.45092362       0.15646577       0.08408309 </v>
   <v>       0.40925688       0.86479896       0.16816616 </v>
   <v>       0.36759013       0.57313228       0.25224918 </v>
   <v>       0.32592338       0.28146553       0.33633223 </v>
   <v>       0.15925664       0.36479878       0.42041531 </v>
   <v>       0.36759040       0.82313263       0.00000001 </v>
   <v>       0.32592362       0.53146583       0.08408309 </v>
   <v>       0.28425688       0.23979901       0.16816619 </v>
   <v>       0.24259017       0.94813240       0.25224918 </v>
   <v>       0.20092338       0.65646565       0.33633223 </v>
   <v>       0.65925658       0.86479867       0.42041528 </v>
   <v>       0.86759049       0.32313258       0.00000001 </v>
   <v>       0.82592368       0.03146578       0.08408309 </v>
   <v>       0.78425688       0.73979890       0.16816616 </v>
   <v>       0.74259013       0.44813234       0.25224918 </v>
   <v>       0.70092338       0.15646553       0.33633217 </v>
   <v>       0.03425656       0.23979878       0.42041528 </v>
   <v>       0.24259035       0.69813263       0.00000000 </v>
   <v>       0.20092359       0.40646580       0.08408308 </v>
   <v>       0.15925685       0.11479896       0.16816616 </v>
   <v>       0.11759009       0.82313240       0.25224915 </v>
   <v>       0.07592334       0.53146553       0.33633217 </v>
   <v>       0.53425670       0.73979867       0.42041531 </v>
   <v>       0.74259043       0.19813251       0.00000002 </v>
   <v>       0.70092362       0.90646571       0.08408309 </v>
   <v>       0.65925688       0.61479890       0.16816616 </v>
   <v>       0.61759025       0.32313234       0.25224918 </v>
   <v>       0.57592344       0.03146547       0.33633217 </v>
   <v>       0.90925658       0.61479878       0.42041531 </v>
   <v>       0.11759036       0.07313251       0.00000002 </v>
   <v>       0.07592360       0.78146577       0.08408309 </v>
   <v>       0.03425685       0.48979896       0.16816616 </v>
   <v>       0.99259007       0.19813222       0.25224918 </v>
   <v>       0.95092338       0.90646553       0.33633223 </v>
   <v>       0.40925661       0.11479884       0.42041531 </v>
   <v>       0.61759049       0.57313258       0.00000001 </v>
   <v>       0.57592362       0.28146583       0.08408308 </v>
   <v>       0.53425694       0.98979902       0.16816619 </v>
   <v>       0.49259019       0.69813228       0.25224924 </v>
   <v>       0.45092344       0.40646553       0.33633226 </v>
   <v>       0.94217962       0.08584392       0.92041534 </v>
   <v>       0.40051341       0.29417765       0.50000006 </v>
   <v>       0.10884666       0.25251091       0.58408308 </v>
   <v>       0.81717992       0.21084416       0.66816616 </v>
   <v>       0.52551317       0.16917741       0.75224924 </v>
   <v>       0.23384643       0.12751067       0.83633232 </v>
   <v>       0.44217968       0.58584392       0.92041534 </v>
   <v>       0.90051347       0.79417765       0.50000006 </v>
   <v>       0.60884666       0.75251091       0.58408308 </v>
   <v>       0.31717992       0.71084422       0.66816616 </v>
   <v>       0.02551317       0.66917741       0.75224924 </v>
   <v>       0.73384643       0.62751067       0.83633232 </v>
   <v>       0.81717974       0.46084398       0.92041534 </v>
   <v>       0.27551365       0.66917771       0.50000006 </v>
   <v>       0.98384678       0.62751091       0.58408308 </v>
   <v>       0.69218004       0.58584422       0.66816616 </v>
   <v>       0.40051341       0.54417747       0.75224924 </v>
   <v>       0.10884666       0.50251073       0.83633232 </v>
   <v>       0.31717968       0.96084392       0.92041528 </v>
   <v>       0.77551353       0.16917777       0.50000006 </v>
   <v>       0.48384672       0.12751102       0.58408308 </v>
   <v>       0.19217992       0.08584416       0.66816616 </v>
   <v>       0.90051329       0.04417753       0.75224924 </v>
   <v>       0.60884649       0.00251067       0.83633232 </v>
   <v>       0.69217968       0.33584389       0.92041534 </v>
   <v>       0.15051353       0.54417765       0.50000006 </v>
   <v>       0.85884678       0.50251091       0.58408308 </v>
   <v>       0.56717998       0.46084416       0.66816616 </v>
   <v>       0.27551329       0.41917741       0.75224918 </v>
   <v>       0.98384649       0.37751067       0.83633226 </v>
   <v>       0.19217968       0.83584404       0.92041534 </v>
   <v>       0.65051347       0.04417777       0.50000006 </v>
   <v>       0.35884666       0.00251102       0.58408308 </v>
   <v>       0.06717992       0.96084416       0.66816616 </v>
   <v>       0.77551323       0.91917753       0.75224924 </v>
   <v>       0.48384643       0.87751079       0.83633232 </v>
   <v>       0.06717968       0.21084392       0.92041534 </v>
   <v>       0.52551347       0.41917768       0.50000006 </v>
   <v>       0.23384666       0.37751091       0.58408308 </v>
   <v>       0.94217998       0.33584419       0.66816616 </v>
   <v>       0.65051317       0.29417741       0.75224918 </v>
   <v>       0.35884643       0.25251067       0.83633232 </v>
   <v>       0.56717974       0.71084404       0.92041534 </v>
   <v>       0.02551353       0.91917777       0.50000006 </v>
   <v>       0.73384672       0.87751091       0.58408308 </v>
   <v>       0.44218004       0.83584428       0.66816616 </v>
   <v>       0.15051317       0.79417753       0.75224924 </v>
   <v>       0.85884649       0.75251079       0.83633232 </v>
  </varray>
 </structure>
</modeling>
