Si and Ge interface calculation         
           1
     9.177114    0.000000    0.000000
     4.588558   13.765673    0.000000
     0.000000    0.000000   10.815335
   Sn
    48
Direct configuration=     1
   0.99503511  0.99503511  0.00000000
   0.82836843  0.82836843  0.29999995
   0.66170180  0.66170180  0.59999979
   0.32836846  0.32836843  0.00000000
   0.16170177  0.16170174  0.29999995
   0.99503511  0.99503511  0.59999979
   0.66170180  0.66170180  0.00000000
   0.49503514  0.49503511  0.29999995
   0.32836848  0.32836846  0.59999979
   0.24503510  0.99503511  0.14999995
   0.07836847  0.82836843  0.44999987
   0.91170174  0.66170174  0.74999976
   0.57836848  0.32836843  0.14999995
   0.41170183  0.16170178  0.44999987
   0.24503513  0.99503505  0.74999976
   0.91170174  0.66170174  0.14999995
   0.74503511  0.49503505  0.44999987
   0.57836843  0.32836837  0.74999976
   0.49503505  0.99503511  0.00000000
   0.32836840  0.82836843  0.29999995
   0.16170174  0.66170180  0.59999979
   0.16170172  0.66170174  0.00000000
   0.99503505  0.49503505  0.29999995
   0.82836843  0.32836843  0.59999979
   0.82836848  0.32836846  0.00000000
   0.66170180  0.16170177  0.29999995
   0.49503514  0.99503511  0.59999979
   0.07836841  0.32836843  0.14999995
   0.91170180  0.16170177  0.44999987
   0.74503505  0.99503505  0.74999976
   0.74503511  0.99503511  0.14999995
   0.57836848  0.82836843  0.44999987
   0.41170174  0.66170174  0.74999976
   0.41170174  0.66170174  0.14999995
   0.24503513  0.49503511  0.44999987
   0.07836840  0.32836840  0.74999976
   0.98938477  0.97346187  0.74999976
   0.87827355  0.69568396  0.84999979
   0.76716238  0.41790611  0.94999981
   0.48938477  0.97346187  0.74999976
   0.37827358  0.69568396  0.84999979
   0.26716241  0.41790611  0.94999981
   0.68382919  0.08457296  0.79999983
   0.57271802  0.80679506  0.89999986
   0.46160677  0.52901715  0.99999988
   0.18382917  0.08457296  0.79999983
   0.07271798  0.80679512  0.89999986
   0.96160674  0.52901709  0.99999988
