Si Bulk DFT energetics calculations using VASP\n
This script is running on comp177.cluster.local in /lustre/home/ah1365/projects/127870/upgrade_report/case_studies/common/structures/interfaces/228_Ge108Si120_001_001_a0.745562_b0.272189_c2.0_interface2shift2\n
Job started on: Mon  9 Jun 15:17:21 UTC 2025\n
 running   64 mpi-ranks, on    4 nodes
 distrk:  each k-point on   64 cores,    1 groups
 distr:  one band on   16 cores,    4 groups
 vasp.6.4.3 19Mar24 (build Oct 22 2024 11:23:12) complex                        
  
 POSCAR found type information on POSCAR GeSi
 POSCAR found :  2 types and     228 ions
 -----------------------------------------------------------------------------
|                                                                             |
|           W    W    AA    RRRRR   N    N  II  N    N   GGGG   !!!           |
|           W    W   A  A   R    R  NN   N  II  NN   N  G    G  !!!           |
|           W    W  A    A  R    R  N N  N  II  N N  N  G       !!!           |
|           W WW W  AAAAAA  RRRRR   N  N N  II  N  N N  G  GGG   !            |
|           WW  WW  A    A  R   R   N   NN  II  N   NN  G    G                |
|           W    W  A    A  R    R  N    N  II  N    N   GGGG   !!!           |
|                                                                             |
|     You use a magnetic or noncollinear calculation, but did not specify     |
|     the initial magnetic moment with the MAGMOM tag. Note that a            |
|     default of 4.386e-3 will be used for all atoms. This ferromagnetic      |
|     setup may break the symmetry of the crystal, in particular it may       |
|     rule out finding an antiferromagnetic solution. Thence, we              |
|     recommend setting the initial magnetic moment manually or verifying     |
|     carefully that this magnetic setup is desired.                          |
|                                                                             |
 -----------------------------------------------------------------------------

 scaLAPACK will be used
 LDA part: xc-table for (Slater+PW92), standard interpolation
 POSCAR, INCAR and KPOINTS ok, starting setup
 FFT: planning ... GRIDC
 FFT: planning ... GRID_SOFT
 FFT: planning ... GRID
 WAVECAR not read
 entering main loop
       N       E                     dE             d eps       ncg     rms          rms(c)
DAV:   1     0.380775598424E+04    0.38078E+04   -0.40386E+05 17536   0.172E+03
DAV:   2    -0.640986573819E+03   -0.44487E+04   -0.42939E+04 20480   0.213E+02
DAV:   3    -0.106660651457E+04   -0.42562E+03   -0.41162E+03 21720   0.582E+01
DAV:   4    -0.108287870929E+04   -0.16272E+02   -0.15971E+02 20640   0.119E+01
DAV:   5    -0.108353079660E+04   -0.65209E+00   -0.64780E+00 23704   0.230E+00    0.422E+01
DAV:   6    -0.106487254777E+04    0.18658E+02   -0.42118E+01 21632   0.934E+00    0.189E+01
DAV:   7    -0.106436855668E+04    0.50399E+00   -0.30702E+01 20888   0.751E+00    0.970E+00
DAV:   8    -0.106355735562E+04    0.81120E+00   -0.66418E+00 20496   0.382E+00    0.238E+00
DAV:   9    -0.106355338905E+04    0.39666E-02   -0.14179E+00 21336   0.121E+00    0.131E+00
DAV:  10    -0.106353659511E+04    0.16794E-01   -0.19620E-01 20992   0.585E-01    0.743E-01
DAV:  11    -0.106353685122E+04   -0.25611E-03   -0.65658E-02 21528   0.356E-01    0.390E-01
DAV:  12    -0.106353398216E+04    0.28691E-02   -0.19795E-02 21672   0.213E-01    0.194E-01
DAV:  13    -0.106353409077E+04   -0.10861E-03   -0.34436E-03 19688   0.683E-02    0.128E-01
DAV:  14    -0.106353415209E+04   -0.61321E-04   -0.74853E-04 20160   0.332E-02    0.511E-02
DAV:  15    -0.106353416421E+04   -0.12122E-04   -0.25357E-04 20064   0.186E-02    0.388E-02
DAV:  16    -0.106353417113E+04   -0.69185E-05   -0.59643E-05 19960   0.974E-03    0.225E-02
DAV:  17    -0.106353417248E+04   -0.13521E-05   -0.15653E-05 20104   0.464E-03    0.905E-03
DAV:  18    -0.106353417429E+04   -0.18065E-05   -0.35006E-06 19144   0.233E-03    0.611E-03
DAV:  19    -0.106353417622E+04   -0.19340E-05   -0.71670E-07 20000   0.106E-03    0.339E-03
DAV:  20    -0.106353417758E+04   -0.13565E-05   -0.28815E-07 13096   0.693E-04    0.149E-03
DAV:  21    -0.106353417820E+04   -0.62464E-06   -0.12131E-07 10312   0.455E-04    0.702E-04
DAV:  22    -0.106353417841E+04   -0.20575E-06   -0.46874E-08 10176   0.237E-04    0.380E-04
DAV:  23    -0.106353417847E+04   -0.62737E-07   -0.15172E-08 10016   0.149E-04
   1 F= -.10635342E+04 E0= -.10635323E+04  d E =-.366009E-02  mag=     1.0000
Job ended on: Mon  9 Jun 16:11:01 UTC 2025\n
