  60  60   0   0
  0.2091484E+02  0.1589523E-08  0.1589523E-08  0.6663594E-09  0.5000000E-15
  1.000000000000000E-004
  CAR 
 Si and Ge interface calculation         
      9.40971046     -7.99264058  301      6.62171846      1.00000000
     -7.993  0.0000E+00  0.0000E+00  0.0000E+00  0.0000E+00
     -7.935  0.0000E+00  0.0000E+00  0.0000E+00  0.0000E+00
     -7.877  0.0000E+00  0.0000E+00  0.0000E+00  0.0000E+00
     -7.819  0.0000E+00  0.0000E+00  0.0000E+00  0.0000E+00
     -7.761  0.0000E+00  0.0000E+00  0.0000E+00  0.0000E+00
     -7.703  0.0000E+00  0.0000E+00  0.0000E+00  0.0000E+00
     -7.645  0.0000E+00  0.0000E+00  0.0000E+00  0.0000E+00
     -7.587  0.0000E+00  0.0000E+00  0.0000E+00  0.0000E+00
     -7.529  0.0000E+00  0.0000E+00  0.0000E+00  0.0000E+00
     -7.471  0.0000E+00  0.0000E+00  0.0000E+00  0.0000E+00
     -7.413  0.0000E+00  0.0000E+00  0.0000E+00  0.0000E+00
     -7.355  0.0000E+00  0.0000E+00  0.0000E+00  0.0000E+00
     -7.297  0.0000E+00  0.0000E+00  0.0000E+00  0.0000E+00
     -7.239  0.6838E-07  0.1815E-11  0.3967E-08  0.1053E-12
     -7.181  0.2146E+01  0.1235E+01  0.1245E+00  0.7166E-01
     -7.123  0.6640E+01  0.3619E+01  0.5097E+00  0.2816E+00
     -7.065  0.8006E+01  0.8003E+01  0.9741E+00  0.7459E+00
     -7.007  0.3895E+01  0.7829E+01  0.1200E+01  0.1200E+01
     -6.948  0.9252E+01  0.8481E+01  0.1737E+01  0.1692E+01
     -6.890  0.1828E+02  0.1810E+02  0.2797E+01  0.2742E+01
     -6.832  0.1563E+01  0.1223E+01  0.2888E+01  0.2813E+01
     -6.774  0.1466E+02  0.1570E+02  0.3738E+01  0.3723E+01
     -6.716  0.7263E+01  0.5770E+01  0.4160E+01  0.4058E+01
     -6.658  0.7912E+01  0.7387E+01  0.4619E+01  0.4487E+01
     -6.600  0.9191E+01  0.8567E+01  0.5152E+01  0.4984E+01
     -6.542  0.6159E+01  0.5803E+01  0.5509E+01  0.5320E+01
     -6.484  0.1734E+02  0.1348E+02  0.6515E+01  0.6102E+01
     -6.426  0.7492E+01  0.1429E+02  0.6950E+01  0.6931E+01
     -6.368  0.1277E+02  0.8499E+01  0.7690E+01  0.7424E+01
     -6.310  0.3408E+01  0.5489E+01  0.7888E+01  0.7742E+01
     -6.252  0.6161E+01  0.7502E+01  0.8245E+01  0.8178E+01
     -6.194  0.4830E+01  0.4707E+01  0.8526E+01  0.8451E+01
     -6.136  0.2844E+02  0.1884E+02  0.1018E+02  0.9544E+01
     -6.078  0.2990E+02  0.3760E+02  0.1191E+02  0.1173E+02
     -6.020  0.3268E+02  0.1594E+02  0.1381E+02  0.1265E+02
     -5.962  0.1714E+02  0.3707E+02  0.1480E+02  0.1480E+02
     -5.904  0.4012E+01  0.2612E+01  0.1503E+02  0.1495E+02
     -5.846  0.9304E+01  0.8779E+01  0.1557E+02  0.1546E+02
     -5.788  0.5097E+01  0.6992E+01  0.1587E+02  0.1587E+02
     -5.730  0.1791E+01  0.1555E+01  0.1597E+02  0.1596E+02
     -5.672  0.4819E+00  0.7484E+00  0.1600E+02  0.1600E+02
     -5.614  0.0000E+00  0.0000E+00  0.1600E+02  0.1600E+02
     -5.556  0.3147E-14  0.0000E+00  0.1600E+02  0.1600E+02
     -5.498  0.5134E+00  0.2744E-01  0.1603E+02  0.1600E+02
     -5.440  0.4971E+01  0.2489E+01  0.1632E+02  0.1615E+02
     -5.382  0.1154E+02  0.1073E+02  0.1699E+02  0.1677E+02
     -5.324  0.2668E+02  0.2411E+02  0.1853E+02  0.1817E+02
     -5.266  0.2209E+02  0.2310E+02  0.1982E+02  0.1951E+02
     -5.208  0.1756E+02  0.1685E+02  0.2083E+02  0.2048E+02
     -5.150  0.2646E+02  0.2750E+02  0.2237E+02  0.2208E+02
     -5.092  0.9705E+01  0.1267E+02  0.2293E+02  0.2282E+02
     -5.034  0.8751E+01  0.6274E+01  0.2344E+02  0.2318E+02
     -4.976  0.5811E+01  0.1009E+02  0.2378E+02  0.2376E+02
     -4.918  0.3444E+01  0.3231E+01  0.2398E+02  0.2395E+02
     -4.860  0.3854E+00  0.8300E+00  0.2400E+02  0.2400E+02
     -4.802  0.0000E+00  0.0000E+00  0.2400E+02  0.2400E+02
     -4.744  0.0000E+00  0.0000E+00  0.2400E+02  0.2400E+02
     -4.686  0.5570E-03  0.4614E-07  0.2400E+02  0.2400E+02
     -4.628  0.3078E+01  0.2632E+01  0.2418E+02  0.2415E+02
     -4.570  0.4584E+01  0.5003E+01  0.2444E+02  0.2444E+02
     -4.512  0.3993E+01  0.2704E+01  0.2468E+02  0.2460E+02
     -4.454  0.7556E+01  0.8289E+01  0.2511E+02  0.2508E+02
     -4.396  0.1369E+02  0.1038E+02  0.2591E+02  0.2568E+02
     -4.338  0.1427E+02  0.1570E+02  0.2674E+02  0.2659E+02
     -4.280  0.1869E+02  0.1530E+02  0.2782E+02  0.2748E+02
     -4.222  0.1684E+02  0.2137E+02  0.2880E+02  0.2872E+02
     -4.164  0.4952E+01  0.5405E+01  0.2908E+02  0.2903E+02
     -4.106  0.1175E+02  0.7553E+01  0.2977E+02  0.2947E+02
     -4.048  0.1207E+02  0.1558E+02  0.3047E+02  0.3038E+02
     -3.990  0.1004E+02  0.7871E+01  0.3105E+02  0.3083E+02
     -3.932  0.1348E+02  0.1395E+02  0.3183E+02  0.3164E+02
     -3.874  0.1409E+01  0.3896E+01  0.3191E+02  0.3187E+02
     -3.816  0.2122E+02  0.1695E+02  0.3314E+02  0.3285E+02
     -3.758  0.7137E+01  0.1128E+02  0.3356E+02  0.3351E+02
     -3.700  0.1696E+02  0.1193E+02  0.3454E+02  0.3420E+02
     -3.642  0.1159E+02  0.1502E+02  0.3521E+02  0.3507E+02
     -3.584  0.9256E+01  0.8155E+01  0.3575E+02  0.3554E+02
     -3.526  0.4934E+01  0.7903E+01  0.3604E+02  0.3600E+02
     -3.468  0.7972E+01  0.4488E+01  0.3650E+02  0.3626E+02
     -3.410  0.5724E+00  0.4704E+01  0.3653E+02  0.3653E+02
     -3.352  0.5143E+00  0.4173E-03  0.3656E+02  0.3653E+02
     -3.294  0.1482E+02  0.1001E+02  0.3742E+02  0.3711E+02
     -3.236  0.5366E+01  0.8996E+01  0.3773E+02  0.3764E+02
     -3.178  0.8240E+01  0.5038E+01  0.3821E+02  0.3793E+02
     -3.120  0.2290E+02  0.2222E+02  0.3954E+02  0.3922E+02
     -3.062  0.9763E+01  0.1256E+02  0.4011E+02  0.3995E+02
     -3.004  0.1869E+02  0.1421E+02  0.4119E+02  0.4077E+02
     -2.946  0.2157E+02  0.2331E+02  0.4244E+02  0.4212E+02
     -2.888  0.2021E+02  0.2101E+02  0.4362E+02  0.4334E+02
     -2.830  0.1549E+02  0.1636E+02  0.4451E+02  0.4429E+02
     -2.772  0.1407E+02  0.1161E+02  0.4533E+02  0.4496E+02
     -2.714  0.1962E+02  0.1652E+02  0.4647E+02  0.4592E+02
     -2.656  0.1726E+02  0.2339E+02  0.4747E+02  0.4728E+02
     -2.598  0.1989E+02  0.1725E+02  0.4862E+02  0.4828E+02
     -2.540  0.1158E+02  0.1324E+02  0.4930E+02  0.4905E+02
     -2.482  0.1126E+02  0.1267E+02  0.4995E+02  0.4978E+02
     -2.424  0.5241E+01  0.6163E+01  0.5025E+02  0.5014E+02
     -2.366  0.5989E+01  0.5134E+01  0.5060E+02  0.5044E+02
     -2.308  0.7938E+01  0.7386E+01  0.5106E+02  0.5087E+02
     -2.250  0.1209E+02  0.1310E+02  0.5176E+02  0.5163E+02
     -2.192  0.2498E+02  0.2205E+02  0.5321E+02  0.5291E+02
     -2.134  0.1341E+02  0.1355E+02  0.5399E+02  0.5369E+02
     -2.076  0.1293E+02  0.1293E+02  0.5474E+02  0.5444E+02
     -2.018  0.1658E+02  0.1838E+02  0.5570E+02  0.5551E+02
     -1.960  0.2347E+02  0.2097E+02  0.5706E+02  0.5672E+02
     -1.902  0.1355E+02  0.1384E+02  0.5785E+02  0.5753E+02
     -1.844  0.9407E+01  0.1262E+02  0.5839E+02  0.5826E+02
     -1.786  0.1440E+02  0.1398E+02  0.5923E+02  0.5907E+02
     -1.728  0.1695E+02  0.1481E+02  0.6021E+02  0.5993E+02
     -1.670  0.1913E+02  0.1664E+02  0.6132E+02  0.6089E+02
     -1.612  0.1999E+02  0.2512E+02  0.6248E+02  0.6235E+02
     -1.554  0.1185E+02  0.1091E+02  0.6317E+02  0.6298E+02
     -1.496  0.1339E+02  0.1537E+02  0.6395E+02  0.6388E+02
     -1.438  0.1280E+02  0.9937E+01  0.6469E+02  0.6445E+02
     -1.380  0.1771E+02  0.1751E+02  0.6572E+02  0.6547E+02
     -1.322  0.2116E+02  0.1671E+02  0.6694E+02  0.6644E+02
     -1.264  0.1657E+02  0.2351E+02  0.6790E+02  0.6780E+02
     -1.206  0.1647E+02  0.1189E+02  0.6886E+02  0.6849E+02
     -1.148  0.2457E+02  0.2245E+02  0.7028E+02  0.6979E+02
     -1.090  0.1953E+02  0.2305E+02  0.7142E+02  0.7113E+02
     -1.032  0.6325E+01  0.9567E+01  0.7178E+02  0.7169E+02
     -0.974  0.2402E+02  0.1874E+02  0.7318E+02  0.7277E+02
     -0.916  0.2134E+02  0.2492E+02  0.7442E+02  0.7422E+02
     -0.858  0.1362E+02  0.1307E+02  0.7521E+02  0.7498E+02
     -0.800  0.2044E+02  0.1925E+02  0.7639E+02  0.7609E+02
     -0.742  0.1452E+02  0.9167E+01  0.7723E+02  0.7663E+02
     -0.684  0.2253E+02  0.2663E+02  0.7854E+02  0.7817E+02
     -0.626  0.1784E+02  0.2098E+02  0.7958E+02  0.7939E+02
     -0.568  0.8696E+01  0.1076E+02  0.8008E+02  0.8001E+02
     -0.510  0.8289E+01  0.4860E+01  0.8056E+02  0.8029E+02
     -0.452  0.1693E+02  0.1647E+02  0.8154E+02  0.8125E+02
     -0.394  0.1643E+02  0.1725E+02  0.8250E+02  0.8225E+02
     -0.336  0.2237E+02  0.1835E+02  0.8379E+02  0.8331E+02
     -0.278  0.1514E+02  0.1903E+02  0.8467E+02  0.8442E+02
     -0.220  0.1371E+02  0.1302E+02  0.8547E+02  0.8517E+02
     -0.162  0.1154E+02  0.1454E+02  0.8614E+02  0.8602E+02
     -0.104  0.1504E+02  0.1496E+02  0.8701E+02  0.8688E+02
     -0.046  0.1713E+02  0.1133E+02  0.8800E+02  0.8754E+02
      0.012  0.1798E+02  0.2162E+02  0.8905E+02  0.8880E+02
      0.070  0.1828E+02  0.2213E+02  0.9011E+02  0.9008E+02
      0.128  0.1950E+02  0.1546E+02  0.9124E+02  0.9098E+02
      0.186  0.1772E+02  0.1551E+02  0.9227E+02  0.9188E+02
      0.244  0.2232E+02  0.2243E+02  0.9356E+02  0.9318E+02
      0.302  0.1721E+02  0.1848E+02  0.9456E+02  0.9425E+02
      0.360  0.1496E+02  0.1356E+02  0.9543E+02  0.9504E+02
      0.418  0.2087E+02  0.2162E+02  0.9664E+02  0.9629E+02
      0.477  0.1316E+02  0.1637E+02  0.9740E+02  0.9724E+02
      0.535  0.1626E+02  0.1495E+02  0.9834E+02  0.9811E+02
      0.593  0.1316E+02  0.1381E+02  0.9911E+02  0.9891E+02
      0.651  0.2036E+02  0.1747E+02  0.1003E+03  0.9992E+02
      0.709  0.1973E+02  0.2145E+02  0.1014E+03  0.1012E+03
      0.767  0.1900E+02  0.1940E+02  0.1025E+03  0.1023E+03
      0.825  0.2173E+02  0.2098E+02  0.1038E+03  0.1035E+03
      0.883  0.1943E+02  0.2016E+02  0.1049E+03  0.1047E+03
      0.941  0.2176E+02  0.1802E+02  0.1062E+03  0.1057E+03
      0.999  0.2419E+02  0.2765E+02  0.1076E+03  0.1073E+03
      1.057  0.1656E+02  0.1575E+02  0.1085E+03  0.1082E+03
      1.115  0.1641E+02  0.1694E+02  0.1095E+03  0.1092E+03
      1.173  0.1779E+02  0.1991E+02  0.1105E+03  0.1104E+03
      1.231  0.2201E+02  0.1939E+02  0.1118E+03  0.1115E+03
      1.289  0.2363E+02  0.2537E+02  0.1132E+03  0.1130E+03
      1.347  0.2181E+02  0.1919E+02  0.1144E+03  0.1141E+03
      1.405  0.2107E+02  0.2262E+02  0.1157E+03  0.1154E+03
      1.463  0.2147E+02  0.1805E+02  0.1169E+03  0.1164E+03
      1.521  0.2458E+02  0.2530E+02  0.1183E+03  0.1179E+03
      1.579  0.1910E+02  0.2517E+02  0.1194E+03  0.1194E+03
      1.637  0.1209E+02  0.9963E+01  0.1201E+03  0.1200E+03
      1.695  0.2006E+02  0.1774E+02  0.1213E+03  0.1210E+03
      1.753  0.2345E+02  0.2509E+02  0.1227E+03  0.1224E+03
      1.811  0.1517E+02  0.1324E+02  0.1236E+03  0.1232E+03
      1.869  0.2006E+02  0.2266E+02  0.1247E+03  0.1245E+03
      1.927  0.1476E+02  0.1206E+02  0.1256E+03  0.1252E+03
      1.985  0.2212E+02  0.2227E+02  0.1269E+03  0.1265E+03
      2.043  0.2400E+02  0.2544E+02  0.1282E+03  0.1280E+03
      2.101  0.1544E+02  0.1464E+02  0.1291E+03  0.1288E+03
      2.159  0.2663E+02  0.2440E+02  0.1307E+03  0.1303E+03
      2.217  0.2614E+02  0.2614E+02  0.1322E+03  0.1318E+03
      2.275  0.2171E+02  0.2284E+02  0.1335E+03  0.1331E+03
      2.333  0.2037E+02  0.1996E+02  0.1346E+03  0.1343E+03
      2.391  0.3034E+02  0.3057E+02  0.1364E+03  0.1360E+03
      2.449  0.1849E+02  0.2153E+02  0.1375E+03  0.1373E+03
      2.507  0.2772E+02  0.2303E+02  0.1391E+03  0.1386E+03
      2.565  0.2141E+02  0.2667E+02  0.1403E+03  0.1402E+03
      2.623  0.2573E+02  0.1816E+02  0.1418E+03  0.1412E+03
      2.681  0.2305E+02  0.2871E+02  0.1432E+03  0.1429E+03
      2.739  0.2661E+02  0.2746E+02  0.1447E+03  0.1445E+03
      2.797  0.2656E+02  0.2495E+02  0.1462E+03  0.1459E+03
      2.855  0.2454E+02  0.2559E+02  0.1477E+03  0.1474E+03
      2.913  0.2029E+02  0.1733E+02  0.1488E+03  0.1484E+03
      2.971  0.2734E+02  0.2793E+02  0.1504E+03  0.1500E+03
      3.029  0.2437E+02  0.2320E+02  0.1518E+03  0.1514E+03
      3.087  0.2527E+02  0.2757E+02  0.1533E+03  0.1530E+03
      3.145  0.2059E+02  0.2142E+02  0.1545E+03  0.1542E+03
      3.203  0.2135E+02  0.2220E+02  0.1557E+03  0.1555E+03
      3.261  0.2430E+02  0.2266E+02  0.1572E+03  0.1568E+03
      3.319  0.2141E+02  0.2177E+02  0.1584E+03  0.1581E+03
      3.377  0.2761E+02  0.2439E+02  0.1600E+03  0.1595E+03
      3.435  0.2256E+02  0.2297E+02  0.1613E+03  0.1608E+03
      3.493  0.2148E+02  0.2387E+02  0.1625E+03  0.1622E+03
      3.551  0.3273E+02  0.2897E+02  0.1644E+03  0.1639E+03
      3.609  0.1274E+02  0.1701E+02  0.1652E+03  0.1649E+03
      3.667  0.2174E+02  0.2209E+02  0.1664E+03  0.1662E+03
      3.725  0.2483E+02  0.2503E+02  0.1679E+03  0.1676E+03
      3.783  0.2867E+02  0.2595E+02  0.1696E+03  0.1691E+03
      3.841  0.2450E+02  0.2262E+02  0.1710E+03  0.1704E+03
      3.899  0.2257E+02  0.2520E+02  0.1723E+03  0.1719E+03
      3.957  0.2474E+02  0.2361E+02  0.1737E+03  0.1733E+03
      4.015  0.1641E+02  0.1919E+02  0.1747E+03  0.1744E+03
      4.073  0.2068E+02  0.2034E+02  0.1759E+03  0.1756E+03
      4.131  0.2586E+02  0.2431E+02  0.1774E+03  0.1770E+03
      4.189  0.1927E+02  0.2081E+02  0.1785E+03  0.1782E+03
      4.247  0.2729E+02  0.2654E+02  0.1801E+03  0.1797E+03
      4.305  0.2212E+02  0.1750E+02  0.1814E+03  0.1807E+03
      4.363  0.2508E+02  0.2758E+02  0.1828E+03  0.1823E+03
      4.421  0.2132E+02  0.2438E+02  0.1840E+03  0.1837E+03
      4.479  0.2265E+02  0.2153E+02  0.1854E+03  0.1850E+03
      4.537  0.1767E+02  0.1765E+02  0.1864E+03  0.1860E+03
      4.595  0.2221E+02  0.2313E+02  0.1877E+03  0.1874E+03
      4.653  0.1783E+02  0.1963E+02  0.1887E+03  0.1885E+03
      4.711  0.3103E+02  0.2659E+02  0.1905E+03  0.1900E+03
      4.769  0.2108E+02  0.2115E+02  0.1917E+03  0.1913E+03
      4.827  0.2278E+02  0.2629E+02  0.1931E+03  0.1928E+03
      4.885  0.1837E+02  0.1553E+02  0.1941E+03  0.1937E+03
      4.943  0.2881E+02  0.2806E+02  0.1958E+03  0.1953E+03
      5.001  0.2317E+02  0.2369E+02  0.1971E+03  0.1967E+03
      5.059  0.3119E+02  0.3391E+02  0.1989E+03  0.1987E+03
      5.117  0.1977E+02  0.1872E+02  0.2001E+03  0.1997E+03
      5.175  0.2236E+02  0.2034E+02  0.2014E+03  0.2009E+03
      5.233  0.2604E+02  0.2648E+02  0.2029E+03  0.2025E+03
      5.291  0.2215E+02  0.2234E+02  0.2042E+03  0.2038E+03
      5.349  0.2595E+02  0.2484E+02  0.2057E+03  0.2052E+03
      5.407  0.3242E+02  0.3317E+02  0.2076E+03  0.2071E+03
      5.465  0.2174E+02  0.2128E+02  0.2088E+03  0.2084E+03
      5.523  0.2737E+02  0.2778E+02  0.2104E+03  0.2100E+03
      5.581  0.2488E+02  0.2097E+02  0.2119E+03  0.2112E+03
      5.639  0.2472E+02  0.2874E+02  0.2133E+03  0.2129E+03
      5.697  0.2604E+02  0.2672E+02  0.2148E+03  0.2144E+03
      5.755  0.2297E+02  0.1901E+02  0.2161E+03  0.2155E+03
      5.813  0.2543E+02  0.2547E+02  0.2176E+03  0.2170E+03
      5.871  0.2088E+02  0.2201E+02  0.2188E+03  0.2183E+03
      5.929  0.2488E+02  0.2746E+02  0.2203E+03  0.2199E+03
      5.987  0.2879E+02  0.2720E+02  0.2219E+03  0.2214E+03
      6.045  0.3014E+02  0.3131E+02  0.2237E+03  0.2232E+03
      6.103  0.2738E+02  0.2451E+02  0.2253E+03  0.2247E+03
      6.161  0.2326E+02  0.2379E+02  0.2266E+03  0.2260E+03
      6.219  0.2906E+02  0.2850E+02  0.2283E+03  0.2277E+03
      6.277  0.2582E+02  0.2548E+02  0.2298E+03  0.2292E+03
      6.335  0.3097E+02  0.2993E+02  0.2316E+03  0.2309E+03
      6.393  0.3287E+02  0.3734E+02  0.2335E+03  0.2331E+03
      6.451  0.2712E+02  0.2068E+02  0.2351E+03  0.2343E+03
      6.509  0.2487E+02  0.3370E+02  0.2365E+03  0.2362E+03
      6.567  0.2280E+02  0.1998E+02  0.2378E+03  0.2374E+03
      6.625  0.3699E+02  0.3010E+02  0.2400E+03  0.2391E+03
      6.683  0.2587E+02  0.3441E+02  0.2415E+03  0.2411E+03
      6.741  0.2104E+02  0.1899E+02  0.2427E+03  0.2422E+03
      6.799  0.3006E+02  0.2856E+02  0.2445E+03  0.2439E+03
      6.857  0.2353E+02  0.2312E+02  0.2458E+03  0.2452E+03
      6.915  0.2953E+02  0.2899E+02  0.2475E+03  0.2469E+03
      6.973  0.2006E+02  0.2140E+02  0.2487E+03  0.2482E+03
      7.031  0.2886E+02  0.2899E+02  0.2504E+03  0.2498E+03
      7.089  0.3191E+02  0.2463E+02  0.2522E+03  0.2513E+03
      7.147  0.2379E+02  0.3220E+02  0.2536E+03  0.2531E+03
      7.205  0.2823E+02  0.2793E+02  0.2552E+03  0.2548E+03
      7.263  0.2460E+02  0.2511E+02  0.2567E+03  0.2562E+03
      7.321  0.3331E+02  0.2870E+02  0.2586E+03  0.2579E+03
      7.379  0.2167E+02  0.2760E+02  0.2599E+03  0.2595E+03
      7.437  0.3145E+02  0.3103E+02  0.2617E+03  0.2613E+03
      7.495  0.2825E+02  0.2758E+02  0.2633E+03  0.2629E+03
      7.553  0.2593E+02  0.2671E+02  0.2648E+03  0.2644E+03
      7.611  0.2174E+02  0.2245E+02  0.2661E+03  0.2657E+03
      7.669  0.2623E+02  0.2446E+02  0.2676E+03  0.2672E+03
      7.727  0.3037E+02  0.2906E+02  0.2694E+03  0.2688E+03
      7.785  0.2068E+02  0.2758E+02  0.2706E+03  0.2704E+03
      7.843  0.3381E+02  0.2539E+02  0.2725E+03  0.2719E+03
      7.902  0.2278E+02  0.3157E+02  0.2739E+03  0.2737E+03
      7.960  0.2763E+02  0.1893E+02  0.2755E+03  0.2748E+03
      8.018  0.2671E+02  0.2919E+02  0.2770E+03  0.2765E+03
      8.076  0.2532E+02  0.2517E+02  0.2785E+03  0.2780E+03
      8.134  0.3020E+02  0.2794E+02  0.2802E+03  0.2796E+03
      8.192  0.3134E+02  0.3572E+02  0.2820E+03  0.2817E+03
      8.250  0.2515E+02  0.2472E+02  0.2835E+03  0.2831E+03
      8.308  0.1880E+02  0.2214E+02  0.2846E+03  0.2844E+03
      8.366  0.2961E+02  0.2574E+02  0.2863E+03  0.2859E+03
      8.424  0.9314E+01  0.1572E+02  0.2869E+03  0.2868E+03
      8.482  0.9814E+01  0.8671E+01  0.2874E+03  0.2873E+03
      8.540  0.8471E+01  0.9579E+01  0.2879E+03  0.2879E+03
      8.598  0.1489E+01  0.1507E+01  0.2880E+03  0.2880E+03
      8.656  0.5551E-02  0.7651E+00  0.2880E+03  0.2880E+03
      8.714  0.0000E+00  0.0000E+00  0.2880E+03  0.2880E+03
      8.772  0.0000E+00  0.0000E+00  0.2880E+03  0.2880E+03
      8.830  0.0000E+00  0.0000E+00  0.2880E+03  0.2880E+03
      8.888  0.0000E+00  0.0000E+00  0.2880E+03  0.2880E+03
      8.946  0.0000E+00  0.0000E+00  0.2880E+03  0.2880E+03
      9.004  0.0000E+00  0.0000E+00  0.2880E+03  0.2880E+03
      9.062  0.0000E+00  0.0000E+00  0.2880E+03  0.2880E+03
      9.120  0.0000E+00  0.0000E+00  0.2880E+03  0.2880E+03
      9.178  0.0000E+00  0.0000E+00  0.2880E+03  0.2880E+03
      9.236  0.0000E+00  0.0000E+00  0.2880E+03  0.2880E+03
      9.294  0.0000E+00  0.0000E+00  0.2880E+03  0.2880E+03
      9.352  0.0000E+00  0.0000E+00  0.2880E+03  0.2880E+03
      9.410  0.0000E+00  0.0000E+00  0.2880E+03  0.2880E+03
