<?xml version="1.0" encoding="ISO-8859-1"?>
<modeling>
 <generator>
  <i name="program" type="string">vasp </i>
  <i name="version" type="string">6.4.3  </i>
  <i name="subversion" type="string">19Mar24 (build Oct 22 2024 11:23:12) complex                          parallel </i>
  <i name="platform" type="string">LinuxIFC </i>
  <i name="date" type="string">2025 06 04 </i>
  <i name="time" type="string">13:47:56 </i>
 </generator>
 <incar>
  <i type="string" name="SYSTEM">Si and Ge interface calculation</i>
  <i type="int" name="ISTART">     0</i>
  <i type="logical" name="ADDGRID"> T  </i>
  <i type="int" name="ISPIN">     2</i>
  <i name="AMIX">      0.60000000</i>
  <i type="int" name="ICHARG">     2</i>
  <i type="int" name="NELM">   100</i>
  <i name="EDIFF">      0.00000010</i>
  <i name="ENCUT">    700.00000000</i>
  <i name="ENAUG">    900.00000000</i>
  <i type="int" name="NBANDS">   231</i>
  <i name="NUPDOWN">      1.00000000</i>
  <i name="NELECT">    384.00000000</i>
  <i type="string" name="LREAL">AUTO</i>
  <i type="int" name="ISMEAR">     0</i>
  <i name="SIGMA">      0.01000000</i>
  <i type="int" name="LMAXMIX">     6</i>
  <i type="logical" name="LWAVE"> F  </i>
  <i type="logical" name="LVTOT"> F  </i>
  <i type="logical" name="LVHAR"> T  </i>
  <i type="logical" name="LASPH"> T  </i>
  <i type="logical" name="LMIXTAU"> T  </i>
 </incar>
 <primitive_cell>
  <structure name="primitive_cell" >
   <crystal>
    <varray name="basis" >
     <v>      17.89153480       0.00000000       0.00000000 </v>
     <v>     -16.10238075       7.79873943       0.00000000 </v>
     <v>       0.00000028      -0.00000006      13.82883549 </v>
    </varray>
    <i name="volume">   1929.55702480 </i>
    <varray name="rec_basis" >
     <v>       0.05589235       0.11540326      -0.00000000 </v>
     <v>       0.00000000       0.12822585       0.00000000 </v>
     <v>       0.00000000       0.00000000       0.07231267 </v>
    </varray>
   </crystal>
   <varray name="positions" >
    <v>       0.81228745       0.18771255       0.46930525 </v>
    <v>       0.02281332       0.97718668       0.00000001 </v>
    <v>       0.18070815       0.81929183       0.09386106 </v>
    <v>       0.33860299       0.66139698       0.18772212 </v>
    <v>       0.49649781       0.50350219       0.28158316 </v>
    <v>       0.65439260       0.34560740       0.37544423 </v>
    <v>       0.10176122       0.89823884       0.49277046 </v>
    <v>       0.31228706       0.68771291       0.02346529 </v>
    <v>       0.47018188       0.52981806       0.11732632 </v>
    <v>       0.62807673       0.37192327       0.21118741 </v>
    <v>       0.78597158       0.21402840       0.30504847 </v>
    <v>       0.94386643       0.05613355       0.39890954 </v>
    <v>       0.31228733       0.68771261       0.46930522 </v>
    <v>       0.52281326       0.47718665       0.00000000 </v>
    <v>       0.68070811       0.31929183       0.09386105 </v>
    <v>       0.83860296       0.16139701       0.18772209 </v>
    <v>       0.99649781       0.00350215       0.28158313 </v>
    <v>       0.15439260       0.84560740       0.37544423 </v>
    <v>       0.65439266       0.84560734       0.37544423 </v>
    <v>       0.81228709       0.18771291       0.02346546 </v>
    <v>       0.97018182       0.02981813       0.11732645 </v>
    <v>       0.12807667       0.87192327       0.21118759 </v>
    <v>       0.28597152       0.71402836       0.30504861 </v>
    <v>       0.44386637       0.55613363       0.39890966 </v>
    <v>       0.12807691       0.37192324       0.21118751 </v>
    <v>       0.52281326       0.97718668       0.00000001 </v>
    <v>       0.68070811       0.81929189       0.09386105 </v>
    <v>       0.83860296       0.66139704       0.18772209 </v>
    <v>       0.99649775       0.50350225       0.28158313 </v>
    <v>       0.18573475       0.73561359       0.49999994 </v>
    <v>       0.49649784       0.00350219       0.28158313 </v>
    <v>       0.81228727       0.68771285       0.02346543 </v>
    <v>       0.97018212       0.52981806       0.11732648 </v>
    <v>       0.31228745       0.18771249       0.46930528 </v>
    <v>       0.84362942       0.07771873       0.59386104 </v>
    <v>       0.00152421       0.91982394       0.68772209 </v>
    <v>       0.81228751       0.68771249       0.46930525 </v>
    <v>       0.02281339       0.47718665       0.00000001 </v>
    <v>       0.18070820       0.31929183       0.09386104 </v>
    <v>       0.33860305       0.16139698       0.18772212 </v>
    <v>       0.60176146       0.89823872       0.49277064 </v>
    <v>       0.65941906       0.26192909       0.78158313 </v>
    <v>       0.94386637       0.55613351       0.39890966 </v>
    <v>       0.31228706       0.18771288       0.02346545 </v>
    <v>       0.47018188       0.02981809       0.11732648 </v>
    <v>       0.63310319       0.28824502       0.61732644 </v>
    <v>       0.78597152       0.71402842       0.30504861 </v>
    <v>       0.10176122       0.39823878       0.49277067 </v>
    <v>       0.97520858       0.44613951       0.96930522 </v>
    <v>       0.18573467       0.23561359       0.49999994 </v>
    <v>       0.34362948       0.07771873       0.59386104 </v>
    <v>       0.50152427       0.91982394       0.68772209 </v>
    <v>       0.65941900       0.76192909       0.78158313 </v>
    <v>       0.81731385       0.60403425       0.87544423 </v>
    <v>       0.26468235       0.15666580       0.99277061 </v>
    <v>       0.47520840       0.94613987       0.52346528 </v>
    <v>       0.63310319       0.78824508       0.61732626 </v>
    <v>       0.79099798       0.63035017       0.71118736 </v>
    <v>       0.94889283       0.47245532       0.80504847 </v>
    <v>       0.10678756       0.31456047       0.89890951 </v>
    <v>       0.47520846       0.94613951       0.96930522 </v>
    <v>       0.63310319       0.28824502       0.61732644 </v>
    <v>       0.84362942       0.57771879       0.59386092 </v>
    <v>       0.00152421       0.41982392       0.68772209 </v>
    <v>       0.15941894       0.26192909       0.78158313 </v>
    <v>       0.31731373       0.10403419       0.87544411 </v>
    <v>       0.76468235       0.65666568       0.99277073 </v>
    <v>       0.97520840       0.44613990       0.52346540 </v>
    <v>       0.13310313       0.28824505       0.61732644 </v>
    <v>       0.29099804       0.13035023       0.71118742 </v>
    <v>       0.44889277       0.97245538       0.80504859 </v>
    <v>       0.60678762       0.81456047       0.89890963 </v>
    <v>       0.97520864       0.94613940       0.96930510 </v>
    <v>       0.34362951       0.57771873       0.59386092 </v>
    <v>       0.18573475       0.73561359       0.49999994 </v>
    <v>       0.50152433       0.41982388       0.68772209 </v>
    <v>       0.65439266       0.84560734       0.37544423 </v>
    <v>       0.81731391       0.10403419       0.87544423 </v>
    <v>       0.26468235       0.65666562       0.99277073 </v>
    <v>       0.47520840       0.44613984       0.52346540 </v>
    <v>       0.62807673       0.87192327       0.21118756 </v>
    <v>       0.68573463       0.23561359       0.49999994 </v>
    <v>       0.94889277       0.97245538       0.80504852 </v>
    <v>       0.10678756       0.81456047       0.89890963 </v>
    <v>       0.47520858       0.44613946       0.96930510 </v>
    <v>       0.79099798       0.13035011       0.71118748 </v>
    <v>       0.28597176       0.21402839       0.30504861 </v>
    <v>       0.44386673       0.05613352       0.39890963 </v>
    <v>       0.97520870       0.94613981       0.52346540 </v>
    <v>       0.31731373       0.60403430       0.87544411 </v>
    <v>       0.76468259       0.15666556       0.99277073 </v>
    <v>       0.15941894       0.76192921       0.78158313 </v>
    <v>       0.10176122       0.39823878       0.49277067 </v>
    <v>       0.29099828       0.63035011       0.71118742 </v>
    <v>       0.44889301       0.47245532       0.80504852 </v>
    <v>       0.60678786       0.31456041       0.89890963 </v>
   </varray>
  </structure>
  <varray name="primitive_index" >
   <v type="int" >        1 </v>
   <v type="int" >        2 </v>
   <v type="int" >        3 </v>
   <v type="int" >        4 </v>
   <v type="int" >        5 </v>
   <v type="int" >        6 </v>
   <v type="int" >        7 </v>
   <v type="int" >        8 </v>
   <v type="int" >        9 </v>
   <v type="int" >       10 </v>
   <v type="int" >       11 </v>
   <v type="int" >       12 </v>
   <v type="int" >       13 </v>
   <v type="int" >       14 </v>
   <v type="int" >       15 </v>
   <v type="int" >       16 </v>
   <v type="int" >       17 </v>
   <v type="int" >       18 </v>
   <v type="int" >       19 </v>
   <v type="int" >       20 </v>
   <v type="int" >       21 </v>
   <v type="int" >       22 </v>
   <v type="int" >       23 </v>
   <v type="int" >       24 </v>
   <v type="int" >       25 </v>
   <v type="int" >       26 </v>
   <v type="int" >       27 </v>
   <v type="int" >       28 </v>
   <v type="int" >       29 </v>
   <v type="int" >       30 </v>
   <v type="int" >       31 </v>
   <v type="int" >       32 </v>
   <v type="int" >       33 </v>
   <v type="int" >       34 </v>
   <v type="int" >       35 </v>
   <v type="int" >       36 </v>
   <v type="int" >       37 </v>
   <v type="int" >       38 </v>
   <v type="int" >       39 </v>
   <v type="int" >       40 </v>
   <v type="int" >       41 </v>
   <v type="int" >       42 </v>
   <v type="int" >       43 </v>
   <v type="int" >       44 </v>
   <v type="int" >       45 </v>
   <v type="int" >       46 </v>
   <v type="int" >       47 </v>
   <v type="int" >       48 </v>
   <v type="int" >       49 </v>
   <v type="int" >       50 </v>
   <v type="int" >       51 </v>
   <v type="int" >       52 </v>
   <v type="int" >       53 </v>
   <v type="int" >       54 </v>
   <v type="int" >       55 </v>
   <v type="int" >       56 </v>
   <v type="int" >       57 </v>
   <v type="int" >       58 </v>
   <v type="int" >       59 </v>
   <v type="int" >       60 </v>
   <v type="int" >       61 </v>
   <v type="int" >       62 </v>
   <v type="int" >       63 </v>
   <v type="int" >       64 </v>
   <v type="int" >       65 </v>
   <v type="int" >       66 </v>
   <v type="int" >       67 </v>
   <v type="int" >       68 </v>
   <v type="int" >       69 </v>
   <v type="int" >       70 </v>
   <v type="int" >       71 </v>
   <v type="int" >       72 </v>
   <v type="int" >       73 </v>
   <v type="int" >       74 </v>
   <v type="int" >       75 </v>
   <v type="int" >       76 </v>
   <v type="int" >       77 </v>
   <v type="int" >       78 </v>
   <v type="int" >       79 </v>
   <v type="int" >       80 </v>
   <v type="int" >       81 </v>
   <v type="int" >       82 </v>
   <v type="int" >       83 </v>
   <v type="int" >       84 </v>
   <v type="int" >       85 </v>
   <v type="int" >       86 </v>
   <v type="int" >       87 </v>
   <v type="int" >       88 </v>
   <v type="int" >       89 </v>
   <v type="int" >       90 </v>
   <v type="int" >       91 </v>
   <v type="int" >       92 </v>
   <v type="int" >       93 </v>
   <v type="int" >       94 </v>
   <v type="int" >       95 </v>
   <v type="int" >       96 </v>
  </varray>
 </primitive_cell>
 <kpoints>
  <generation param="Gamma">
   <v type="int" name="divisions">       4        4        2 </v>
   <v name="usershift">      0.00000000       0.00000000       0.00000000 </v>
   <v name="genvec1">      0.25000000      -0.00000000       0.00000000 </v>
   <v name="genvec2">      0.00000000       0.25000000       0.00000000 </v>
   <v name="genvec3">      0.00000000       0.00000000       0.50000000 </v>
   <v name="shift">      0.00000000       0.00000000       0.00000000 </v>
  </generation>
  <varray name="kpointlist" >
   <v>       0.00000000       0.00000000       0.00000000 </v>
   <v>       0.25000000       0.00000000      -0.00000000 </v>
   <v>       0.00000000       0.25000000       0.00000000 </v>
   <v>       0.50000000       0.00000000      -0.00000000 </v>
   <v>       0.00000000       0.50000000       0.00000000 </v>
   <v>       0.25000000       0.25000000      -0.00000000 </v>
   <v>       0.50000000       0.25000000      -0.00000000 </v>
   <v>       0.25000000       0.50000000       0.00000000 </v>
   <v>      -0.25000000       0.25000000      -0.00000000 </v>
   <v>       0.50000000       0.50000000      -0.00000000 </v>
   <v>       0.00000000       0.00000000       0.50000000 </v>
   <v>       0.25000000       0.00000000       0.50000000 </v>
   <v>       0.00000000       0.25000000       0.50000000 </v>
   <v>       0.50000000       0.00000000       0.50000000 </v>
   <v>       0.00000000       0.50000000       0.50000000 </v>
   <v>       0.25000000       0.25000000       0.50000000 </v>
   <v>       0.50000000       0.25000000       0.50000000 </v>
   <v>       0.25000000       0.50000000       0.50000000 </v>
   <v>      -0.25000000       0.25000000       0.50000000 </v>
   <v>       0.50000000       0.50000000       0.50000000 </v>
  </varray>
  <varray name="weights" >
   <v>       0.03125000 </v>
   <v>       0.06250000 </v>
   <v>       0.06250000 </v>
   <v>       0.03125000 </v>
   <v>       0.03125000 </v>
   <v>       0.06250000 </v>
   <v>       0.06250000 </v>
   <v>       0.06250000 </v>
   <v>       0.06250000 </v>
   <v>       0.03125000 </v>
   <v>       0.03125000 </v>
   <v>       0.06250000 </v>
   <v>       0.06250000 </v>
   <v>       0.03125000 </v>
   <v>       0.03125000 </v>
   <v>       0.06250000 </v>
   <v>       0.06250000 </v>
   <v>       0.06250000 </v>
   <v>       0.06250000 </v>
   <v>       0.03125000 </v>
  </varray>
 </kpoints>
 <parameters>
  <separator name="general" >
   <i type="string" name="SYSTEM">Si and Ge interface calculation</i>
   <i type="logical" name="LCOMPAT"> F  </i>
  </separator>
  <separator name="electronic" >
   <i type="string" name="PREC">normal</i>
   <i name="ENMAX">    700.00000000</i>
   <i name="ENAUG">    900.00000000</i>
   <i name="EDIFF">      0.00000010</i>
   <i type="int" name="IALGO">    38</i>
   <i type="int" name="IWAVPR">    10</i>
   <i type="int" name="NBANDS">   232</i>
   <i type="int" name="NBANDSLOW">    -1</i>
   <i type="int" name="NBANDSHIGH">    -1</i>
   <i name="NELECT">    384.00000000</i>
   <i type="int" name="TURBO">     0</i>
   <i type="int" name="IRESTART">     0</i>
   <i type="int" name="NREBOOT">     0</i>
   <i type="int" name="NMIN">     0</i>
   <i name="EREF">      0.00000000</i>
   <separator name="electronic smearing" >
    <i type="int" name="ISMEAR">     0</i>
    <i name="SIGMA">      0.01000000</i>
    <i name="KSPACING">      0.50000000</i>
    <i type="logical" name="KGAMMA"> T  </i>
    <i type="logical" name="KBLOWUP"> T  </i>
   </separator>
   <separator name="electronic projectors" >
    <i type="logical" name="LREAL"> T  </i>
    <v name="ROPT">     -0.00050000</v>
    <i type="int" name="LMAXPAW">  -100</i>
    <i type="int" name="LMAXMIX">     6</i>
    <i type="logical" name="NLSPLINE"> F  </i>
   </separator>
   <separator name="electronic startup" >
    <i type="int" name="ISTART">     0</i>
    <i type="int" name="ICHARG">     2</i>
    <i type="int" name="INIWAV">     1</i>
   </separator>
   <separator name="electronic spin" >
    <i type="int" name="ISPIN">     2</i>
    <i type="logical" name="LNONCOLLINEAR"> F  </i>
    <v name="MAGMOM">      0.01041667      0.01041667      0.01041667      0.01041667      0.01041667      0.01041667      0.01041667      0.01041667      0.01041667      0.01041667      0.01041667      0.01041667      0.01041667      0.01041667      0.01041667      0.01041667      0.01041667      0.01041667      0.01041667      0.01041667
      0.01041667      0.01041667      0.01041667      0.01041667      0.01041667      0.01041667      0.01041667      0.01041667      0.01041667      0.01041667      0.01041667      0.01041667      0.01041667      0.01041667      0.01041667      0.01041667      0.01041667      0.01041667      0.01041667      0.01041667
      0.01041667      0.01041667      0.01041667      0.01041667      0.01041667      0.01041667      0.01041667      0.01041667      0.01041667      0.01041667      0.01041667      0.01041667      0.01041667      0.01041667      0.01041667      0.01041667      0.01041667      0.01041667      0.01041667      0.01041667
      0.01041667      0.01041667      0.01041667      0.01041667      0.01041667      0.01041667      0.01041667      0.01041667      0.01041667      0.01041667      0.01041667      0.01041667      0.01041667      0.01041667      0.01041667      0.01041667      0.01041667      0.01041667      0.01041667      0.01041667
      0.01041667      0.01041667      0.01041667      0.01041667      0.01041667      0.01041667      0.01041667      0.01041667      0.01041667      0.01041667      0.01041667      0.01041667      0.01041667      0.01041667      0.01041667      0.01041667</v>
    <i name="NUPDOWN">      1.00000000</i>
    <i type="logical" name="LSORBIT"> F  </i>
    <v name="SAXIS">      0.00000000      0.00000000      1.00000000</v>
    <i type="logical" name="LSPIRAL"> F  </i>
    <v name="QSPIRAL">      0.00000000      0.00000000      0.00000000</v>
    <i type="logical" name="LZEROZ"> F  </i>
   </separator>
   <separator name="electronic exchange-correlation" >
    <i type="logical" name="LASPH"> T  </i>
   </separator>
   <separator name="electronic convergence" >
    <i type="int" name="NELM">   100</i>
    <i type="int" name="NELMDL">    -5</i>
    <i type="int" name="NELMIN">     2</i>
    <i name="ENINI">    700.00000000</i>
    <separator name="electronic convergence detail" >
     <i type="logical" name="LDIAG"> T  </i>
     <i type="logical" name="LSUBROT"> F  </i>
     <i name="WEIMIN">      0.00000000</i>
     <i name="EBREAK">      0.00000000</i>
     <i name="DEPER">      0.30000000</i>
     <i type="int" name="NRMM">     4</i>
     <i name="TIME">      0.40000000</i>
    </separator>
   </separator>
   <separator name="electronic mixer" >
    <i name="AMIX">      0.60000000</i>
    <i name="BMIX">      1.00000000</i>
    <i name="AMIN">      0.10000000</i>
    <i name="AMIX_MAG">      2.40000000</i>
    <i name="BMIX_MAG">      1.00000000</i>
    <separator name="electronic mixer details" >
     <i type="int" name="IMIX">     4</i>
     <i type="logical" name="MIXFIRST"> F  </i>
     <i type="int" name="MAXMIX">   -45</i>
     <i name="WC">    100.00000000</i>
     <i type="int" name="INIMIX">     1</i>
     <i type="int" name="MIXPRE">     1</i>
     <i type="int" name="MREMOVE">     5</i>
    </separator>
   </separator>
   <separator name="electronic dipolcorrection" >
    <i type="logical" name="LDIPOL"> F  </i>
    <i type="logical" name="LMONO"> F  </i>
    <i type="int" name="IDIPOL">     0</i>
    <i name="EPSILON">      1.00000000</i>
    <v name="DIPOL">   -100.00000000   -100.00000000   -100.00000000</v>
    <i name="EFIELD">      0.00000000</i>
    <i type="logical" name="LVACPOTAV"> F  </i>
   </separator>
  </separator>
  <separator name="grids" >
   <i type="int" name="NGX">   120</i>
   <i type="int" name="NGY">   120</i>
   <i type="int" name="NGZ">    90</i>
   <i type="int" name="NGXF">   240</i>
   <i type="int" name="NGYF">   240</i>
   <i type="int" name="NGZF">   180</i>
   <i type="logical" name="ADDGRID"> T  </i>
  </separator>
  <separator name="ionic" >
   <i type="int" name="NSW">     0</i>
   <i type="int" name="IBRION">    -1</i>
   <i type="int" name="MDALGO">     0</i>
   <i type="int" name="ISIF">     2</i>
   <i name="PSTRESS">      0.00000000</i>
   <i name="EDIFFG">      0.00000100</i>
   <i type="int" name="NFREE">     0</i>
   <i name="POTIM">      0.50000000</i>
   <i name="SMASS">     -3.00000000</i>
   <i name="SCALEE">      1.00000000</i>
  </separator>
  <separator name="ionic md" >
   <i name="TEBEG">      0.00010000</i>
   <i name="TEEND">      0.00010000</i>
   <i type="int" name="NBLOCK">     1</i>
   <i type="int" name="KBLOCK">     1</i>
   <i type="int" name="NPACO">   256</i>
   <i name="APACO">     10.00000000</i>
  </separator>
  <separator name="symmetry" >
   <i type="int" name="ISYM">     2</i>
   <i name="SYMPREC">      0.00001000</i>
  </separator>
  <separator name="dos" >
   <i type="int" name="LORBIT">     0</i>
   <v name="RWIGS">     -1.00000000</v>
   <i type="int" name="NEDOS">   301</i>
   <i name="EMIN">     10.00000000</i>
   <i name="EMAX">    -10.00000000</i>
   <i name="EFERMI">      0.00000000</i>
  </separator>
  <separator name="writing" >
   <i type="int" name="NWRITE">     2</i>
   <i type="logical" name="LWAVE"> F  </i>
   <i type="logical" name="LDOWNSAMPLE"> F  </i>
   <i type="logical" name="LCHARG"> T  </i>
   <i type="logical" name="LPARD"> F  </i>
   <i type="logical" name="LVTOT"> F  </i>
   <i type="logical" name="LVHAR"> T  </i>
   <i type="logical" name="LELF"> F  </i>
   <i type="logical" name="LOPTICS"> F  </i>
   <v name="STM">      0.00000000      0.00000000      0.00000000      0.00000000      0.00000000      0.00000000      0.00000000</v>
  </separator>
  <separator name="performance" >
   <i type="int" name="NPAR">     4</i>
   <i type="int" name="NSIM">     4</i>
   <i type="int" name="NBLK">    -1</i>
   <i type="logical" name="LPLANE"> T  </i>
   <i type="logical" name="LSCALAPACK"> T  </i>
   <i type="logical" name="LSCAAWARE"> F  </i>
   <i type="logical" name="LSCALU"> F  </i>
   <i type="logical" name="LASYNC"> F  </i>
   <i type="logical" name="LORBITALREAL"> F  </i>
  </separator>
  <separator name="miscellaneous" >
   <i type="int" name="IDIOT">     3</i>
   <i type="int" name="PHON_NSTRUCT">    -1</i>
   <i type="logical" name="LMUSIC"> F  </i>
   <v name="POMASS">     72.61000000</v>
   <v name="DARWINR">      0.00000000</v>
   <v name="DARWINV">      1.00000000</v>
   <i type="logical" name="LCORR"> T  </i>
  </separator>
  <i type="logical" name="GGA_COMPAT"> T  </i>
  <i type="logical" name="LBERRY"> F  </i>
  <i type="int" name="ICORELEVEL">     0</i>
  <i type="logical" name="LDAU"> F  </i>
  <i type="int" name="I_CONSTRAINED_M">     0</i>
  <separator name="electronic exchange-correlation" >
   <i type="string" name="GGA    ">PE</i>
   <i type="string" name="XC_C">1</i>
   <i type="int" name="VOSKOWN">     0</i>
   <i type="logical" name="LHFCALC"> F  </i>
   <i type="string" name="PRECFOCK"></i>
   <i type="logical" name="LSYMGRAD"> F  </i>
   <i type="logical" name="LHFONE"> F  </i>
   <i type="logical" name="LRHFCALC"> F  </i>
   <i type="logical" name="LTHOMAS"> F  </i>
   <i type="logical" name="LMODELHF"> F  </i>
   <i type="logical" name="LFOCKACE"> F  </i>
   <i name="ENCUT4O">     -1.00000000</i>
   <i type="int" name="EXXOEP">     0</i>
   <i type="int" name="FOURORBIT">     0</i>
   <i name="AEXX">      0.00000000</i>
   <i name="HFALPHA">      0.00000000</i>
   <i name="MCALPHA">      0.00000000</i>
   <i name="ALDAX">      1.00000000</i>
   <i name="AGGAX">      1.00000000</i>
   <i name="AMGGAX">      1.00000000</i>
   <i name="ALDAC">      1.00000000</i>
   <i name="AGGAC">      1.00000000</i>
   <i name="AMGGAC">      1.00000000</i>
   <i type="int" name="NKREDX">     1</i>
   <i type="int" name="NKREDY">     1</i>
   <i type="int" name="NKREDZ">     1</i>
   <i type="logical" name="SHIFTRED"> F  </i>
   <i type="logical" name="ODDONLY"> F  </i>
   <i type="logical" name="EVENONLY"> F  </i>
   <i type="int" name="LMAXFOCK">     0</i>
   <i type="int" name="NMAXFOCKAE">     0</i>
   <i type="logical" name="LFOCKAEDFT"> F  </i>
   <i name="HFSCREEN">      0.00000000</i>
   <i name="HFSCREENC">      0.00000000</i>
   <i type="int" name="NBANDSGWLOW">     0</i>
  </separator>
  <separator name="vdW DFT" >
   <i type="logical" name="LUSE_VDW"> F  </i>
   <i type="int" name="IVDW_NL">    -1</i>
   <i type="logical" name="LSPIN_VDW"> F  </i>
   <i name="ZAB_VDW">     -0.84910000</i>
   <i name="GAMMA_VDW">      1.39626340</i>
   <i name="ALPHA_VDW">      0.00000000</i>
   <i name="PARAM1">      0.12340000</i>
   <i name="PARAM2">      1.00000000</i>
   <i name="BPARAM">      6.30000000</i>
   <i name="CPARAM">      0.00930000</i>
  </separator>
  <separator name="model GW" >
   <i type="int" name="MODEL_GW">     0</i>
   <i name="MODEL_EPS0">     12.05973140</i>
   <i name="MODEL_ALPHA">      1.00000000</i>
  </separator>
  <separator name="linear response parameters" >
   <i type="logical" name="LEPSILON"> F  </i>
   <i type="logical" name="LRPA"> F  </i>
   <i type="logical" name="LNABLA"> F  </i>
   <i type="logical" name="LVEL"> F  </i>
   <i name="CSHIFT">      0.10000000</i>
   <i name="OMEGAMAX">     -1.00000000</i>
   <i name="DEG_THRESHOLD">      0.00200000</i>
   <i name="RTIME">     -0.10000000</i>
   <i name="WPLASMAI">      0.00000000</i>
   <v name="DFIELD">      0.00000000      0.00000000      0.00000000</v>
   <v name="WPLASMA">      0.00000000      0.00000000      0.00000000      0.00000000      0.00000000      0.00000000      0.00000000      0.00000000      0.00000000</v>
  </separator>
  <separator name="orbital magnetization" >
   <i type="logical" name="NUCIND"> F  </i>
   <v name="MAGPOS">      0.00000000      0.00000000      0.00000000</v>
   <i type="logical" name="LNICSALL"> T  </i>
   <i type="logical" name="ORBITALMAG"> F  </i>
   <i type="logical" name="LMAGBLOCH"> F  </i>
   <i type="logical" name="LCHIMAG"> F  </i>
   <i type="logical" name="LGAUGE"> T  </i>
   <i type="int" name="MAGATOM">     0</i>
   <v name="MAGDIPOL">      0.00000000      0.00000000      0.00000000</v>
   <v name="AVECCONST">      0.00000000      0.00000000      0.00000000</v>
  </separator>
  <separator name="response functions" >
   <i type="logical" name="LALL_IN_ONE"> F  </i>
   <i type="int" name="IALL_IN_ONE">    -1</i>
   <i type="int" name="NBANDS_WAVE">    -1</i>
   <i type="logical" name="LFINITE_TEMPERATURE"> F  </i>
   <i type="logical" name="LADDER"> F  </i>
   <i type="logical" name="LRPAFORCE"> F  </i>
   <i type="logical" name="LFXC"> F  </i>
   <i type="logical" name="LHARTREE"> T  </i>
   <i type="int" name="IBSE">     0</i>
   <v type="int" name="KPOINT">    -1     0     0     0</v>
   <i type="logical" name="LTCTC"> F  </i>
   <i type="logical" name="LTCTE"> F  </i>
   <i type="logical" name="LTETE"> F  </i>
   <i type="logical" name="LTRIPLET"> F  </i>
   <i type="logical" name="LFXCEPS"> F  </i>
   <i type="logical" name="LFXHEG"> F  </i>
   <i type="int" name="NATURALO">     2</i>
   <i type="logical" name="LHOLEGF"> F  </i>
   <i type="logical" name="L2ORDER"> F  </i>
   <i type="logical" name="LDMP1"> F  </i>
   <i type="logical" name="LMP2LT"> F  </i>
   <i type="logical" name="LSMP2LT"> F  </i>
   <i type="logical" name="LGWLF"> F  </i>
   <i name="ENCUTGW">     -1.60000002</i>
   <i name="ENCUTGWSOFT">     -1.60000002</i>
   <i name="ENCUTLF">     -1.00000000</i>
   <i type="logical" name="ESF_SPLINES"> F  </i>
   <i name="ESF_CONV">      0.01000000</i>
   <i type="int" name="ESF_NINTER">    15</i>
   <i type="int" name="LMAXMP2">    -1</i>
   <i name="SCISSOR">      0.00000000</i>
   <i type="int" name="NOMEGA">     0</i>
   <i type="int" name="NOMEGAR">     0</i>
   <i type="int" name="NBANDSGW">    -1</i>
   <i type="int" name="NBANDSO">    -1</i>
   <i type="int" name="NBANDSV">    -1</i>
   <i type="int" name="NELMGW">     1</i>
   <i type="int" name="NELMHF">     1</i>
   <i type="int" name="DIM">     3</i>
   <i type="int" name="IESPILON">     4</i>
   <i type="int" name="ANTIRES">     0</i>
   <i name="OMEGAMAX">    -30.00000000</i>
   <i name="OMEGAMIN">    -30.00000000</i>
   <i name="OMEGATL">   -200.00000000</i>
   <i type="int" name="OMEGAGRID">     0</i>
   <i name="CSHIFT">     -0.10000000</i>
   <i type="logical" name="LSELFENERGY"> F  </i>
   <i type="logical" name="LSPECTRAL"> F  </i>
   <i type="logical" name="LSPECTRALGW"> F  </i>
   <i type="logical" name="LSINGLES"> F  </i>
   <i type="logical" name="LFERMIGW"> F  </i>
   <i type="logical" name="ODDONLYGW"> F  </i>
   <i type="logical" name="EVENONLYGW"> F  </i>
   <i type="int" name="NKREDLFX">     1</i>
   <i type="int" name="NKREDLFY">     1</i>
   <i type="int" name="NKREDLFZ">     1</i>
   <i type="int" name="MAXMEM">  2800</i>
   <i type="int" name="TELESCOPE">     0</i>
   <i type="int" name="NTAUPAR">    -1</i>
   <i type="int" name="NOMEGAPAR">    -1</i>
   <i name="DAMP_NEWTON">      0.80000001</i>
   <i name="LAMBDA">      1.00000000</i>
  </separator>
  <separator name="External order field" >
   <i name="OFIELD_KAPPA">      0.00000000</i>
   <v name="OFIELD_K">      0.00000000      0.00000000      0.00000000</v>
   <i name="OFIELD_Q6_NEAR">      0.00000000</i>
   <i name="OFIELD_Q6_FAR">      0.00000000</i>
   <i name="OFIELD_A">      0.00000000</i>
  </separator>
  <separator name="optional k-points parameters" >
   <i type="int" name="KPOINTS_OPT_MODE">     1</i>
   <i type="logical" name="LKPOINTS_OPT"> F  </i>
  </separator>
 </parameters>
 <atominfo>
  <atoms>      96 </atoms>
  <types>       1 </types>
  <array name="atoms" >
   <dimension dim="1">ion</dimension>
   <field type="string">element</field>
   <field type="int">atomtype</field>
   <set>
    <rc><c>Ge</c><c>   1</c></rc>
    <rc><c>Ge</c><c>   1</c></rc>
    <rc><c>Ge</c><c>   1</c></rc>
    <rc><c>Ge</c><c>   1</c></rc>
    <rc><c>Ge</c><c>   1</c></rc>
    <rc><c>Ge</c><c>   1</c></rc>
    <rc><c>Ge</c><c>   1</c></rc>
    <rc><c>Ge</c><c>   1</c></rc>
    <rc><c>Ge</c><c>   1</c></rc>
    <rc><c>Ge</c><c>   1</c></rc>
    <rc><c>Ge</c><c>   1</c></rc>
    <rc><c>Ge</c><c>   1</c></rc>
    <rc><c>Ge</c><c>   1</c></rc>
    <rc><c>Ge</c><c>   1</c></rc>
    <rc><c>Ge</c><c>   1</c></rc>
    <rc><c>Ge</c><c>   1</c></rc>
    <rc><c>Ge</c><c>   1</c></rc>
    <rc><c>Ge</c><c>   1</c></rc>
    <rc><c>Ge</c><c>   1</c></rc>
    <rc><c>Ge</c><c>   1</c></rc>
    <rc><c>Ge</c><c>   1</c></rc>
    <rc><c>Ge</c><c>   1</c></rc>
    <rc><c>Ge</c><c>   1</c></rc>
    <rc><c>Ge</c><c>   1</c></rc>
    <rc><c>Ge</c><c>   1</c></rc>
    <rc><c>Ge</c><c>   1</c></rc>
    <rc><c>Ge</c><c>   1</c></rc>
    <rc><c>Ge</c><c>   1</c></rc>
    <rc><c>Ge</c><c>   1</c></rc>
    <rc><c>Ge</c><c>   1</c></rc>
    <rc><c>Ge</c><c>   1</c></rc>
    <rc><c>Ge</c><c>   1</c></rc>
    <rc><c>Ge</c><c>   1</c></rc>
    <rc><c>Ge</c><c>   1</c></rc>
    <rc><c>Ge</c><c>   1</c></rc>
    <rc><c>Ge</c><c>   1</c></rc>
    <rc><c>Ge</c><c>   1</c></rc>
    <rc><c>Ge</c><c>   1</c></rc>
    <rc><c>Ge</c><c>   1</c></rc>
    <rc><c>Ge</c><c>   1</c></rc>
    <rc><c>Ge</c><c>   1</c></rc>
    <rc><c>Ge</c><c>   1</c></rc>
    <rc><c>Ge</c><c>   1</c></rc>
    <rc><c>Ge</c><c>   1</c></rc>
    <rc><c>Ge</c><c>   1</c></rc>
    <rc><c>Ge</c><c>   1</c></rc>
    <rc><c>Ge</c><c>   1</c></rc>
    <rc><c>Ge</c><c>   1</c></rc>
    <rc><c>Ge</c><c>   1</c></rc>
    <rc><c>Ge</c><c>   1</c></rc>
    <rc><c>Ge</c><c>   1</c></rc>
    <rc><c>Ge</c><c>   1</c></rc>
    <rc><c>Ge</c><c>   1</c></rc>
    <rc><c>Ge</c><c>   1</c></rc>
    <rc><c>Ge</c><c>   1</c></rc>
    <rc><c>Ge</c><c>   1</c></rc>
    <rc><c>Ge</c><c>   1</c></rc>
    <rc><c>Ge</c><c>   1</c></rc>
    <rc><c>Ge</c><c>   1</c></rc>
    <rc><c>Ge</c><c>   1</c></rc>
    <rc><c>Ge</c><c>   1</c></rc>
    <rc><c>Ge</c><c>   1</c></rc>
    <rc><c>Ge</c><c>   1</c></rc>
    <rc><c>Ge</c><c>   1</c></rc>
    <rc><c>Ge</c><c>   1</c></rc>
    <rc><c>Ge</c><c>   1</c></rc>
    <rc><c>Ge</c><c>   1</c></rc>
    <rc><c>Ge</c><c>   1</c></rc>
    <rc><c>Ge</c><c>   1</c></rc>
    <rc><c>Ge</c><c>   1</c></rc>
    <rc><c>Ge</c><c>   1</c></rc>
    <rc><c>Ge</c><c>   1</c></rc>
    <rc><c>Ge</c><c>   1</c></rc>
    <rc><c>Ge</c><c>   1</c></rc>
    <rc><c>Ge</c><c>   1</c></rc>
    <rc><c>Ge</c><c>   1</c></rc>
    <rc><c>Ge</c><c>   1</c></rc>
    <rc><c>Ge</c><c>   1</c></rc>
    <rc><c>Ge</c><c>   1</c></rc>
    <rc><c>Ge</c><c>   1</c></rc>
    <rc><c>Ge</c><c>   1</c></rc>
    <rc><c>Ge</c><c>   1</c></rc>
    <rc><c>Ge</c><c>   1</c></rc>
    <rc><c>Ge</c><c>   1</c></rc>
    <rc><c>Ge</c><c>   1</c></rc>
    <rc><c>Ge</c><c>   1</c></rc>
    <rc><c>Ge</c><c>   1</c></rc>
    <rc><c>Ge</c><c>   1</c></rc>
    <rc><c>Ge</c><c>   1</c></rc>
    <rc><c>Ge</c><c>   1</c></rc>
    <rc><c>Ge</c><c>   1</c></rc>
    <rc><c>Ge</c><c>   1</c></rc>
    <rc><c>Ge</c><c>   1</c></rc>
    <rc><c>Ge</c><c>   1</c></rc>
    <rc><c>Ge</c><c>   1</c></rc>
    <rc><c>Ge</c><c>   1</c></rc>
   </set>
  </array>
  <array name="atomtypes" >
   <dimension dim="1">type</dimension>
   <field type="int">atomspertype</field>
   <field type="string">element</field>
   <field>mass</field>
   <field>valence</field>
   <field type="string">pseudopotential</field>
   <set>
    <rc><c>  96</c><c>Ge</c><c>     72.61000000</c><c>      4.00000000</c><c>  PAW_PBE Ge 05Jan2001                  </c></rc>
   </set>
  </array>
 </atominfo>
 <structure name="initialpos" >
  <crystal>
   <varray name="basis" >
    <v>      17.89153480       0.00000000       0.00000000 </v>
    <v>     -16.10238075       7.79873943       0.00000000 </v>
    <v>       0.00000028      -0.00000006      13.82883549 </v>
   </varray>
   <i name="volume">   1929.55702480 </i>
   <varray name="rec_basis" >
    <v>       0.05589235       0.11540326      -0.00000000 </v>
    <v>       0.00000000       0.12822585       0.00000000 </v>
    <v>       0.00000000       0.00000000       0.07231267 </v>
   </varray>
  </crystal>
  <varray name="positions" >
   <v>       0.81228745       0.18771255       0.46930525 </v>
   <v>       0.02281332       0.97718668       0.00000001 </v>
   <v>       0.18070815       0.81929183       0.09386106 </v>
   <v>       0.33860299       0.66139698       0.18772212 </v>
   <v>       0.49649781       0.50350219       0.28158316 </v>
   <v>       0.65439260       0.34560740       0.37544423 </v>
   <v>       0.10176122       0.89823884       0.49277046 </v>
   <v>       0.31228706       0.68771291       0.02346529 </v>
   <v>       0.47018188       0.52981806       0.11732632 </v>
   <v>       0.62807673       0.37192327       0.21118741 </v>
   <v>       0.78597158       0.21402840       0.30504847 </v>
   <v>       0.94386643       0.05613355       0.39890954 </v>
   <v>       0.31228733       0.68771261       0.46930522 </v>
   <v>       0.52281326       0.47718665       0.00000000 </v>
   <v>       0.68070811       0.31929183       0.09386105 </v>
   <v>       0.83860296       0.16139701       0.18772209 </v>
   <v>       0.99649781       0.00350215       0.28158313 </v>
   <v>       0.15439260       0.84560740       0.37544423 </v>
   <v>       0.65439266       0.84560734       0.37544423 </v>
   <v>       0.81228709       0.18771291       0.02346546 </v>
   <v>       0.97018182       0.02981813       0.11732645 </v>
   <v>       0.12807667       0.87192327       0.21118759 </v>
   <v>       0.28597152       0.71402836       0.30504861 </v>
   <v>       0.44386637       0.55613363       0.39890966 </v>
   <v>       0.12807691       0.37192324       0.21118751 </v>
   <v>       0.52281326       0.97718668       0.00000001 </v>
   <v>       0.68070811       0.81929189       0.09386105 </v>
   <v>       0.83860296       0.66139704       0.18772209 </v>
   <v>       0.99649775       0.50350225       0.28158313 </v>
   <v>       0.18573475       0.73561359       0.49999994 </v>
   <v>       0.49649784       0.00350219       0.28158313 </v>
   <v>       0.81228727       0.68771285       0.02346543 </v>
   <v>       0.97018212       0.52981806       0.11732648 </v>
   <v>       0.31228745       0.18771249       0.46930528 </v>
   <v>       0.84362942       0.07771873       0.59386104 </v>
   <v>       0.00152421       0.91982394       0.68772209 </v>
   <v>       0.81228751       0.68771249       0.46930525 </v>
   <v>       0.02281339       0.47718665       0.00000001 </v>
   <v>       0.18070820       0.31929183       0.09386104 </v>
   <v>       0.33860305       0.16139698       0.18772212 </v>
   <v>       0.60176146       0.89823872       0.49277064 </v>
   <v>       0.65941906       0.26192909       0.78158313 </v>
   <v>       0.94386637       0.55613351       0.39890966 </v>
   <v>       0.31228706       0.18771288       0.02346545 </v>
   <v>       0.47018188       0.02981809       0.11732648 </v>
   <v>       0.63310319       0.28824502       0.61732644 </v>
   <v>       0.78597152       0.71402842       0.30504861 </v>
   <v>       0.10176122       0.39823878       0.49277067 </v>
   <v>       0.97520858       0.44613951       0.96930522 </v>
   <v>       0.18573467       0.23561359       0.49999994 </v>
   <v>       0.34362948       0.07771873       0.59386104 </v>
   <v>       0.50152427       0.91982394       0.68772209 </v>
   <v>       0.65941900       0.76192909       0.78158313 </v>
   <v>       0.81731385       0.60403425       0.87544423 </v>
   <v>       0.26468235       0.15666580       0.99277061 </v>
   <v>       0.47520840       0.94613987       0.52346528 </v>
   <v>       0.63310319       0.78824508       0.61732626 </v>
   <v>       0.79099798       0.63035017       0.71118736 </v>
   <v>       0.94889283       0.47245532       0.80504847 </v>
   <v>       0.10678756       0.31456047       0.89890951 </v>
   <v>       0.47520846       0.94613951       0.96930522 </v>
   <v>       0.63310319       0.28824502       0.61732644 </v>
   <v>       0.84362942       0.57771879       0.59386092 </v>
   <v>       0.00152421       0.41982392       0.68772209 </v>
   <v>       0.15941894       0.26192909       0.78158313 </v>
   <v>       0.31731373       0.10403419       0.87544411 </v>
   <v>       0.76468235       0.65666568       0.99277073 </v>
   <v>       0.97520840       0.44613990       0.52346540 </v>
   <v>       0.13310313       0.28824505       0.61732644 </v>
   <v>       0.29099804       0.13035023       0.71118742 </v>
   <v>       0.44889277       0.97245538       0.80504859 </v>
   <v>       0.60678762       0.81456047       0.89890963 </v>
   <v>       0.97520864       0.94613940       0.96930510 </v>
   <v>       0.34362951       0.57771873       0.59386092 </v>
   <v>       0.18573475       0.73561359       0.49999994 </v>
   <v>       0.50152433       0.41982388       0.68772209 </v>
   <v>       0.65439266       0.84560734       0.37544423 </v>
   <v>       0.81731391       0.10403419       0.87544423 </v>
   <v>       0.26468235       0.65666562       0.99277073 </v>
   <v>       0.47520840       0.44613984       0.52346540 </v>
   <v>       0.62807673       0.87192327       0.21118756 </v>
   <v>       0.68573463       0.23561359       0.49999994 </v>
   <v>       0.94889277       0.97245538       0.80504852 </v>
   <v>       0.10678756       0.81456047       0.89890963 </v>
   <v>       0.47520858       0.44613946       0.96930510 </v>
   <v>       0.79099798       0.13035011       0.71118748 </v>
   <v>       0.28597176       0.21402839       0.30504861 </v>
   <v>       0.44386673       0.05613352       0.39890963 </v>
   <v>       0.97520870       0.94613981       0.52346540 </v>
   <v>       0.31731373       0.60403430       0.87544411 </v>
   <v>       0.76468259       0.15666556       0.99277073 </v>
   <v>       0.15941894       0.76192921       0.78158313 </v>
   <v>       0.10176122       0.39823878       0.49277067 </v>
   <v>       0.29099828       0.63035011       0.71118742 </v>
   <v>       0.44889301       0.47245532       0.80504852 </v>
   <v>       0.60678786       0.31456041       0.89890963 </v>
  </varray>
 </structure>
 <calculation>
  <scstep>
   <time name="dav">   63.41   63.99</time>
   <time name="total">   65.59   66.18</time>
   <energy>
    <i name="alphaZ">    912.89109449 </i>
    <i name="ewald">  -8780.83288441 </i>
    <i name="hartreedc">  -1431.26585974 </i>
    <i name="XCdc">   -751.02535932 </i>
    <i name="pawpsdc">   8461.93788731 </i>
    <i name="pawaedc">  -7071.13096423 </i>
    <i name="eentropy">     -0.00114694 </i>
    <i name="bandstr">   1776.90006715 </i>
    <i name="atom">  10079.60734648 </i>
    <i name="e_fr_energy">   3197.08018080 </i>
    <i name="e_wo_entrp">   3197.08132774 </i>
    <i name="e_0_energy">   3197.08075427 </i>
   </energy>
  </scstep>
  <scstep>
   <time name="dav">   71.18   71.84</time>
   <time name="total">   71.18   71.84</time>
   <energy>
    <i name="e_fr_energy">   1054.30534577 </i>
    <i name="e_wo_entrp">   1054.30688752 </i>
    <i name="e_0_energy">   1054.30611665 </i>
   </energy>
  </scstep>
  <scstep>
   <time name="dav">   75.25   75.95</time>
   <time name="total">   75.25   75.95</time>
   <energy>
    <i name="e_fr_energy">    825.43841544 </i>
    <i name="e_wo_entrp">    825.43995396 </i>
    <i name="e_0_energy">    825.43918470 </i>
   </energy>
  </scstep>
  <scstep>
   <time name="dav">   73.26   73.93</time>
   <time name="total">   73.26   73.93</time>
   <energy>
    <i name="e_fr_energy">    815.07668232 </i>
    <i name="e_wo_entrp">    815.07891382 </i>
    <i name="e_0_energy">    815.07779807 </i>
   </energy>
  </scstep>
  <scstep>
   <time name="dav">   77.59   78.29</time>
   <time name="total">   81.84   82.60</time>
   <energy>
    <i name="e_fr_energy">    814.60891093 </i>
    <i name="e_wo_entrp">    814.61122830 </i>
    <i name="e_0_energy">    814.61006961 </i>
   </energy>
  </scstep>
  <scstep>
   <time name="dav">   69.23   69.88</time>
   <time name="total">   75.69   76.38</time>
   <energy>
    <i name="e_fr_energy">    850.88855338 </i>
    <i name="e_wo_entrp">    850.89013234 </i>
    <i name="e_0_energy">    850.88934286 </i>
   </energy>
  </scstep>
  <scstep>
   <time name="dav">   90.96   91.83</time>
   <time name="total">   97.37   98.30</time>
   <energy>
    <i name="e_fr_energy">    825.86048793 </i>
    <i name="e_wo_entrp">    825.86243292 </i>
    <i name="e_0_energy">    825.86146043 </i>
   </energy>
  </scstep>
  <scstep>
   <time name="dav">   83.53   84.41</time>
   <time name="total">   89.94   90.88</time>
   <energy>
    <i name="e_fr_energy">    869.88233968 </i>
    <i name="e_wo_entrp">    869.88386446 </i>
    <i name="e_0_energy">    869.88310207 </i>
   </energy>
  </scstep>
  <scstep>
   <time name="dav">   74.29   75.07</time>
   <time name="total">   80.72   81.56</time>
   <energy>
    <i name="e_fr_energy">    869.32513130 </i>
    <i name="e_wo_entrp">    869.32684993 </i>
    <i name="e_0_energy">    869.32599062 </i>
   </energy>
  </scstep>
  <scstep>
   <time name="dav">   69.06   69.70</time>
   <time name="total">   75.50   76.19</time>
   <energy>
    <i name="e_fr_energy">    872.70954281 </i>
    <i name="e_wo_entrp">    872.71115955 </i>
    <i name="e_0_energy">    872.71035118 </i>
   </energy>
  </scstep>
  <scstep>
   <time name="dav">   72.83   73.49</time>
   <time name="total">   79.27   79.97</time>
   <energy>
    <i name="e_fr_energy">    874.40694949 </i>
    <i name="e_wo_entrp">    874.40909639 </i>
    <i name="e_0_energy">    874.40802294 </i>
   </energy>
  </scstep>
  <scstep>
   <time name="dav">   68.67   69.30</time>
   <time name="total">   75.12   75.80</time>
   <energy>
    <i name="e_fr_energy">    876.06781512 </i>
    <i name="e_wo_entrp">    876.06979468 </i>
    <i name="e_0_energy">    876.06880490 </i>
   </energy>
  </scstep>
  <scstep>
   <time name="dav">   73.15   73.83</time>
   <time name="total">   79.54   80.26</time>
   <energy>
    <i name="e_fr_energy">    876.56451909 </i>
    <i name="e_wo_entrp">    876.56619230 </i>
    <i name="e_0_energy">    876.56535569 </i>
   </energy>
  </scstep>
  <scstep>
   <time name="dav">   73.74   74.42</time>
   <time name="total">   80.15   80.88</time>
   <energy>
    <i name="e_fr_energy">    876.65531864 </i>
    <i name="e_wo_entrp">    876.65723970 </i>
    <i name="e_0_energy">    876.65627917 </i>
   </energy>
  </scstep>
  <scstep>
   <time name="dav">   70.24   70.89</time>
   <time name="total">   76.68   77.37</time>
   <energy>
    <i name="e_fr_energy">    876.66145246 </i>
    <i name="e_wo_entrp">    876.66338860 </i>
    <i name="e_0_energy">    876.66242053 </i>
   </energy>
  </scstep>
  <scstep>
   <time name="dav">   71.72   72.38</time>
   <time name="total">   78.11   78.82</time>
   <energy>
    <i name="e_fr_energy">    876.66240673 </i>
    <i name="e_wo_entrp">    876.66434377 </i>
    <i name="e_0_energy">    876.66337525 </i>
   </energy>
  </scstep>
  <scstep>
   <time name="dav">   69.63   70.25</time>
   <time name="total">   76.03   76.70</time>
   <energy>
    <i name="e_fr_energy">    876.66571387 </i>
    <i name="e_wo_entrp">    876.66769410 </i>
    <i name="e_0_energy">    876.66670399 </i>
   </energy>
  </scstep>
  <scstep>
   <time name="dav">   72.46   73.12</time>
   <time name="total">   78.89   79.59</time>
   <energy>
    <i name="e_fr_energy">    876.66621952 </i>
    <i name="e_wo_entrp">    876.66816690 </i>
    <i name="e_0_energy">    876.66719321 </i>
   </energy>
  </scstep>
  <scstep>
   <time name="dav">   70.85   71.48</time>
   <time name="total">   77.24   77.94</time>
   <energy>
    <i name="e_fr_energy">    876.66641253 </i>
    <i name="e_wo_entrp">    876.66836348 </i>
    <i name="e_0_energy">    876.66738800 </i>
   </energy>
  </scstep>
  <scstep>
   <time name="dav">   72.28   72.94</time>
   <time name="total">   78.67   79.38</time>
   <energy>
    <i name="e_fr_energy">    876.66643818 </i>
    <i name="e_wo_entrp">    876.66839237 </i>
    <i name="e_0_energy">    876.66741528 </i>
   </energy>
  </scstep>
  <scstep>
   <time name="dav">   71.61   72.27</time>
   <time name="total">   78.00   78.70</time>
   <energy>
    <i name="e_fr_energy">    876.66643940 </i>
    <i name="e_wo_entrp">    876.66839517 </i>
    <i name="e_0_energy">    876.66741728 </i>
   </energy>
  </scstep>
  <scstep>
   <time name="dav">   72.74   73.42</time>
   <time name="total">   79.16   79.89</time>
   <energy>
    <i name="e_fr_energy">    876.66643882 </i>
    <i name="e_wo_entrp">    876.66839431 </i>
    <i name="e_0_energy">    876.66741657 </i>
   </energy>
  </scstep>
  <scstep>
   <time name="dav">   73.13   73.80</time>
   <time name="total">   79.55   80.26</time>
   <energy>
    <i name="e_fr_energy">    876.66643748 </i>
    <i name="e_wo_entrp">    876.66839297 </i>
    <i name="e_0_energy">    876.66741522 </i>
   </energy>
  </scstep>
  <scstep>
   <time name="dav">   64.86   65.44</time>
   <time name="total">   71.27   71.90</time>
   <energy>
    <i name="e_fr_energy">    876.66643730 </i>
    <i name="e_wo_entrp">    876.66839265 </i>
    <i name="e_0_energy">    876.66741498 </i>
   </energy>
  </scstep>
  <scstep>
   <time name="dav">   55.36   55.86</time>
   <time name="total">   57.52   58.03</time>
   <energy>
    <i name="alphaZ">    912.89109449 </i>
    <i name="ewald">  -8780.83288441 </i>
    <i name="hartreedc">  -1504.40861144 </i>
    <i name="XCdc">   -713.47930759 </i>
    <i name="pawpsdc">  61604.52606811 </i>
    <i name="pawaedc"> -60297.56119084 </i>
    <i name="eentropy">     -0.00195518 </i>
    <i name="bandstr">   -424.07412222 </i>
    <i name="atom">  10079.60734648 </i>
    <i name="e_fr_energy">    876.66643739 </i>
    <i name="e_wo_entrp">    876.66839258 </i>
    <i name="e_0_energy">    876.66741498 </i>
   </energy>
  </scstep>
  <structure>
   <crystal>
    <varray name="basis" >
     <v>      17.89153480       0.00000000       0.00000000 </v>
     <v>     -16.10238075       7.79873943       0.00000000 </v>
     <v>       0.00000028      -0.00000006      13.82883549 </v>
    </varray>
    <i name="volume">   1929.55702480 </i>
    <varray name="rec_basis" >
     <v>       0.05589235       0.11540326      -0.00000000 </v>
     <v>       0.00000000       0.12822585       0.00000000 </v>
     <v>       0.00000000       0.00000000       0.07231267 </v>
    </varray>
   </crystal>
   <varray name="positions" >
    <v>       0.81228745       0.18771255       0.46930525 </v>
    <v>       0.02281332       0.97718668       0.00000001 </v>
    <v>       0.18070815       0.81929183       0.09386106 </v>
    <v>       0.33860299       0.66139698       0.18772212 </v>
    <v>       0.49649781       0.50350219       0.28158316 </v>
    <v>       0.65439260       0.34560740       0.37544423 </v>
    <v>       0.10176122       0.89823884       0.49277046 </v>
    <v>       0.31228706       0.68771291       0.02346529 </v>
    <v>       0.47018188       0.52981806       0.11732632 </v>
    <v>       0.62807673       0.37192327       0.21118741 </v>
    <v>       0.78597158       0.21402840       0.30504847 </v>
    <v>       0.94386643       0.05613355       0.39890954 </v>
    <v>       0.31228733       0.68771261       0.46930522 </v>
    <v>       0.52281326       0.47718665       0.00000000 </v>
    <v>       0.68070811       0.31929183       0.09386105 </v>
    <v>       0.83860296       0.16139701       0.18772209 </v>
    <v>       0.99649781       0.00350215       0.28158313 </v>
    <v>       0.15439260       0.84560740       0.37544423 </v>
    <v>       0.65439266       0.84560734       0.37544423 </v>
    <v>       0.81228709       0.18771291       0.02346546 </v>
    <v>       0.97018182       0.02981813       0.11732645 </v>
    <v>       0.12807667       0.87192327       0.21118759 </v>
    <v>       0.28597152       0.71402836       0.30504861 </v>
    <v>       0.44386637       0.55613363       0.39890966 </v>
    <v>       0.12807691       0.37192324       0.21118751 </v>
    <v>       0.52281326       0.97718668       0.00000001 </v>
    <v>       0.68070811       0.81929189       0.09386105 </v>
    <v>       0.83860296       0.66139704       0.18772209 </v>
    <v>       0.99649775       0.50350225       0.28158313 </v>
    <v>       0.18573475       0.73561359       0.49999994 </v>
    <v>       0.49649784       0.00350219       0.28158313 </v>
    <v>       0.81228727       0.68771285       0.02346543 </v>
    <v>       0.97018212       0.52981806       0.11732648 </v>
    <v>       0.31228745       0.18771249       0.46930528 </v>
    <v>       0.84362942       0.07771873       0.59386104 </v>
    <v>       0.00152421       0.91982394       0.68772209 </v>
    <v>       0.81228751       0.68771249       0.46930525 </v>
    <v>       0.02281339       0.47718665       0.00000001 </v>
    <v>       0.18070820       0.31929183       0.09386104 </v>
    <v>       0.33860305       0.16139698       0.18772212 </v>
    <v>       0.60176146       0.89823872       0.49277064 </v>
    <v>       0.65941906       0.26192909       0.78158313 </v>
    <v>       0.94386637       0.55613351       0.39890966 </v>
    <v>       0.31228706       0.18771288       0.02346545 </v>
    <v>       0.47018188       0.02981809       0.11732648 </v>
    <v>       0.63310319       0.28824502       0.61732644 </v>
    <v>       0.78597152       0.71402842       0.30504861 </v>
    <v>       0.10176122       0.39823878       0.49277067 </v>
    <v>       0.97520858       0.44613951       0.96930522 </v>
    <v>       0.18573467       0.23561359       0.49999994 </v>
    <v>       0.34362948       0.07771873       0.59386104 </v>
    <v>       0.50152427       0.91982394       0.68772209 </v>
    <v>       0.65941900       0.76192909       0.78158313 </v>
    <v>       0.81731385       0.60403425       0.87544423 </v>
    <v>       0.26468235       0.15666580       0.99277061 </v>
    <v>       0.47520840       0.94613987       0.52346528 </v>
    <v>       0.63310319       0.78824508       0.61732626 </v>
    <v>       0.79099798       0.63035017       0.71118736 </v>
    <v>       0.94889283       0.47245532       0.80504847 </v>
    <v>       0.10678756       0.31456047       0.89890951 </v>
    <v>       0.47520846       0.94613951       0.96930522 </v>
    <v>       0.63310319       0.28824502       0.61732644 </v>
    <v>       0.84362942       0.57771879       0.59386092 </v>
    <v>       0.00152421       0.41982392       0.68772209 </v>
    <v>       0.15941894       0.26192909       0.78158313 </v>
    <v>       0.31731373       0.10403419       0.87544411 </v>
    <v>       0.76468235       0.65666568       0.99277073 </v>
    <v>       0.97520840       0.44613990       0.52346540 </v>
    <v>       0.13310313       0.28824505       0.61732644 </v>
    <v>       0.29099804       0.13035023       0.71118742 </v>
    <v>       0.44889277       0.97245538       0.80504859 </v>
    <v>       0.60678762       0.81456047       0.89890963 </v>
    <v>       0.97520864       0.94613940       0.96930510 </v>
    <v>       0.34362951       0.57771873       0.59386092 </v>
    <v>       0.18573475       0.73561359       0.49999994 </v>
    <v>       0.50152433       0.41982388       0.68772209 </v>
    <v>       0.65439266       0.84560734       0.37544423 </v>
    <v>       0.81731391       0.10403419       0.87544423 </v>
    <v>       0.26468235       0.65666562       0.99277073 </v>
    <v>       0.47520840       0.44613984       0.52346540 </v>
    <v>       0.62807673       0.87192327       0.21118756 </v>
    <v>       0.68573463       0.23561359       0.49999994 </v>
    <v>       0.94889277       0.97245538       0.80504852 </v>
    <v>       0.10678756       0.81456047       0.89890963 </v>
    <v>       0.47520858       0.44613946       0.96930510 </v>
    <v>       0.79099798       0.13035011       0.71118748 </v>
    <v>       0.28597176       0.21402839       0.30504861 </v>
    <v>       0.44386673       0.05613352       0.39890963 </v>
    <v>       0.97520870       0.94613981       0.52346540 </v>
    <v>       0.31731373       0.60403430       0.87544411 </v>
    <v>       0.76468259       0.15666556       0.99277073 </v>
    <v>       0.15941894       0.76192921       0.78158313 </v>
    <v>       0.10176122       0.39823878       0.49277067 </v>
    <v>       0.29099828       0.63035011       0.71118742 </v>
    <v>       0.44889301       0.47245532       0.80504852 </v>
    <v>       0.60678786       0.31456041       0.89890963 </v>
   </varray>
  </structure>
  <varray name="forces" >
   <v>      -1.32057801      -1.27843661      -1.23480239 </v>
   <v>     347.31683236     238.57708538     425.96820930 </v>
   <v>      -0.93024345      -0.00153369      -1.24867690 </v>
   <v>       0.22671112      -0.38715849       0.11992793 </v>
   <v>       0.32893474       0.08562945      -0.20367405 </v>
   <v>      -1.36464846       0.26453063       0.24038051 </v>
   <v>       0.71517805      -0.71210814      -0.14396621 </v>
   <v>     355.22664131     243.11870964     427.03727347 </v>
   <v>      -1.10699796       0.36447452       0.52285571 </v>
   <v>      -0.05956355       0.12110696      -0.04912709 </v>
   <v>      -0.17573301      -0.03597359      -0.25302449 </v>
   <v>       0.78853289       1.25242649      -0.02224839 </v>
   <v>      -0.87530385       0.90183929      -1.01870651 </v>
   <v>     347.34859546     238.60941708     425.90876201 </v>
   <v>      -0.80719687      -0.06724086      -1.24376209 </v>
   <v>       0.35172477       0.19986203       0.09346661 </v>
   <v>       0.17789971      -0.31007779      -0.35054298 </v>
   <v>      -1.06706207       0.37375051      -1.06191518 </v>
   <v>       0.04518930      -0.18752555      -0.23902008 </v>
   <v>     355.17755240     242.93366152     427.01823026 </v>
   <v>      -1.12230927       0.44464693       0.47861903 </v>
   <v>       0.01912721      -0.03475542      -0.09766874 </v>
   <v>      -0.13839930      -0.09408477      -0.39987746 </v>
   <v>       0.17330816      -1.94214951       0.83478408 </v>
   <v>       0.45178931      -0.13330673       0.83527414 </v>
   <v>     347.22745618     238.62622464     425.95600885 </v>
   <v>      -0.65190448      -0.08498284      -1.38406957 </v>
   <v>       0.32056286      -0.09091223       0.08206212 </v>
   <v>       0.41126363      -0.25231626      -0.36528707 </v>
   <v>      -0.55891922       1.01206233       1.08744735 </v>
   <v>       0.32309443      -0.08817780      -0.08844821 </v>
   <v>     355.15945012     243.02193400     427.06178392 </v>
   <v>      -1.15737371       0.45246475       0.51597818 </v>
   <v>       0.17784036       0.29014138       0.00408063 </v>
   <v>       0.77228762       0.29848138       0.95548058 </v>
   <v>       0.09837989       0.06096420       0.28224225 </v>
   <v>      -0.80611756      -1.49593341       0.16998148 </v>
   <v>     347.23180859     238.59523309     426.00543022 </v>
   <v>      -1.02518622      -0.04190691      -1.23586640 </v>
   <v>       0.33735977      -0.14005688       0.10631041 </v>
   <v>      -0.68965536      -0.02167397       0.35547194 </v>
   <v>       0.69564653      -0.17708995       1.56870722 </v>
   <v>      -1.57110406      -0.96105296      -1.57548987 </v>
   <v>     355.20907476     243.02682838     426.98396571 </v>
   <v>      -1.13178611       0.30999347       0.54953761 </v>
   <v>      -0.04518930       0.18752555       0.23902008 </v>
   <v>       0.08782574       0.02985503      -0.49423974 </v>
   <v>       0.55891922      -1.01206233      -1.08744735 </v>
   <v>    -355.22664131    -243.11870964    -427.03727347 </v>
   <v>      -0.71517805       0.71210814       0.14396621 </v>
   <v>      -0.78853289      -1.25242649       0.02224839 </v>
   <v>       0.17573301       0.03597359       0.25302449 </v>
   <v>       0.05956355      -0.12110696       0.04912709 </v>
   <v>       1.10699796      -0.36447452      -0.52285571 </v>
   <v>    -347.31683236    -238.57708538    -425.96820930 </v>
   <v>       1.32057801       1.27843661       1.23480239 </v>
   <v>       1.36464846      -0.26453063      -0.24038051 </v>
   <v>      -0.32893474      -0.08562945       0.20367405 </v>
   <v>      -0.22671112       0.38715849      -0.11992793 </v>
   <v>       0.93024345       0.00153369       1.24867690 </v>
   <v>    -355.17755240    -242.93366152    -427.01823026 </v>
   <v>      -0.04518930       0.18752555       0.23902008 </v>
   <v>      -0.17330816       1.94214951      -0.83478408 </v>
   <v>       0.13839930       0.09408477       0.39987746 </v>
   <v>      -0.01912721       0.03475542       0.09766874 </v>
   <v>       1.12230927      -0.44464693      -0.47861903 </v>
   <v>    -347.34859546    -238.60941708    -425.90876201 </v>
   <v>       0.87530385      -0.90183929       1.01870651 </v>
   <v>       1.06706207      -0.37375051       1.06191518 </v>
   <v>      -0.17789971       0.31007779       0.35054298 </v>
   <v>      -0.35172477      -0.19986203      -0.09346661 </v>
   <v>       0.80719687       0.06724086       1.24376209 </v>
   <v>    -355.20907476    -243.02682838    -426.98396571 </v>
   <v>       1.57110406       0.96105296       1.57548987 </v>
   <v>      -0.55891922       1.01206233       1.08744735 </v>
   <v>      -0.08782574      -0.02985503       0.49423974 </v>
   <v>       0.04518930      -0.18752555      -0.23902008 </v>
   <v>       1.13178611      -0.30999347      -0.54953761 </v>
   <v>    -347.23180859    -238.59523309    -426.00543022 </v>
   <v>       0.80611756       1.49593341      -0.16998148 </v>
   <v>      -0.69564653       0.17708995      -1.56870722 </v>
   <v>       0.68965536       0.02167397      -0.35547194 </v>
   <v>      -0.33735977       0.14005688      -0.10631041 </v>
   <v>       1.02518622       0.04190691       1.23586640 </v>
   <v>    -355.15945012    -243.02193400    -427.06178392 </v>
   <v>      -0.32309443       0.08817780       0.08844821 </v>
   <v>      -0.09837989      -0.06096420      -0.28224225 </v>
   <v>      -0.77228762      -0.29848138      -0.95548058 </v>
   <v>      -0.17784036      -0.29014138      -0.00408063 </v>
   <v>       1.15737371      -0.45246475      -0.51597818 </v>
   <v>    -347.22745618    -238.62622464    -425.95600885 </v>
   <v>      -0.45178931       0.13330673      -0.83527414 </v>
   <v>       0.55891922      -1.01206233      -1.08744735 </v>
   <v>      -0.41126363       0.25231626       0.36528707 </v>
   <v>      -0.32056286       0.09091223      -0.08206212 </v>
   <v>       0.65190448       0.08498284       1.38406957 </v>
  </varray>
  <varray name="stress" >
   <v>     974.28424329     592.90401439     999.93195430 </v>
   <v>     592.90406596     550.22709839     688.77931938 </v>
   <v>     999.93188917     688.77920669    1284.03601400 </v>
  </varray>
  <energy>
   <i name="e_fr_energy">    876.66643739 </i>
   <i name="e_wo_entrp">    876.66839258 </i>
   <i name="e_0_energy">    876.66741498 </i>
  </energy>
  <time name="totalsc"> 2044.00 2063.77</time>
  <eigenvalues>
   <array>
    <dimension dim="1">band</dimension>
    <dimension dim="2">kpoint</dimension>
    <dimension dim="3">spin</dimension>
    <field>eigene</field>
    <field>occ</field>
    <set>
     <set comment="spin 1">
      <set comment="kpoint 1">
       <r>   -9.2161    1.0000 </r>
       <r>   -9.1742    1.0000 </r>
       <r>   -8.9897    1.0000 </r>
       <r>   -8.3564    1.0000 </r>
       <r>   -8.0569    1.0000 </r>
       <r>   -8.0394    1.0000 </r>
       <r>   -7.9191    1.0000 </r>
       <r>   -7.6083    1.0000 </r>
       <r>   -7.4407    1.0000 </r>
       <r>   -7.4231    1.0000 </r>
       <r>   -7.3402    1.0000 </r>
       <r>   -7.2962    1.0000 </r>
       <r>   -7.2589    1.0000 </r>
       <r>   -7.2284    1.0000 </r>
       <r>   -7.1711    1.0000 </r>
       <r>   -7.0630    1.0000 </r>
       <r>   -6.8586    1.0000 </r>
       <r>   -6.8251    1.0000 </r>
       <r>   -6.6774    1.0000 </r>
       <r>   -6.5931    1.0000 </r>
       <r>   -6.4469    1.0000 </r>
       <r>   -6.2590    1.0000 </r>
       <r>   -6.1583    1.0000 </r>
       <r>   -6.1454    1.0000 </r>
       <r>   -6.1439    1.0000 </r>
       <r>   -6.0706    1.0000 </r>
       <r>   -5.9476    1.0000 </r>
       <r>   -5.8429    1.0000 </r>
       <r>   -5.8187    1.0000 </r>
       <r>   -5.7327    1.0000 </r>
       <r>   -5.6879    1.0000 </r>
       <r>   -5.6626    1.0000 </r>
       <r>   -5.6315    1.0000 </r>
       <r>   -5.5680    1.0000 </r>
       <r>   -5.5135    1.0000 </r>
       <r>   -5.4075    1.0000 </r>
       <r>   -5.3958    1.0000 </r>
       <r>   -5.3759    1.0000 </r>
       <r>   -5.3158    1.0000 </r>
       <r>   -5.2803    1.0000 </r>
       <r>   -5.2504    1.0000 </r>
       <r>   -5.2328    1.0000 </r>
       <r>   -5.0508    1.0000 </r>
       <r>   -5.0205    1.0000 </r>
       <r>   -4.9745    1.0000 </r>
       <r>   -4.8938    1.0000 </r>
       <r>   -4.5836    1.0000 </r>
       <r>   -4.5745    1.0000 </r>
       <r>   -4.4689    1.0000 </r>
       <r>   -4.4061    1.0000 </r>
       <r>   -4.3578    1.0000 </r>
       <r>   -4.3378    1.0000 </r>
       <r>   -4.1980    1.0000 </r>
       <r>   -4.0496    1.0000 </r>
       <r>   -4.0356    1.0000 </r>
       <r>   -3.9504    1.0000 </r>
       <r>   -3.9100    1.0000 </r>
       <r>   -3.8771    1.0000 </r>
       <r>   -3.7335    1.0000 </r>
       <r>   -3.6877    1.0000 </r>
       <r>   -3.6728    1.0000 </r>
       <r>   -3.5116    1.0000 </r>
       <r>   -3.3480    1.0000 </r>
       <r>   -3.2586    1.0000 </r>
       <r>   -3.2102    1.0000 </r>
       <r>   -3.1660    1.0000 </r>
       <r>   -3.1122    1.0000 </r>
       <r>   -3.1118    1.0000 </r>
       <r>   -3.0075    1.0000 </r>
       <r>   -2.9045    1.0000 </r>
       <r>   -2.7940    1.0000 </r>
       <r>   -2.7333    1.0000 </r>
       <r>   -2.6380    1.0000 </r>
       <r>   -2.5511    1.0000 </r>
       <r>   -2.5058    1.0000 </r>
       <r>   -2.3257    1.0000 </r>
       <r>   -2.3128    1.0000 </r>
       <r>   -2.0778    1.0000 </r>
       <r>   -2.0776    1.0000 </r>
       <r>   -1.7712    1.0000 </r>
       <r>   -1.6724    1.0000 </r>
       <r>   -1.5704    1.0000 </r>
       <r>   -1.5332    1.0000 </r>
       <r>   -1.5179    1.0000 </r>
       <r>   -1.4481    1.0000 </r>
       <r>   -1.4441    1.0000 </r>
       <r>   -1.3459    1.0000 </r>
       <r>   -1.3290    1.0000 </r>
       <r>   -1.2511    1.0000 </r>
       <r>   -1.2167    1.0000 </r>
       <r>   -1.1905    1.0000 </r>
       <r>   -1.0938    1.0000 </r>
       <r>   -1.0582    1.0000 </r>
       <r>   -1.0128    1.0000 </r>
       <r>   -0.9382    1.0000 </r>
       <r>   -0.9294    1.0000 </r>
       <r>   -0.8650    1.0000 </r>
       <r>   -0.7772    1.0000 </r>
       <r>   -0.6135    1.0000 </r>
       <r>   -0.4864    1.0000 </r>
       <r>   -0.4610    1.0000 </r>
       <r>   -0.3422    1.0000 </r>
       <r>   -0.2885    1.0000 </r>
       <r>    0.0217    1.0000 </r>
       <r>    0.2338    1.0000 </r>
       <r>    0.2733    1.0000 </r>
       <r>    0.3343    1.0000 </r>
       <r>    0.5330    1.0000 </r>
       <r>    0.7114    1.0000 </r>
       <r>    0.7256    1.0000 </r>
       <r>    0.8757    1.0000 </r>
       <r>    0.9325    1.0000 </r>
       <r>    1.0194    1.0000 </r>
       <r>    1.1541    1.0000 </r>
       <r>    1.1769    1.0000 </r>
       <r>    1.1910    1.0000 </r>
       <r>    1.2312    1.0000 </r>
       <r>    1.2729    1.0000 </r>
       <r>    1.3044    1.0000 </r>
       <r>    1.3723    1.0000 </r>
       <r>    1.3797    1.0000 </r>
       <r>    1.4525    1.0000 </r>
       <r>    1.4617    1.0000 </r>
       <r>    1.5945    1.0000 </r>
       <r>    1.6021    1.0000 </r>
       <r>    1.6250    1.0000 </r>
       <r>    1.6547    1.0000 </r>
       <r>    1.7151    1.0000 </r>
       <r>    1.8078    1.0000 </r>
       <r>    1.8574    1.0000 </r>
       <r>    1.9175    1.0000 </r>
       <r>    1.9358    1.0000 </r>
       <r>    1.9611    1.0000 </r>
       <r>    1.9834    1.0000 </r>
       <r>    2.0122    1.0000 </r>
       <r>    2.0150    1.0000 </r>
       <r>    2.1345    1.0000 </r>
       <r>    2.2072    1.0000 </r>
       <r>    2.2521    1.0000 </r>
       <r>    2.2718    1.0000 </r>
       <r>    2.3015    1.0000 </r>
       <r>    2.3123    1.0000 </r>
       <r>    2.3533    1.0000 </r>
       <r>    2.3840    1.0000 </r>
       <r>    2.3983    1.0000 </r>
       <r>    2.4032    1.0000 </r>
       <r>    2.4681    1.0000 </r>
       <r>    2.4986    1.0000 </r>
       <r>    2.5966    1.0000 </r>
       <r>    2.5990    1.0000 </r>
       <r>    2.6333    1.0000 </r>
       <r>    2.6535    1.0000 </r>
       <r>    2.7569    1.0000 </r>
       <r>    2.8001    1.0000 </r>
       <r>    2.8540    1.0000 </r>
       <r>    2.9182    1.0000 </r>
       <r>    2.9723    1.0000 </r>
       <r>    3.0899    1.0000 </r>
       <r>    3.1007    1.0000 </r>
       <r>    3.1591    1.0000 </r>
       <r>    3.1899    1.0000 </r>
       <r>    3.2328    1.0000 </r>
       <r>    3.2760    1.0000 </r>
       <r>    3.3554    1.0000 </r>
       <r>    3.3741    1.0000 </r>
       <r>    3.4127    1.0000 </r>
       <r>    3.4518    1.0000 </r>
       <r>    3.4632    1.0000 </r>
       <r>    3.5564    1.0000 </r>
       <r>    3.5645    1.0000 </r>
       <r>    3.6037    1.0000 </r>
       <r>    3.6408    1.0000 </r>
       <r>    3.6471    1.0000 </r>
       <r>    3.8085    1.0000 </r>
       <r>    3.8258    1.0000 </r>
       <r>    3.8746    1.0000 </r>
       <r>    3.9251    1.0000 </r>
       <r>    3.9332    1.0000 </r>
       <r>    3.9488    1.0000 </r>
       <r>    4.0331    1.0000 </r>
       <r>    4.0995    1.0000 </r>
       <r>    4.1343    1.0000 </r>
       <r>    4.1386    1.0000 </r>
       <r>    4.2432    1.0000 </r>
       <r>    4.2944    1.0000 </r>
       <r>    4.3033    1.0000 </r>
       <r>    4.3485    1.0000 </r>
       <r>    4.4172    1.0000 </r>
       <r>    4.4647    1.0000 </r>
       <r>    4.4675    1.0000 </r>
       <r>    4.6242    1.0000 </r>
       <r>    4.6403    1.0000 </r>
       <r>    4.6873    0.9088 </r>
       <r>    4.7155    0.0039 </r>
       <r>    4.8335    0.0000 </r>
       <r>    4.8416    0.0000 </r>
       <r>    4.9595    0.0000 </r>
       <r>    5.0146    0.0000 </r>
       <r>    5.0971    0.0000 </r>
       <r>    5.1526    0.0000 </r>
       <r>    5.2481    0.0000 </r>
       <r>    5.2937    0.0000 </r>
       <r>    5.3132    0.0000 </r>
       <r>    5.3299    0.0000 </r>
       <r>    5.3345    0.0000 </r>
       <r>    5.4789    0.0000 </r>
       <r>    5.5049    0.0000 </r>
       <r>    5.5879    0.0000 </r>
       <r>    5.6261    0.0000 </r>
       <r>    5.6381    0.0000 </r>
       <r>    5.6723    0.0000 </r>
       <r>    5.6746    0.0000 </r>
       <r>    5.7233    0.0000 </r>
       <r>    5.7955    0.0000 </r>
       <r>    5.7977    0.0000 </r>
       <r>    5.8180    0.0000 </r>
       <r>    5.8947    0.0000 </r>
       <r>    5.9898    0.0000 </r>
       <r>    6.0623    0.0000 </r>
       <r>    6.0863    0.0000 </r>
       <r>    6.0999    0.0000 </r>
       <r>    6.1689    0.0000 </r>
       <r>    6.2110    0.0000 </r>
       <r>    6.2155    0.0000 </r>
       <r>    6.2719    0.0000 </r>
       <r>    6.3490    0.0000 </r>
       <r>    6.3772    0.0000 </r>
       <r>    6.4098    0.0000 </r>
       <r>    6.4427    0.0000 </r>
       <r>    6.4789    0.0000 </r>
       <r>    6.5511    0.0000 </r>
       <r>    6.5532    0.0000 </r>
      </set>
      <set comment="kpoint 2">
       <r>   -9.1226    1.0000 </r>
       <r>   -9.0870    1.0000 </r>
       <r>   -8.8774    1.0000 </r>
       <r>   -8.4279    1.0000 </r>
       <r>   -8.4118    1.0000 </r>
       <r>   -8.2757    1.0000 </r>
       <r>   -7.9276    1.0000 </r>
       <r>   -7.8124    1.0000 </r>
       <r>   -7.5494    1.0000 </r>
       <r>   -7.3487    1.0000 </r>
       <r>   -7.1950    1.0000 </r>
       <r>   -7.1377    1.0000 </r>
       <r>   -7.0744    1.0000 </r>
       <r>   -7.0100    1.0000 </r>
       <r>   -6.9181    1.0000 </r>
       <r>   -6.9143    1.0000 </r>
       <r>   -6.7807    1.0000 </r>
       <r>   -6.7147    1.0000 </r>
       <r>   -6.6723    1.0000 </r>
       <r>   -6.5301    1.0000 </r>
       <r>   -6.4742    1.0000 </r>
       <r>   -6.3927    1.0000 </r>
       <r>   -6.2864    1.0000 </r>
       <r>   -6.2564    1.0000 </r>
       <r>   -6.1639    1.0000 </r>
       <r>   -6.1577    1.0000 </r>
       <r>   -6.1103    1.0000 </r>
       <r>   -5.9819    1.0000 </r>
       <r>   -5.9349    1.0000 </r>
       <r>   -5.8152    1.0000 </r>
       <r>   -5.7857    1.0000 </r>
       <r>   -5.7436    1.0000 </r>
       <r>   -5.6971    1.0000 </r>
       <r>   -5.5925    1.0000 </r>
       <r>   -5.5424    1.0000 </r>
       <r>   -5.4959    1.0000 </r>
       <r>   -5.4588    1.0000 </r>
       <r>   -5.3670    1.0000 </r>
       <r>   -5.3216    1.0000 </r>
       <r>   -5.3113    1.0000 </r>
       <r>   -5.2680    1.0000 </r>
       <r>   -5.1150    1.0000 </r>
       <r>   -5.0796    1.0000 </r>
       <r>   -4.9817    1.0000 </r>
       <r>   -4.9392    1.0000 </r>
       <r>   -4.8583    1.0000 </r>
       <r>   -4.8084    1.0000 </r>
       <r>   -4.7587    1.0000 </r>
       <r>   -4.5255    1.0000 </r>
       <r>   -4.4180    1.0000 </r>
       <r>   -4.3348    1.0000 </r>
       <r>   -4.2328    1.0000 </r>
       <r>   -4.1727    1.0000 </r>
       <r>   -4.0625    1.0000 </r>
       <r>   -3.9655    1.0000 </r>
       <r>   -3.9473    1.0000 </r>
       <r>   -3.8468    1.0000 </r>
       <r>   -3.7871    1.0000 </r>
       <r>   -3.7410    1.0000 </r>
       <r>   -3.6578    1.0000 </r>
       <r>   -3.5188    1.0000 </r>
       <r>   -3.4112    1.0000 </r>
       <r>   -3.2974    1.0000 </r>
       <r>   -3.1906    1.0000 </r>
       <r>   -3.1553    1.0000 </r>
       <r>   -3.0998    1.0000 </r>
       <r>   -3.0135    1.0000 </r>
       <r>   -2.8855    1.0000 </r>
       <r>   -2.8133    1.0000 </r>
       <r>   -2.7056    1.0000 </r>
       <r>   -2.6814    1.0000 </r>
       <r>   -2.6188    1.0000 </r>
       <r>   -2.5769    1.0000 </r>
       <r>   -2.4471    1.0000 </r>
       <r>   -2.3363    1.0000 </r>
       <r>   -2.3001    1.0000 </r>
       <r>   -2.1814    1.0000 </r>
       <r>   -2.1045    1.0000 </r>
       <r>   -1.9560    1.0000 </r>
       <r>   -1.8830    1.0000 </r>
       <r>   -1.7924    1.0000 </r>
       <r>   -1.7507    1.0000 </r>
       <r>   -1.6449    1.0000 </r>
       <r>   -1.6335    1.0000 </r>
       <r>   -1.5207    1.0000 </r>
       <r>   -1.3670    1.0000 </r>
       <r>   -1.2716    1.0000 </r>
       <r>   -1.1984    1.0000 </r>
       <r>   -1.1386    1.0000 </r>
       <r>   -1.1249    1.0000 </r>
       <r>   -1.0529    1.0000 </r>
       <r>   -0.9226    1.0000 </r>
       <r>   -0.8844    1.0000 </r>
       <r>   -0.8755    1.0000 </r>
       <r>   -0.7665    1.0000 </r>
       <r>   -0.6728    1.0000 </r>
       <r>   -0.6469    1.0000 </r>
       <r>   -0.6056    1.0000 </r>
       <r>   -0.5694    1.0000 </r>
       <r>   -0.5017    1.0000 </r>
       <r>   -0.4547    1.0000 </r>
       <r>   -0.3713    1.0000 </r>
       <r>   -0.2871    1.0000 </r>
       <r>   -0.1017    1.0000 </r>
       <r>    0.0924    1.0000 </r>
       <r>    0.1632    1.0000 </r>
       <r>    0.2431    1.0000 </r>
       <r>    0.3513    1.0000 </r>
       <r>    0.5293    1.0000 </r>
       <r>    0.5870    1.0000 </r>
       <r>    0.7779    1.0000 </r>
       <r>    0.7924    1.0000 </r>
       <r>    0.8323    1.0000 </r>
       <r>    0.9585    1.0000 </r>
       <r>    1.0313    1.0000 </r>
       <r>    1.0519    1.0000 </r>
       <r>    1.1621    1.0000 </r>
       <r>    1.1666    1.0000 </r>
       <r>    1.2377    1.0000 </r>
       <r>    1.2678    1.0000 </r>
       <r>    1.3065    1.0000 </r>
       <r>    1.3432    1.0000 </r>
       <r>    1.4071    1.0000 </r>
       <r>    1.4884    1.0000 </r>
       <r>    1.5455    1.0000 </r>
       <r>    1.5904    1.0000 </r>
       <r>    1.6229    1.0000 </r>
       <r>    1.6350    1.0000 </r>
       <r>    1.6579    1.0000 </r>
       <r>    1.7500    1.0000 </r>
       <r>    1.7771    1.0000 </r>
       <r>    1.8247    1.0000 </r>
       <r>    1.8987    1.0000 </r>
       <r>    1.9296    1.0000 </r>
       <r>    1.9921    1.0000 </r>
       <r>    2.0225    1.0000 </r>
       <r>    2.0473    1.0000 </r>
       <r>    2.0773    1.0000 </r>
       <r>    2.1255    1.0000 </r>
       <r>    2.1396    1.0000 </r>
       <r>    2.1692    1.0000 </r>
       <r>    2.1889    1.0000 </r>
       <r>    2.2382    1.0000 </r>
       <r>    2.2692    1.0000 </r>
       <r>    2.3108    1.0000 </r>
       <r>    2.3431    1.0000 </r>
       <r>    2.4123    1.0000 </r>
       <r>    2.4396    1.0000 </r>
       <r>    2.4720    1.0000 </r>
       <r>    2.5221    1.0000 </r>
       <r>    2.5426    1.0000 </r>
       <r>    2.6154    1.0000 </r>
       <r>    2.6471    1.0000 </r>
       <r>    2.6791    1.0000 </r>
       <r>    2.7116    1.0000 </r>
       <r>    2.7659    1.0000 </r>
       <r>    2.7866    1.0000 </r>
       <r>    2.8362    1.0000 </r>
       <r>    2.9469    1.0000 </r>
       <r>    2.9628    1.0000 </r>
       <r>    2.9950    1.0000 </r>
       <r>    3.0681    1.0000 </r>
       <r>    3.0913    1.0000 </r>
       <r>    3.1454    1.0000 </r>
       <r>    3.2602    1.0000 </r>
       <r>    3.3051    1.0000 </r>
       <r>    3.3501    1.0000 </r>
       <r>    3.3884    1.0000 </r>
       <r>    3.4308    1.0000 </r>
       <r>    3.4558    1.0000 </r>
       <r>    3.5354    1.0000 </r>
       <r>    3.5766    1.0000 </r>
       <r>    3.6323    1.0000 </r>
       <r>    3.7281    1.0000 </r>
       <r>    3.7735    1.0000 </r>
       <r>    3.8122    1.0000 </r>
       <r>    3.9308    1.0000 </r>
       <r>    3.9749    1.0000 </r>
       <r>    4.0214    1.0000 </r>
       <r>    4.0627    1.0000 </r>
       <r>    4.1024    1.0000 </r>
       <r>    4.1150    1.0000 </r>
       <r>    4.1947    1.0000 </r>
       <r>    4.2308    1.0000 </r>
       <r>    4.2792    1.0000 </r>
       <r>    4.3263    1.0000 </r>
       <r>    4.3461    1.0000 </r>
       <r>    4.4042    1.0000 </r>
       <r>    4.4622    1.0000 </r>
       <r>    4.6154    1.0000 </r>
       <r>    4.6302    1.0000 </r>
       <r>    4.6680    1.0000 </r>
       <r>    4.7267    0.0000 </r>
       <r>    4.8328    0.0000 </r>
       <r>    4.8965    0.0000 </r>
       <r>    4.9198    0.0000 </r>
       <r>    4.9451    0.0000 </r>
       <r>    5.0191    0.0000 </r>
       <r>    5.0865    0.0000 </r>
       <r>    5.1485    0.0000 </r>
       <r>    5.1596    0.0000 </r>
       <r>    5.1869    0.0000 </r>
       <r>    5.2914    0.0000 </r>
       <r>    5.3357    0.0000 </r>
       <r>    5.3808    0.0000 </r>
       <r>    5.4773    0.0000 </r>
       <r>    5.5065    0.0000 </r>
       <r>    5.5601    0.0000 </r>
       <r>    5.6577    0.0000 </r>
       <r>    5.7385    0.0000 </r>
       <r>    5.8127    0.0000 </r>
       <r>    5.8582    0.0000 </r>
       <r>    5.9207    0.0000 </r>
       <r>    5.9600    0.0000 </r>
       <r>    5.9751    0.0000 </r>
       <r>    6.1067    0.0000 </r>
       <r>    6.1326    0.0000 </r>
       <r>    6.1727    0.0000 </r>
       <r>    6.2304    0.0000 </r>
       <r>    6.3009    0.0000 </r>
       <r>    6.3206    0.0000 </r>
       <r>    6.3501    0.0000 </r>
       <r>    6.4481    0.0000 </r>
       <r>    6.4875    0.0000 </r>
       <r>    6.5776    0.0000 </r>
       <r>    6.5915    0.0000 </r>
       <r>    6.6551    0.0000 </r>
       <r>    6.6771    0.0000 </r>
       <r>    6.7022    0.0000 </r>
       <r>    6.8184    0.0000 </r>
       <r>    6.8342    0.0000 </r>
       <r>    6.8692    0.0000 </r>
      </set>
      <set comment="kpoint 3">
       <r>   -9.1226    1.0000 </r>
       <r>   -9.0869    1.0000 </r>
       <r>   -8.8774    1.0000 </r>
       <r>   -8.4280    1.0000 </r>
       <r>   -8.4116    1.0000 </r>
       <r>   -8.2761    1.0000 </r>
       <r>   -7.9447    1.0000 </r>
       <r>   -7.7797    1.0000 </r>
       <r>   -7.5510    1.0000 </r>
       <r>   -7.3668    1.0000 </r>
       <r>   -7.2224    1.0000 </r>
       <r>   -7.1349    1.0000 </r>
       <r>   -7.0573    1.0000 </r>
       <r>   -7.0115    1.0000 </r>
       <r>   -6.9191    1.0000 </r>
       <r>   -6.9122    1.0000 </r>
       <r>   -6.7735    1.0000 </r>
       <r>   -6.7011    1.0000 </r>
       <r>   -6.6201    1.0000 </r>
       <r>   -6.5678    1.0000 </r>
       <r>   -6.4984    1.0000 </r>
       <r>   -6.3984    1.0000 </r>
       <r>   -6.2784    1.0000 </r>
       <r>   -6.2379    1.0000 </r>
       <r>   -6.2085    1.0000 </r>
       <r>   -6.1681    1.0000 </r>
       <r>   -6.0944    1.0000 </r>
       <r>   -6.0069    1.0000 </r>
       <r>   -5.8915    1.0000 </r>
       <r>   -5.7967    1.0000 </r>
       <r>   -5.7590    1.0000 </r>
       <r>   -5.7311    1.0000 </r>
       <r>   -5.6942    1.0000 </r>
       <r>   -5.5962    1.0000 </r>
       <r>   -5.5875    1.0000 </r>
       <r>   -5.4823    1.0000 </r>
       <r>   -5.4386    1.0000 </r>
       <r>   -5.4319    1.0000 </r>
       <r>   -5.3241    1.0000 </r>
       <r>   -5.3119    1.0000 </r>
       <r>   -5.2822    1.0000 </r>
       <r>   -5.1022    1.0000 </r>
       <r>   -5.0722    1.0000 </r>
       <r>   -5.0224    1.0000 </r>
       <r>   -4.8804    1.0000 </r>
       <r>   -4.8405    1.0000 </r>
       <r>   -4.8077    1.0000 </r>
       <r>   -4.7684    1.0000 </r>
       <r>   -4.5409    1.0000 </r>
       <r>   -4.3882    1.0000 </r>
       <r>   -4.3424    1.0000 </r>
       <r>   -4.2472    1.0000 </r>
       <r>   -4.1768    1.0000 </r>
       <r>   -4.1003    1.0000 </r>
       <r>   -3.9733    1.0000 </r>
       <r>   -3.9040    1.0000 </r>
       <r>   -3.8516    1.0000 </r>
       <r>   -3.7942    1.0000 </r>
[...]
       <r>    -8.1846     0.0497    11.0000 </r>
       <r>    -8.1252     0.0000    11.0000 </r>
       <r>    -8.0657     0.0021    11.0001 </r>
       <r>    -8.0063    16.8167    11.9992 </r>
       <r>    -7.9469     8.0930    12.4808 </r>
       <r>    -7.8875    23.2185    13.8602 </r>
       <r>    -7.8281    10.3684    14.4763 </r>
       <r>    -7.7687     7.7714    14.9380 </r>
       <r>    -7.7093     4.2771    15.1921 </r>
       <r>    -7.6499     5.1528    15.4982 </r>
       <r>    -7.5905     3.5466    15.7089 </r>
       <r>    -7.5310    11.1037    16.3686 </r>
       <r>    -7.4716    16.0976    17.3250 </r>
       <r>    -7.4122    19.1466    18.4625 </r>
       <r>    -7.3528    21.8809    19.7625 </r>
       <r>    -7.2934    18.3529    20.8528 </r>
       <r>    -7.2340    22.3127    22.1785 </r>
       <r>    -7.1746    21.6112    23.4627 </r>
       <r>    -7.1152    24.9267    24.9436 </r>
       <r>    -7.0558    14.0981    25.7813 </r>
       <r>    -6.9964    20.2816    26.9862 </r>
       <r>    -6.9369    15.8808    27.9298 </r>
       <r>    -6.8775    38.8827    30.2402 </r>
       <r>    -6.8181    22.1849    31.5585 </r>
       <r>    -6.7587    25.9397    33.0998 </r>
       <r>    -6.6993    26.4058    34.6687 </r>
       <r>    -6.6399    27.5451    36.3052 </r>
       <r>    -6.5805    25.2117    37.8031 </r>
       <r>    -6.5211    20.7369    39.0351 </r>
       <r>    -6.4617    33.7596    41.0411 </r>
       <r>    -6.4022    25.6398    42.5645 </r>
       <r>    -6.3428    21.6006    43.8480 </r>
       <r>    -6.2834    15.5590    44.7724 </r>
       <r>    -6.2240    32.6202    46.7104 </r>
       <r>    -6.1646    30.5539    48.5257 </r>
       <r>    -6.1052    43.0176    51.0815 </r>
       <r>    -6.0458    37.6018    53.3156 </r>
       <r>    -5.9864    36.4299    55.4801 </r>
       <r>    -5.9270    34.2972    57.5177 </r>
       <r>    -5.8676    26.0113    59.0631 </r>
       <r>    -5.8081    32.8043    61.0121 </r>
       <r>    -5.7487    30.9940    62.8536 </r>
       <r>    -5.6893    32.9427    64.8108 </r>
       <r>    -5.6299    29.8264    66.5829 </r>
       <r>    -5.5705    27.2577    68.2023 </r>
       <r>    -5.5111    30.7752    70.0307 </r>
       <r>    -5.4517    30.6425    71.8515 </r>
       <r>    -5.3923    42.8575    74.3977 </r>
       <r>    -5.3329    36.1710    76.5467 </r>
       <r>    -5.2735    58.2438    80.0071 </r>
       <r>    -5.2140    31.7144    81.8918 </r>
       <r>    -5.1546    23.6134    83.2947 </r>
       <r>    -5.0952    24.3395    84.7408 </r>
       <r>    -5.0358    24.7185    86.2093 </r>
       <r>    -4.9764    30.1565    88.0010 </r>
       <r>    -4.9170    34.5800    90.0556 </r>
       <r>    -4.8576    21.7032    91.3450 </r>
       <r>    -4.7982    18.3563    92.4357 </r>
       <r>    -4.7388    17.8597    93.4968 </r>
       <r>    -4.6793    14.9480    94.3850 </r>
       <r>    -4.6199    21.6771    95.6728 </r>
       <r>    -4.5605    11.2487    96.3412 </r>
       <r>    -4.5011    22.1054    97.6545 </r>
       <r>    -4.4417     6.7359    98.0547 </r>
       <r>    -4.3823    16.0764    99.0098 </r>
       <r>    -4.3229    29.6841   100.7734 </r>
       <r>    -4.2635    25.3642   102.2803 </r>
       <r>    -4.2041    16.9710   103.2886 </r>
       <r>    -4.1447    27.1939   104.9042 </r>
       <r>    -4.0852    23.9893   106.3295 </r>
       <r>    -4.0258    17.7087   107.3816 </r>
       <r>    -3.9664    29.3556   109.1259 </r>
       <r>    -3.9070    30.1171   110.9152 </r>
       <r>    -3.8476    35.1095   113.0010 </r>
       <r>    -3.7882    18.1943   114.0821 </r>
       <r>    -3.7288    27.8047   115.7340 </r>
       <r>    -3.6694    27.4203   117.3632 </r>
       <r>    -3.6100    28.9897   119.0856 </r>
       <r>    -3.5505    16.3592   120.0575 </r>
       <r>    -3.4911    25.2702   121.5588 </r>
       <r>    -3.4317    18.5539   122.6612 </r>
       <r>    -3.3723    15.4952   123.5818 </r>
       <r>    -3.3129    20.4559   124.7971 </r>
       <r>    -3.2535    25.5537   126.3153 </r>
       <r>    -3.1941    23.7634   127.7271 </r>
       <r>    -3.1347    26.9334   129.3274 </r>
       <r>    -3.0753    29.1936   131.0621 </r>
       <r>    -3.0159    27.1971   132.6780 </r>
       <r>    -2.9564    31.1960   134.5315 </r>
       <r>    -2.8970     8.3559   135.0283 </r>
       <r>    -2.8376    32.4026   136.9534 </r>
       <r>    -2.7782    16.0156   137.9050 </r>
       <r>    -2.7188    26.2853   139.4666 </r>
       <r>    -2.6594    28.6266   141.1673 </r>
       <r>    -2.6000    27.0824   142.7764 </r>
       <r>    -2.5406    27.9743   144.4384 </r>
       <r>    -2.4812    18.8376   145.5576 </r>
       <r>    -2.4217    25.9526   147.0995 </r>
       <r>    -2.3623    21.4823   148.3758 </r>
       <r>    -2.3029    27.8086   150.0281 </r>
       <r>    -2.2435    16.3805   151.0014 </r>
       <r>    -2.1841    19.9962   152.1894 </r>
       <r>    -2.1247    20.9681   153.4352 </r>
       <r>    -2.0653    22.3397   154.7624 </r>
       <r>    -2.0059    21.3244   156.0293 </r>
       <r>    -1.9465    24.2024   157.4673 </r>
       <r>    -1.8871    27.2736   159.0878 </r>
       <r>    -1.8276    21.2038   160.3475 </r>
       <r>    -1.7682    22.9070   161.7087 </r>
       <r>    -1.7088    23.3106   163.0936 </r>
       <r>    -1.6494    23.6380   164.4979 </r>
       <r>    -1.5900    21.2233   165.7589 </r>
       <r>    -1.5306    32.8781   167.7122 </r>
       <r>    -1.4712    34.5252   169.7636 </r>
       <r>    -1.4118    24.0167   171.1905 </r>
       <r>    -1.3524    17.6937   172.2417 </r>
       <r>    -1.2930    33.7803   174.2486 </r>
       <r>    -1.2335    20.4256   175.4623 </r>
       <r>    -1.1741    35.1317   177.5495 </r>
       <r>    -1.1147    34.8459   179.6197 </r>
       <r>    -1.0553    41.2004   182.0675 </r>
       <r>    -0.9959    27.9557   183.7287 </r>
       <r>    -0.9365    16.2803   184.6961 </r>
       <r>    -0.8771    32.9646   186.6545 </r>
       <r>    -0.8177    27.4727   188.2868 </r>
       <r>    -0.7583    33.5211   190.2783 </r>
       <r>    -0.6988    22.8131   191.6337 </r>
       <r>    -0.6394    30.1659   193.4260 </r>
       <r>    -0.5800    30.8789   195.2608 </r>
       <r>    -0.5206    35.5493   197.3729 </r>
       <r>    -0.4612    22.9992   198.7394 </r>
       <r>    -0.4018    27.2201   200.3565 </r>
       <r>    -0.3424    14.9424   201.2443 </r>
       <r>    -0.2830    18.4128   202.3382 </r>
       <r>    -0.2236    19.9621   203.5242 </r>
       <r>    -0.1642    25.6524   205.0483 </r>
       <r>    -0.1047    12.7828   205.8077 </r>
       <r>    -0.0453    15.0532   206.7020 </r>
       <r>     0.0141    19.5145   207.8614 </r>
       <r>     0.0735    20.5767   209.0840 </r>
       <r>     0.1329    18.5361   210.1853 </r>
       <r>     0.1923    16.9559   211.1927 </r>
       <r>     0.2517    15.8896   212.1367 </r>
       <r>     0.3111    18.4612   213.2335 </r>
       <r>     0.3705    19.2538   214.3774 </r>
       <r>     0.4300    14.0658   215.2132 </r>
       <r>     0.4894    15.0910   216.1097 </r>
       <r>     0.5488    17.7226   217.1627 </r>
       <r>     0.6082    19.1450   218.3002 </r>
       <r>     0.6676    22.0954   219.6129 </r>
       <r>     0.7270    19.4576   220.7688 </r>
       <r>     0.7864    28.4599   222.4597 </r>
       <r>     0.8458    40.9889   224.8950 </r>
       <r>     0.9052    27.5372   226.5313 </r>
       <r>     0.9646    36.5643   228.7038 </r>
       <r>     1.0241    23.9123   230.1246 </r>
       <r>     1.0835    32.7831   232.0723 </r>
       <r>     1.1429    37.9954   234.3300 </r>
       <r>     1.2023    46.5169   237.0937 </r>
       <r>     1.2617    37.7956   239.3394 </r>
       <r>     1.3211    38.5982   241.6327 </r>
       <r>     1.3805    36.5106   243.8018 </r>
       <r>     1.4399    44.9982   246.4756 </r>
       <r>     1.4993    42.4987   249.0007 </r>
       <r>     1.5587    32.9974   250.9615 </r>
       <r>     1.6182    45.0286   253.6367 </r>
       <r>     1.6776    46.0347   256.3717 </r>
       <r>     1.7370    49.7600   259.3281 </r>
       <r>     1.7964    46.7686   262.1067 </r>
       <r>     1.8558    40.5087   264.5135 </r>
       <r>     1.9152    50.3837   267.5069 </r>
       <r>     1.9746    55.8443   270.8247 </r>
       <r>     2.0340    55.6618   274.1318 </r>
       <r>     2.0934    49.0280   277.0447 </r>
       <r>     2.1529    38.1313   279.3103 </r>
       <r>     2.2123    40.6215   281.7237 </r>
       <r>     2.2717    52.9387   284.8689 </r>
       <r>     2.3311    45.8767   287.5945 </r>
       <r>     2.3905    39.6904   289.9526 </r>
       <r>     2.4499    53.1453   293.1101 </r>
       <r>     2.5093    45.5750   295.8178 </r>
       <r>     2.5687    52.6155   298.9438 </r>
       <r>     2.6281    47.8636   301.7876 </r>
       <r>     2.6875    38.3962   304.0690 </r>
       <r>     2.7470    41.6916   306.5460 </r>
       <r>     2.8064    45.6372   309.2575 </r>
       <r>     2.8658    37.4161   311.4806 </r>
       <r>     2.9252    39.6748   313.8378 </r>
       <r>     2.9846    51.4668   316.8954 </r>
       <r>     3.0440    40.4919   319.3012 </r>
       <r>     3.1034    47.2369   322.1077 </r>
       <r>     3.1628    39.7137   324.4672 </r>
       <r>     3.2222    35.8170   326.5953 </r>
       <r>     3.2817    38.6066   328.8890 </r>
       <r>     3.3411    43.6630   331.4831 </r>
       <r>     3.4005    48.2468   334.3496 </r>
       <r>     3.4599    42.3742   336.8671 </r>
       <r>     3.5193    43.9356   339.4774 </r>
       <r>     3.5787    41.4587   341.9407 </r>
       <r>     3.6381    42.6313   344.4736 </r>
       <r>     3.6975    40.4315   346.8757 </r>
       <r>     3.7569    29.4925   348.6280 </r>
       <r>     3.8163    36.6338   350.8044 </r>
       <r>     3.8758    41.7706   353.2861 </r>
       <r>     3.9352    36.1213   355.4324 </r>
       <r>     3.9946    39.6406   357.7875 </r>
       <r>     4.0540    41.9221   360.2785 </r>
       <r>     4.1134    33.9292   362.2944 </r>
       <r>     4.1728    52.9204   365.4384 </r>
       <r>     4.2322    37.5212   367.6678 </r>
       <r>     4.2916    33.4803   369.6569 </r>
       <r>     4.3510    37.3055   371.8733 </r>
       <r>     4.4105    38.2934   374.1483 </r>
       <r>     4.4699    35.4750   376.2560 </r>
       <r>     4.5293    36.2758   378.4113 </r>
       <r>     4.5887    32.9637   380.3698 </r>
       <r>     4.6481    40.1188   382.7533 </r>
       <r>     4.7075    31.8721   384.6469 </r>
       <r>     4.7669    33.3932   386.6310 </r>
       <r>     4.8263    27.9308   388.2904 </r>
       <r>     4.8857    39.5628   390.6410 </r>
       <r>     4.9451    40.6738   393.0575 </r>
       <r>     5.0046    36.1458   395.2051 </r>
       <r>     5.0640    44.1957   397.8308 </r>
       <r>     5.1234    32.0312   399.7341 </r>
       <r>     5.1828    40.9539   402.1673 </r>
       <r>     5.2422    33.7761   404.1741 </r>
       <r>     5.3016    29.5605   405.9305 </r>
       <r>     5.3610    27.7163   407.5773 </r>
       <r>     5.4204    27.4685   409.2093 </r>
       <r>     5.4798    36.6110   411.3844 </r>
       <r>     5.5392    43.3150   413.9578 </r>
       <r>     5.5987    29.6556   415.7197 </r>
       <r>     5.6581    31.9797   417.6197 </r>
       <r>     5.7175    34.2475   419.6544 </r>
       <r>     5.7769    33.4732   421.6433 </r>
       <r>     5.8363    28.6426   423.3451 </r>
       <r>     5.8957    33.8667   425.3571 </r>
       <r>     5.9551    28.8866   427.0734 </r>
       <r>     6.0145    40.6640   429.4896 </r>
       <r>     6.0739    31.2033   431.3435 </r>
       <r>     6.1334    41.4049   433.8034 </r>
       <r>     6.1928    46.9514   436.5929 </r>
       <r>     6.2522    43.4228   439.1726 </r>
       <r>     6.3116    44.7351   441.8306 </r>
       <r>     6.3710    46.0617   444.5672 </r>
       <r>     6.4304    41.9861   447.0618 </r>
       <r>     6.4898    39.5651   449.4125 </r>
       <r>     6.5492    41.5117   451.8788 </r>
       <r>     6.6086    43.2642   454.4492 </r>
       <r>     6.6680    26.1238   456.0015 </r>
       <r>     6.7275    36.4015   458.1641 </r>
       <r>     6.7869    30.3389   459.9666 </r>
       <r>     6.8463    34.6143   462.0230 </r>
       <r>     6.9057    14.7927   462.9021 </r>
       <r>     6.9651    15.3429   463.8137 </r>
       <r>     7.0245     3.1358   464.0000 </r>
       <r>     7.0839     0.0000   464.0000 </r>
       <r>     7.1433     0.0000   464.0000 </r>
       <r>     7.2027     0.0000   464.0000 </r>
       <r>     7.2622     0.0000   464.0000 </r>
       <r>     7.3216     0.0000   464.0000 </r>
       <r>     7.3810     0.0000   464.0000 </r>
       <r>     7.4404     0.0000   464.0000 </r>
       <r>     7.4998     0.0000   464.0000 </r>
       <r>     7.5592     0.0000   464.0000 </r>
       <r>     7.6186     0.0000   464.0000 </r>
       <r>     7.6780     0.0000   464.0000 </r>
       <r>     7.7374     0.0000   464.0000 </r>
       <r>     7.7968     0.0000   464.0000 </r>
      </set>
     </set>
    </array>
   </total>
  </dos>
 </calculation>
 <structure name="finalpos" >
  <crystal>
   <varray name="basis" >
    <v>      17.89153480       0.00000000       0.00000000 </v>
    <v>     -16.10238075       7.79873943       0.00000000 </v>
    <v>       0.00000028      -0.00000006      13.82883549 </v>
   </varray>
   <i name="volume">   1929.55702480 </i>
   <varray name="rec_basis" >
    <v>       0.05589235       0.11540326      -0.00000000 </v>
    <v>       0.00000000       0.12822585       0.00000000 </v>
    <v>       0.00000000       0.00000000       0.07231267 </v>
   </varray>
  </crystal>
  <varray name="positions" >
   <v>       0.81228745       0.18771255       0.46930525 </v>
   <v>       0.02281332       0.97718668       0.00000001 </v>
   <v>       0.18070815       0.81929183       0.09386106 </v>
   <v>       0.33860299       0.66139698       0.18772212 </v>
   <v>       0.49649781       0.50350219       0.28158316 </v>
   <v>       0.65439260       0.34560740       0.37544423 </v>
   <v>       0.10176122       0.89823884       0.49277046 </v>
   <v>       0.31228706       0.68771291       0.02346529 </v>
   <v>       0.47018188       0.52981806       0.11732632 </v>
   <v>       0.62807673       0.37192327       0.21118741 </v>
   <v>       0.78597158       0.21402840       0.30504847 </v>
   <v>       0.94386643       0.05613355       0.39890954 </v>
   <v>       0.31228733       0.68771261       0.46930522 </v>
   <v>       0.52281326       0.47718665       0.00000000 </v>
   <v>       0.68070811       0.31929183       0.09386105 </v>
   <v>       0.83860296       0.16139701       0.18772209 </v>
   <v>       0.99649781       0.00350215       0.28158313 </v>
   <v>       0.15439260       0.84560740       0.37544423 </v>
   <v>       0.65439266       0.84560734       0.37544423 </v>
   <v>       0.81228709       0.18771291       0.02346546 </v>
   <v>       0.97018182       0.02981813       0.11732645 </v>
   <v>       0.12807667       0.87192327       0.21118759 </v>
   <v>       0.28597152       0.71402836       0.30504861 </v>
   <v>       0.44386637       0.55613363       0.39890966 </v>
   <v>       0.12807691       0.37192324       0.21118751 </v>
   <v>       0.52281326       0.97718668       0.00000001 </v>
   <v>       0.68070811       0.81929189       0.09386105 </v>
   <v>       0.83860296       0.66139704       0.18772209 </v>
   <v>       0.99649775       0.50350225       0.28158313 </v>
   <v>       0.18573475       0.73561359       0.49999994 </v>
   <v>       0.49649784       0.00350219       0.28158313 </v>
   <v>       0.81228727       0.68771285       0.02346543 </v>
   <v>       0.97018212       0.52981806       0.11732648 </v>
   <v>       0.31228745       0.18771249       0.46930528 </v>
   <v>       0.84362942       0.07771873       0.59386104 </v>
   <v>       0.00152421       0.91982394       0.68772209 </v>
   <v>       0.81228751       0.68771249       0.46930525 </v>
   <v>       0.02281339       0.47718665       0.00000001 </v>
   <v>       0.18070820       0.31929183       0.09386104 </v>
   <v>       0.33860305       0.16139698       0.18772212 </v>
   <v>       0.60176146       0.89823872       0.49277064 </v>
   <v>       0.65941906       0.26192909       0.78158313 </v>
   <v>       0.94386637       0.55613351       0.39890966 </v>
   <v>       0.31228706       0.18771288       0.02346545 </v>
   <v>       0.47018188       0.02981809       0.11732648 </v>
   <v>       0.63310319       0.28824502       0.61732644 </v>
   <v>       0.78597152       0.71402842       0.30504861 </v>
   <v>       0.10176122       0.39823878       0.49277067 </v>
   <v>       0.97520858       0.44613951       0.96930522 </v>
   <v>       0.18573467       0.23561359       0.49999994 </v>
   <v>       0.34362948       0.07771873       0.59386104 </v>
   <v>       0.50152427       0.91982394       0.68772209 </v>
   <v>       0.65941900       0.76192909       0.78158313 </v>
   <v>       0.81731385       0.60403425       0.87544423 </v>
   <v>       0.26468235       0.15666580       0.99277061 </v>
   <v>       0.47520840       0.94613987       0.52346528 </v>
   <v>       0.63310319       0.78824508       0.61732626 </v>
   <v>       0.79099798       0.63035017       0.71118736 </v>
   <v>       0.94889283       0.47245532       0.80504847 </v>
   <v>       0.10678756       0.31456047       0.89890951 </v>
   <v>       0.47520846       0.94613951       0.96930522 </v>
   <v>       0.63310319       0.28824502       0.61732644 </v>
   <v>       0.84362942       0.57771879       0.59386092 </v>
   <v>       0.00152421       0.41982392       0.68772209 </v>
   <v>       0.15941894       0.26192909       0.78158313 </v>
   <v>       0.31731373       0.10403419       0.87544411 </v>
   <v>       0.76468235       0.65666568       0.99277073 </v>
   <v>       0.97520840       0.44613990       0.52346540 </v>
   <v>       0.13310313       0.28824505       0.61732644 </v>
   <v>       0.29099804       0.13035023       0.71118742 </v>
   <v>       0.44889277       0.97245538       0.80504859 </v>
   <v>       0.60678762       0.81456047       0.89890963 </v>
   <v>       0.97520864       0.94613940       0.96930510 </v>
   <v>       0.34362951       0.57771873       0.59386092 </v>
   <v>       0.18573475       0.73561359       0.49999994 </v>
   <v>       0.50152433       0.41982388       0.68772209 </v>
   <v>       0.65439266       0.84560734       0.37544423 </v>
   <v>       0.81731391       0.10403419       0.87544423 </v>
   <v>       0.26468235       0.65666562       0.99277073 </v>
   <v>       0.47520840       0.44613984       0.52346540 </v>
   <v>       0.62807673       0.87192327       0.21118756 </v>
   <v>       0.68573463       0.23561359       0.49999994 </v>
   <v>       0.94889277       0.97245538       0.80504852 </v>
   <v>       0.10678756       0.81456047       0.89890963 </v>
   <v>       0.47520858       0.44613946       0.96930510 </v>
   <v>       0.79099798       0.13035011       0.71118748 </v>
   <v>       0.28597176       0.21402839       0.30504861 </v>
   <v>       0.44386673       0.05613352       0.39890963 </v>
   <v>       0.97520870       0.94613981       0.52346540 </v>
   <v>       0.31731373       0.60403430       0.87544411 </v>
   <v>       0.76468259       0.15666556       0.99277073 </v>
   <v>       0.15941894       0.76192921       0.78158313 </v>
   <v>       0.10176122       0.39823878       0.49277067 </v>
   <v>       0.29099828       0.63035011       0.71118742 </v>
   <v>       0.44889301       0.47245532       0.80504852 </v>
   <v>       0.60678786       0.31456041       0.89890963 </v>
  </varray>
 </structure>
</modeling>
