 264 264   0   0
  0.2774202E+02  0.1958175E-08  0.1958175E-08  0.1910025E-08  0.5000000E-15
  1.000000000000000E-004
  CAR 
 Si and Ge interface calculation         
      6.68681786     -8.43977666  301      4.08077431      1.00000000
     -8.440  0.0000E+00  0.0000E+00  0.0000E+00  0.0000E+00
     -8.389  0.0000E+00  0.0000E+00  0.0000E+00  0.0000E+00
     -8.339  0.0000E+00  0.0000E+00  0.0000E+00  0.0000E+00
     -8.289  0.0000E+00  0.0000E+00  0.0000E+00  0.0000E+00
     -8.238  0.0000E+00  0.0000E+00  0.0000E+00  0.0000E+00
     -8.188  0.0000E+00  0.0000E+00  0.0000E+00  0.0000E+00
     -8.137  0.0000E+00  0.0000E+00  0.0000E+00  0.0000E+00
     -8.087  0.0000E+00  0.0000E+00  0.0000E+00  0.0000E+00
     -8.036  0.0000E+00  0.0000E+00  0.0000E+00  0.0000E+00
     -7.986  0.0000E+00  0.0000E+00  0.0000E+00  0.0000E+00
     -7.936  0.0000E+00  0.0000E+00  0.0000E+00  0.0000E+00
     -7.885  0.0000E+00  0.0000E+00  0.0000E+00  0.0000E+00
     -7.835  0.0000E+00  0.0000E+00  0.0000E+00  0.0000E+00
     -7.784  0.2555E-04  0.5532E-05  0.1289E-05  0.2790E-06
     -7.734  0.9866E+01  0.9798E+01  0.4975E+00  0.4940E+00
     -7.683  0.1629E+01  0.8967E+00  0.5796E+00  0.5392E+00
     -7.633  0.3809E+02  0.3889E+02  0.2500E+01  0.2500E+01
     -7.583  0.3147E+02  0.2835E+02  0.4087E+01  0.3929E+01
     -7.532  0.8192E+01  0.1132E+02  0.4500E+01  0.4500E+01
     -7.482  0.9047E-08  0.1065E-08  0.4500E+01  0.4500E+01
     -7.431  0.1881E+02  0.1612E+02  0.5449E+01  0.5313E+01
     -7.381  0.2086E+02  0.2354E+02  0.6500E+01  0.6500E+01
     -7.330  0.7889E+02  0.7838E+02  0.1048E+02  0.1045E+02
     -7.280  0.4336E+00  0.9507E+00  0.1050E+02  0.1050E+02
     -7.230  0.0000E+00  0.0000E+00  0.1050E+02  0.1050E+02
     -7.179  0.1423E-08  0.2244E-09  0.1050E+02  0.1050E+02
     -7.129  0.8309E+01  0.7238E+01  0.1092E+02  0.1086E+02
     -7.078  0.3113E+02  0.3193E+02  0.1249E+02  0.1247E+02
     -7.028  0.3547E+02  0.3360E+02  0.1428E+02  0.1417E+02
     -6.978  0.3328E+02  0.3472E+02  0.1596E+02  0.1592E+02
     -6.927  0.3954E+02  0.3940E+02  0.1795E+02  0.1791E+02
     -6.877  0.1091E+02  0.1174E+02  0.1850E+02  0.1850E+02
     -6.826  0.1579E-01  0.3002E-01  0.1850E+02  0.1850E+02
     -6.776  0.9448E+01  0.8880E+01  0.1898E+02  0.1895E+02
     -6.725  0.6046E+02  0.5698E+02  0.2203E+02  0.2182E+02
     -6.675  0.6408E+02  0.6731E+02  0.2526E+02  0.2521E+02
     -6.625  0.3408E+02  0.3404E+02  0.2698E+02  0.2693E+02
     -6.574  0.5704E+00  0.1396E+01  0.2700E+02  0.2700E+02
     -6.524  0.3945E+02  0.3921E+02  0.2899E+02  0.2898E+02
     -6.473  0.7370E+02  0.6887E+02  0.3271E+02  0.3245E+02
     -6.423  0.9159E+02  0.9162E+02  0.3733E+02  0.3707E+02
     -6.372  0.4654E+02  0.5119E+02  0.3967E+02  0.3965E+02
     -6.322  0.3117E+02  0.2731E+02  0.4125E+02  0.4103E+02
     -6.272  0.7181E+02  0.7117E+02  0.4487E+02  0.4462E+02
     -6.221  0.4748E+02  0.5231E+02  0.4726E+02  0.4725E+02
     -6.171  0.9412E+02  0.8983E+02  0.5201E+02  0.5178E+02
     -6.120  0.5508E+02  0.5866E+02  0.5478E+02  0.5474E+02
     -6.070  0.1745E+02  0.1751E+02  0.5566E+02  0.5562E+02
     -6.020  0.5796E+02  0.5398E+02  0.5859E+02  0.5835E+02
     -5.969  0.8634E+02  0.8617E+02  0.6294E+02  0.6269E+02
     -5.919  0.1247E+03  0.1271E+03  0.6923E+02  0.6910E+02
     -5.868  0.7391E+02  0.7116E+02  0.7296E+02  0.7269E+02
     -5.818  0.1338E+03  0.1337E+03  0.7970E+02  0.7943E+02
     -5.767  0.7727E+02  0.7377E+02  0.8360E+02  0.8315E+02
     -5.717  0.1133E+03  0.1160E+03  0.8931E+02  0.8899E+02
     -5.667  0.5523E+02  0.5886E+02  0.9210E+02  0.9196E+02
     -5.616  0.9028E+02  0.9096E+02  0.9665E+02  0.9655E+02
     -5.566  0.6702E+02  0.6494E+02  0.1000E+03  0.9982E+02
     -5.515  0.1223E+03  0.1187E+03  0.1062E+03  0.1058E+03
     -5.465  0.1122E+03  0.1148E+03  0.1119E+03  0.1116E+03
     -5.414  0.7116E+02  0.7242E+02  0.1154E+03  0.1153E+03
     -5.364  0.1147E+03  0.1116E+03  0.1212E+03  0.1209E+03
     -5.314  0.1099E+03  0.1132E+03  0.1268E+03  0.1266E+03
     -5.263  0.6109E+02  0.6255E+02  0.1299E+03  0.1297E+03
     -5.213  0.8530E+02  0.8607E+02  0.1342E+03  0.1341E+03
     -5.162  0.7840E+02  0.7670E+02  0.1381E+03  0.1379E+03
     -5.112  0.5320E+02  0.5427E+02  0.1408E+03  0.1407E+03
     -5.062  0.1008E+03  0.9791E+02  0.1459E+03  0.1456E+03
     -5.011  0.9982E+02  0.1011E+03  0.1509E+03  0.1507E+03
     -4.961  0.1090E+03  0.1071E+03  0.1564E+03  0.1561E+03
     -4.910  0.1194E+03  0.1236E+03  0.1624E+03  0.1624E+03
     -4.860  0.7488E+02  0.7120E+02  0.1662E+03  0.1659E+03
     -4.809  0.8873E+02  0.8698E+02  0.1707E+03  0.1703E+03
     -4.759  0.8198E+02  0.8549E+02  0.1748E+03  0.1746E+03
     -4.709  0.1058E+03  0.1036E+03  0.1801E+03  0.1799E+03
     -4.658  0.1005E+03  0.1007E+03  0.1852E+03  0.1849E+03
     -4.608  0.1095E+03  0.1114E+03  0.1907E+03  0.1906E+03
     -4.557  0.8128E+02  0.8040E+02  0.1948E+03  0.1946E+03
     -4.507  0.9291E+02  0.8845E+02  0.1995E+03  0.1991E+03
     -4.456  0.1397E+03  0.1406E+03  0.2066E+03  0.2062E+03
     -4.406  0.8024E+02  0.8412E+02  0.2106E+03  0.2104E+03
     -4.356  0.1438E+03  0.1424E+03  0.2179E+03  0.2176E+03
     -4.305  0.6886E+02  0.7056E+02  0.2213E+03  0.2211E+03
     -4.255  0.7868E+02  0.7691E+02  0.2253E+03  0.2250E+03
     -4.204  0.5131E+02  0.5416E+02  0.2279E+03  0.2278E+03
     -4.154  0.8296E+02  0.8256E+02  0.2321E+03  0.2319E+03
     -4.103  0.5818E+02  0.6114E+02  0.2350E+03  0.2350E+03
     -4.053  0.1428E+02  0.1100E+02  0.2357E+03  0.2356E+03
     -4.003  0.6769E+02  0.6688E+02  0.2391E+03  0.2389E+03
     -3.952  0.3265E+02  0.3628E+02  0.2408E+03  0.2408E+03
     -3.902  0.4691E+02  0.4587E+02  0.2431E+03  0.2431E+03
     -3.851  0.8987E+02  0.8668E+02  0.2477E+03  0.2474E+03
     -3.801  0.7537E+02  0.7403E+02  0.2515E+03  0.2512E+03
     -3.751  0.3536E+02  0.3812E+02  0.2533E+03  0.2531E+03
     -3.700  0.6003E+02  0.5353E+02  0.2563E+03  0.2558E+03
     -3.650  0.6684E+02  0.7142E+02  0.2597E+03  0.2594E+03
     -3.599  0.3800E+02  0.3649E+02  0.2616E+03  0.2612E+03
     -3.549  0.5529E+02  0.5545E+02  0.2644E+03  0.2640E+03
     -3.498  0.7830E+02  0.8144E+02  0.2683E+03  0.2681E+03
     -3.448  0.4876E+02  0.5193E+02  0.2708E+03  0.2708E+03
     -3.398  0.8098E+02  0.7298E+02  0.2748E+03  0.2744E+03
     -3.347  0.6580E+02  0.6884E+02  0.2782E+03  0.2779E+03
     -3.297  0.9463E+02  0.9497E+02  0.2829E+03  0.2827E+03
     -3.246  0.3860E+02  0.4144E+02  0.2849E+03  0.2848E+03
     -3.196  0.1038E+03  0.9876E+02  0.2901E+03  0.2898E+03
     -3.145  0.6047E+02  0.6585E+02  0.2932E+03  0.2931E+03
     -3.095  0.6491E+02  0.6018E+02  0.2964E+03  0.2961E+03
     -3.045  0.7842E+02  0.8332E+02  0.3004E+03  0.3003E+03
     -2.994  0.4143E+02  0.3613E+02  0.3025E+03  0.3021E+03
     -2.944  0.6998E+02  0.7297E+02  0.3060E+03  0.3058E+03
     -2.893  0.6679E+02  0.6348E+02  0.3094E+03  0.3090E+03
     -2.843  0.9499E+02  0.9738E+02  0.3142E+03  0.3139E+03
     -2.793  0.1078E+03  0.1091E+03  0.3196E+03  0.3194E+03
     -2.742  0.4817E+02  0.4581E+02  0.3220E+03  0.3217E+03
     -2.692  0.8272E+02  0.8320E+02  0.3262E+03  0.3259E+03
     -2.641  0.1124E+03  0.1107E+03  0.3319E+03  0.3315E+03
     -2.591  0.1303E+03  0.1290E+03  0.3384E+03  0.3380E+03
     -2.540  0.9835E+02  0.9960E+02  0.3434E+03  0.3430E+03
     -2.490  0.1472E+03  0.1469E+03  0.3508E+03  0.3505E+03
     -2.440  0.1395E+03  0.1401E+03  0.3579E+03  0.3575E+03
     -2.389  0.1036E+03  0.1064E+03  0.3631E+03  0.3629E+03
     -2.339  0.9948E+02  0.9778E+02  0.3681E+03  0.3678E+03
     -2.288  0.7497E+02  0.7571E+02  0.3719E+03  0.3716E+03
     -2.238  0.1055E+03  0.1077E+03  0.3772E+03  0.3771E+03
     -2.187  0.8394E+02  0.7713E+02  0.3814E+03  0.3809E+03
     -2.137  0.6625E+02  0.7493E+02  0.3848E+03  0.3847E+03
     -2.087  0.6821E+02  0.6495E+02  0.3882E+03  0.3880E+03
     -2.036  0.1046E+03  0.9881E+02  0.3935E+03  0.3930E+03
     -1.986  0.9962E+02  0.1057E+03  0.3985E+03  0.3983E+03
     -1.935  0.5396E+02  0.5615E+02  0.4012E+03  0.4011E+03
     -1.885  0.7523E+02  0.7034E+02  0.4050E+03  0.4047E+03
     -1.834  0.7819E+02  0.8008E+02  0.4090E+03  0.4087E+03
     -1.784  0.1002E+03  0.1018E+03  0.4140E+03  0.4139E+03
     -1.734  0.7350E+02  0.7146E+02  0.4177E+03  0.4175E+03
     -1.683  0.6924E+02  0.6899E+02  0.4212E+03  0.4209E+03
     -1.633  0.9960E+02  0.1020E+03  0.4262E+03  0.4261E+03
     -1.582  0.6548E+02  0.6569E+02  0.4295E+03  0.4294E+03
     -1.532  0.8643E+02  0.8512E+02  0.4339E+03  0.4337E+03
     -1.482  0.8021E+02  0.7809E+02  0.4379E+03  0.4376E+03
     -1.431  0.6753E+02  0.6424E+02  0.4413E+03  0.4409E+03
     -1.381  0.3381E+02  0.4263E+02  0.4430E+03  0.4430E+03
     -1.330  0.7958E+02  0.7478E+02  0.4470E+03  0.4468E+03
     -1.280  0.4016E+02  0.4295E+02  0.4491E+03  0.4490E+03
     -1.229  0.3118E+02  0.2849E+02  0.4506E+03  0.4504E+03
     -1.179  0.7071E+02  0.7240E+02  0.4542E+03  0.4540E+03
     -1.129  0.4237E+02  0.4297E+02  0.4563E+03  0.4562E+03
     -1.078  0.4311E+02  0.4360E+02  0.4585E+03  0.4584E+03
     -1.028  0.7035E+02  0.6816E+02  0.4621E+03  0.4618E+03
     -0.977  0.4058E+02  0.3695E+02  0.4641E+03  0.4637E+03
     -0.927  0.6699E+02  0.7501E+02  0.4675E+03  0.4675E+03
     -0.876  0.5732E+02  0.5313E+02  0.4704E+03  0.4702E+03
     -0.826  0.6787E+02  0.7061E+02  0.4738E+03  0.4737E+03
     -0.776  0.6592E+02  0.6442E+02  0.4771E+03  0.4770E+03
     -0.725  0.2820E+02  0.2914E+02  0.4786E+03  0.4784E+03
     -0.675  0.5133E+02  0.4549E+02  0.4811E+03  0.4807E+03
     -0.624  0.6718E+02  0.7006E+02  0.4845E+03  0.4843E+03
     -0.574  0.3968E+02  0.4272E+02  0.4865E+03  0.4864E+03
     -0.524  0.2663E+02  0.2692E+02  0.4879E+03  0.4878E+03
     -0.473  0.1259E+02  0.1430E+02  0.4885E+03  0.4885E+03
     -0.423  0.3802E+02  0.3627E+02  0.4904E+03  0.4903E+03
     -0.372  0.2782E+02  0.2572E+02  0.4918E+03  0.4916E+03
     -0.322  0.4846E+02  0.5173E+02  0.4943E+03  0.4942E+03
     -0.271  0.4353E+02  0.4362E+02  0.4965E+03  0.4964E+03
     -0.221  0.3315E+02  0.2821E+02  0.4981E+03  0.4979E+03
     -0.171  0.8151E+02  0.8351E+02  0.5022E+03  0.5021E+03
     -0.120  0.3245E+02  0.3357E+02  0.5039E+03  0.5038E+03
     -0.070  0.6394E+02  0.6056E+02  0.5071E+03  0.5068E+03
     -0.019  0.7240E+02  0.7649E+02  0.5108E+03  0.5107E+03
      0.031  0.8316E+02  0.7568E+02  0.5149E+03  0.5145E+03
      0.082  0.1228E+03  0.1279E+03  0.5211E+03  0.5209E+03
      0.132  0.1085E+03  0.1035E+03  0.5266E+03  0.5262E+03
      0.182  0.1269E+03  0.1268E+03  0.5330E+03  0.5325E+03
      0.233  0.1568E+03  0.1587E+03  0.5409E+03  0.5405E+03
      0.283  0.1133E+03  0.1149E+03  0.5466E+03  0.5463E+03
      0.334  0.1254E+03  0.1250E+03  0.5530E+03  0.5526E+03
      0.384  0.9146E+02  0.8677E+02  0.5576E+03  0.5570E+03
      0.434  0.1103E+03  0.1160E+03  0.5631E+03  0.5629E+03
      0.485  0.1332E+03  0.1291E+03  0.5698E+03  0.5694E+03
      0.535  0.1022E+03  0.1043E+03  0.5750E+03  0.5746E+03
      0.586  0.6017E+02  0.6397E+02  0.5780E+03  0.5779E+03
      0.636  0.9753E+02  0.9504E+02  0.5829E+03  0.5827E+03
      0.687  0.1607E+03  0.1588E+03  0.5910E+03  0.5907E+03
      0.737  0.1627E+03  0.1614E+03  0.5993E+03  0.5988E+03
      0.787  0.1429E+03  0.1437E+03  0.6065E+03  0.6060E+03
      0.838  0.2198E+03  0.2128E+03  0.6175E+03  0.6168E+03
      0.888  0.1300E+03  0.1412E+03  0.6241E+03  0.6239E+03
      0.939  0.1258E+03  0.1179E+03  0.6304E+03  0.6298E+03
      0.989  0.1896E+03  0.1883E+03  0.6400E+03  0.6393E+03
      1.040  0.1701E+03  0.1773E+03  0.6486E+03  0.6483E+03
      1.090  0.1503E+03  0.1486E+03  0.6562E+03  0.6558E+03
      1.140  0.2129E+03  0.2097E+03  0.6669E+03  0.6663E+03
      1.191  0.1371E+03  0.1373E+03  0.6738E+03  0.6733E+03
      1.241  0.2110E+03  0.2112E+03  0.6844E+03  0.6839E+03
      1.292  0.1461E+03  0.1521E+03  0.6918E+03  0.6916E+03
      1.342  0.1269E+03  0.1268E+03  0.6982E+03  0.6980E+03
      1.393  0.1882E+03  0.1833E+03  0.7077E+03  0.7072E+03
      1.443  0.1850E+03  0.1839E+03  0.7170E+03  0.7165E+03
      1.493  0.2363E+03  0.2342E+03  0.7289E+03  0.7283E+03
      1.544  0.2221E+03  0.2253E+03  0.7401E+03  0.7397E+03
      1.594  0.1414E+03  0.1449E+03  0.7473E+03  0.7470E+03
      1.645  0.1614E+03  0.1604E+03  0.7554E+03  0.7550E+03
      1.695  0.2036E+03  0.1977E+03  0.7657E+03  0.7650E+03
      1.745  0.1743E+03  0.1787E+03  0.7745E+03  0.7740E+03
      1.796  0.1734E+03  0.1693E+03  0.7832E+03  0.7826E+03
      1.846  0.1867E+03  0.1907E+03  0.7926E+03  0.7922E+03
      1.897  0.1709E+03  0.1677E+03  0.8012E+03  0.8006E+03
      1.947  0.1819E+03  0.1851E+03  0.8104E+03  0.8100E+03
      1.998  0.1765E+03  0.1771E+03  0.8193E+03  0.8189E+03
      2.048  0.2316E+03  0.2280E+03  0.8310E+03  0.8304E+03
      2.098  0.1498E+03  0.1554E+03  0.8385E+03  0.8382E+03
      2.149  0.1697E+03  0.1715E+03  0.8471E+03  0.8469E+03
      2.199  0.1324E+03  0.1254E+03  0.8538E+03  0.8532E+03
      2.250  0.1724E+03  0.1703E+03  0.8625E+03  0.8618E+03
      2.300  0.1600E+03  0.1609E+03  0.8705E+03  0.8699E+03
      2.351  0.2084E+03  0.2061E+03  0.8810E+03  0.8803E+03
      2.401  0.1620E+03  0.1706E+03  0.8892E+03  0.8889E+03
      2.451  0.1199E+03  0.1177E+03  0.8953E+03  0.8948E+03
      2.502  0.1313E+03  0.1356E+03  0.9019E+03  0.9017E+03
      2.552  0.1191E+03  0.1105E+03  0.9079E+03  0.9072E+03
      2.603  0.1704E+03  0.1722E+03  0.9165E+03  0.9159E+03
      2.653  0.1530E+03  0.1517E+03  0.9242E+03  0.9236E+03
      2.703  0.1256E+03  0.1197E+03  0.9305E+03  0.9296E+03
      2.754  0.1763E+03  0.1822E+03  0.9394E+03  0.9388E+03
      2.804  0.1245E+03  0.1229E+03  0.9457E+03  0.9450E+03
      2.855  0.1588E+03  0.1682E+03  0.9537E+03  0.9535E+03
      2.905  0.8477E+02  0.8449E+02  0.9580E+03  0.9577E+03
      2.956  0.1412E+03  0.1366E+03  0.9651E+03  0.9646E+03
      3.006  0.1216E+03  0.1253E+03  0.9712E+03  0.9709E+03
      3.056  0.1046E+03  0.1024E+03  0.9765E+03  0.9761E+03
      3.107  0.1196E+03  0.1189E+03  0.9825E+03  0.9821E+03
      3.157  0.1315E+03  0.1185E+03  0.9891E+03  0.9881E+03
      3.208  0.8798E+02  0.1057E+03  0.9936E+03  0.9934E+03
      3.258  0.1063E+03  0.1029E+03  0.9989E+03  0.9986E+03
      3.309  0.1185E+03  0.1189E+03  0.1005E+04  0.1005E+04
      3.359  0.9101E+02  0.8256E+02  0.1010E+04  0.1009E+04
      3.409  0.6469E+02  0.7552E+02  0.1013E+04  0.1013E+04
      3.460  0.8107E+02  0.7303E+02  0.1017E+04  0.1016E+04
      3.510  0.9615E+02  0.9811E+02  0.1022E+04  0.1021E+04
      3.561  0.8741E+02  0.7548E+02  0.1026E+04  0.1025E+04
      3.611  0.1040E+03  0.1173E+03  0.1031E+04  0.1031E+04
      3.661  0.4337E+02  0.4566E+02  0.1034E+04  0.1033E+04
      3.712  0.6418E+02  0.6004E+02  0.1037E+04  0.1036E+04
      3.762  0.3670E+02  0.3697E+02  0.1039E+04  0.1038E+04
      3.813  0.4893E+02  0.5045E+02  0.1041E+04  0.1041E+04
      3.863  0.2570E+02  0.2568E+02  0.1042E+04  0.1042E+04
      3.914  0.4755E+02  0.4989E+02  0.1045E+04  0.1044E+04
      3.964  0.6108E+02  0.5337E+02  0.1048E+04  0.1047E+04
      4.014  0.5002E+02  0.5071E+02  0.1050E+04  0.1050E+04
      4.065  0.7380E+02  0.5810E+02  0.1054E+04  0.1053E+04
      4.115  0.1030E+03  0.1227E+03  0.1059E+04  0.1059E+04
      4.166  0.9678E+02  0.8941E+02  0.1064E+04  0.1063E+04
      4.216  0.1120E+03  0.1165E+03  0.1070E+04  0.1069E+04
      4.267  0.7526E+02  0.7532E+02  0.1074E+04  0.1073E+04
      4.317  0.9700E+02  0.9716E+02  0.1079E+04  0.1078E+04
      4.367  0.9845E+02  0.8639E+02  0.1083E+04  0.1082E+04
      4.418  0.1238E+03  0.1216E+03  0.1090E+04  0.1088E+04
      4.468  0.1010E+03  0.1140E+03  0.1095E+04  0.1094E+04
      4.519  0.1516E+03  0.1507E+03  0.1102E+04  0.1102E+04
      4.569  0.9080E+02  0.1008E+03  0.1107E+04  0.1107E+04
      4.620  0.6707E+02  0.5868E+02  0.1110E+04  0.1110E+04
      4.670  0.1197E+03  0.1139E+03  0.1116E+04  0.1116E+04
      4.720  0.1390E+03  0.1389E+03  0.1123E+04  0.1123E+04
      4.771  0.1079E+03  0.1107E+03  0.1129E+04  0.1128E+04
      4.821  0.6410E+02  0.6122E+02  0.1132E+04  0.1131E+04
      4.872  0.1899E+03  0.1988E+03  0.1142E+04  0.1141E+04
      4.922  0.1157E+03  0.1167E+03  0.1148E+04  0.1147E+04
      4.972  0.1113E+03  0.9773E+02  0.1153E+04  0.1152E+04
      5.023  0.1224E+03  0.1262E+03  0.1159E+04  0.1158E+04
      5.073  0.1408E+03  0.1402E+03  0.1166E+04  0.1165E+04
      5.124  0.1604E+03  0.1575E+03  0.1175E+04  0.1173E+04
      5.174  0.7497E+02  0.8944E+02  0.1178E+04  0.1178E+04
      5.225  0.9758E+02  0.9911E+02  0.1183E+04  0.1183E+04
      5.275  0.1047E+03  0.1030E+03  0.1189E+04  0.1188E+04
      5.325  0.1032E+03  0.1034E+03  0.1194E+04  0.1193E+04
      5.376  0.1595E+03  0.1511E+03  0.1202E+04  0.1201E+04
      5.426  0.1525E+03  0.1548E+03  0.1209E+04  0.1209E+04
      5.477  0.9893E+02  0.1035E+03  0.1214E+04  0.1214E+04
      5.527  0.1014E+03  0.1027E+03  0.1220E+04  0.1219E+04
      5.578  0.1829E+03  0.1784E+03  0.1229E+04  0.1228E+04
      5.628  0.1374E+03  0.1383E+03  0.1236E+04  0.1235E+04
      5.678  0.1323E+03  0.1272E+03  0.1242E+04  0.1242E+04
      5.729  0.8981E+02  0.9652E+02  0.1247E+04  0.1246E+04
      5.779  0.1326E+03  0.1362E+03  0.1254E+04  0.1253E+04
      5.830  0.1215E+03  0.1227E+03  0.1260E+04  0.1259E+04
      5.880  0.1200E+03  0.1135E+03  0.1266E+04  0.1265E+04
      5.930  0.8608E+02  0.9490E+02  0.1270E+04  0.1270E+04
      5.981  0.2817E+02  0.3116E+02  0.1272E+04  0.1272E+04
      6.031  0.9610E+01  0.9591E+01  0.1272E+04  0.1272E+04
      6.082  0.0000E+00  0.0000E+00  0.1272E+04  0.1272E+04
      6.132  0.0000E+00  0.0000E+00  0.1272E+04  0.1272E+04
      6.183  0.0000E+00  0.0000E+00  0.1272E+04  0.1272E+04
      6.233  0.0000E+00  0.0000E+00  0.1272E+04  0.1272E+04
      6.283  0.0000E+00  0.0000E+00  0.1272E+04  0.1272E+04
      6.334  0.0000E+00  0.0000E+00  0.1272E+04  0.1272E+04
      6.384  0.0000E+00  0.0000E+00  0.1272E+04  0.1272E+04
      6.435  0.0000E+00  0.0000E+00  0.1272E+04  0.1272E+04
      6.485  0.0000E+00  0.0000E+00  0.1272E+04  0.1272E+04
      6.536  0.0000E+00  0.0000E+00  0.1272E+04  0.1272E+04
      6.586  0.0000E+00  0.0000E+00  0.1272E+04  0.1272E+04
      6.636  0.0000E+00  0.0000E+00  0.1272E+04  0.1272E+04
      6.687  0.0000E+00  0.0000E+00  0.1272E+04  0.1272E+04
