<?xml version="1.0" encoding="ISO-8859-1"?>
<modeling>
 <generator>
  <i name="program" type="string">vasp </i>
  <i name="version" type="string">6.4.3  </i>
  <i name="subversion" type="string">19Mar24 (build Oct 22 2024 11:23:12) complex                          parallel </i>
  <i name="platform" type="string">LinuxIFC </i>
  <i name="date" type="string">2025 06 08 </i>
  <i name="time" type="string">02:50:34 </i>
 </generator>
 <incar>
  <i type="string" name="SYSTEM">Si and Ge interface calculation</i>
  <i type="int" name="ISTART">     0</i>
  <i type="logical" name="ADDGRID"> T  </i>
  <i type="int" name="ISPIN">     2</i>
  <i name="AMIX">      0.60000000</i>
  <i type="int" name="ICHARG">     2</i>
  <i type="int" name="NELM">   100</i>
  <i name="EDIFF">      0.00000010</i>
  <i name="ENCUT">    700.00000000</i>
  <i name="ENAUG">    900.00000000</i>
  <i type="int" name="NBANDS">   288</i>
  <i name="NUPDOWN">      1.00000000</i>
  <i name="NELECT">    480.00000000</i>
  <i type="string" name="LREAL">AUTO</i>
  <i type="int" name="ISMEAR">     0</i>
  <i name="SIGMA">      0.01000000</i>
  <i type="int" name="LMAXMIX">     6</i>
  <i type="logical" name="LWAVE"> F  </i>
  <i type="logical" name="LVTOT"> F  </i>
  <i type="logical" name="LVHAR"> T  </i>
  <i type="logical" name="LASPH"> T  </i>
  <i type="logical" name="LMIXTAU"> T  </i>
 </incar>
 <primitive_cell>
  <structure name="primitive_cell" >
   <crystal>
    <varray name="basis" >
     <v>      -6.65158987       0.00000000       0.00000000 </v>
     <v>       0.00000000       0.00000000       8.39005947 </v>
     <v>      -0.00000048      14.87340641       0.00000000 </v>
    </varray>
    <i name="volume">    830.04368068 </i>
    <varray name="rec_basis" >
     <v>      -0.15034000      -0.00000000       0.00000000 </v>
     <v>       0.00000000       0.00000000       0.11918867 </v>
     <v>       0.00000000       0.06723409       0.00000000 </v>
    </varray>
   </crystal>
   <varray name="positions" >
    <v>       0.37606925       0.00000000       0.65811950 </v>
    <v>       0.87606955       0.14474380       0.55811930 </v>
    <v>       0.37607002       0.28948760       0.45811909 </v>
    <v>       0.70940262       0.00000000       0.32478613 </v>
    <v>       0.20940287       0.14474380       0.22478597 </v>
    <v>       0.70940331       0.28948760       0.12478581 </v>
    <v>       0.04273594       0.00000000       0.99145281 </v>
    <v>       0.54273617       0.14474380       0.89145267 </v>
    <v>       0.04273659       0.28948760       0.79145253 </v>
    <v>       0.04273590       0.07237176       0.69145274 </v>
    <v>       0.54273641       0.21711555       0.59145248 </v>
    <v>       0.04273653       0.36185935       0.49145243 </v>
    <v>       0.37606916       0.07237176       0.35811949 </v>
    <v>       0.87606961       0.21711555       0.25811928 </v>
    <v>       0.37606981       0.36185935       0.15811914 </v>
    <v>       0.70940251       0.07237176       0.02478614 </v>
    <v>       0.20940292       0.21711555       0.92478597 </v>
    <v>       0.70940313       0.36185935       0.82478583 </v>
    <v>       0.14589359       0.56210440       0.13267241 </v>
    <v>       0.93160817       0.65716469       0.40410104 </v>
    <v>       0.71732265       0.75222492       0.67552966 </v>
    <v>       0.71732223       0.56210440       0.27552950 </v>
    <v>       0.50303668       0.65716469       0.54695815 </v>
    <v>       0.28875113       0.75222492       0.81838679 </v>
    <v>       0.28875062       0.56210440       0.41838673 </v>
    <v>       0.07446522       0.65716469       0.68981534 </v>
    <v>       0.86017954       0.75222492       0.96124399 </v>
    <v>       0.86017930       0.56210440       0.56124389 </v>
    <v>       0.64589375       0.65716469       0.83267254 </v>
    <v>       0.43160832       0.75222492       0.10410106 </v>
    <v>       0.43160790       0.56210440       0.70410103 </v>
    <v>       0.21732253       0.65716469       0.97552961 </v>
    <v>       0.00303698       0.75222492       0.24695826 </v>
    <v>       0.00303656       0.56210440       0.84695810 </v>
    <v>       0.78875112       0.65716469       0.11838675 </v>
    <v>       0.57446551       0.75222492       0.38981533 </v>
    <v>       0.57446492       0.56210440       0.98981535 </v>
    <v>       0.36017930       0.65716469       0.26124394 </v>
    <v>       0.14589417       0.75222492       0.53267252 </v>
    <v>       0.21732253       0.60963446       0.87552935 </v>
    <v>       0.00303686       0.70469469       0.14695799 </v>
    <v>       0.78875124       0.79975492       0.41838670 </v>
    <v>       0.78875089       0.60963446       0.01838660 </v>
    <v>       0.57446539       0.70469469       0.28981531 </v>
    <v>       0.36018014       0.79975492       0.56124377 </v>
    <v>       0.36017931       0.60963446       0.16124380 </v>
    <v>       0.14589429       0.70469469       0.43267226 </v>
    <v>       0.93160892       0.79975486       0.70410085 </v>
    <v>       0.93160808       0.60963446       0.30410087 </v>
    <v>       0.71732241       0.70469469       0.57552952 </v>
    <v>       0.50303721       0.79975486       0.84695804 </v>
    <v>       0.50303641       0.60963446       0.44695815 </v>
    <v>       0.28875101       0.70469469       0.71838677 </v>
    <v>       0.07446545       0.79975486       0.98981541 </v>
    <v>       0.07446516       0.60963446       0.58981526 </v>
    <v>       0.86017972       0.70469469       0.86124390 </v>
    <v>       0.64589381       0.79975492       0.13267255 </v>
    <v>       0.64589369       0.60963446       0.73267233 </v>
    <v>       0.43160832       0.70469469       0.00410092 </v>
    <v>       0.21732271       0.79975492       0.27552950 </v>
   </varray>
  </structure>
  <varray name="primitive_index" >
   <v type="int" >        1 </v>
   <v type="int" >        2 </v>
   <v type="int" >       21 </v>
   <v type="int" >        4 </v>
   <v type="int" >        5 </v>
   <v type="int" >       24 </v>
   <v type="int" >        7 </v>
   <v type="int" >        8 </v>
   <v type="int" >       27 </v>
   <v type="int" >       28 </v>
   <v type="int" >       29 </v>
   <v type="int" >       12 </v>
   <v type="int" >       31 </v>
   <v type="int" >       32 </v>
   <v type="int" >       15 </v>
   <v type="int" >       34 </v>
   <v type="int" >       35 </v>
   <v type="int" >       18 </v>
   <v type="int" >       88 </v>
   <v type="int" >       89 </v>
   <v type="int" >       90 </v>
   <v type="int" >       91 </v>
   <v type="int" >       92 </v>
   <v type="int" >       93 </v>
   <v type="int" >       94 </v>
   <v type="int" >       95 </v>
   <v type="int" >       96 </v>
   <v type="int" >       46 </v>
   <v type="int" >       47 </v>
   <v type="int" >       99 </v>
   <v type="int" >       49 </v>
   <v type="int" >       50 </v>
   <v type="int" >       51 </v>
   <v type="int" >       52 </v>
   <v type="int" >       53 </v>
   <v type="int" >       54 </v>
   <v type="int" >       55 </v>
   <v type="int" >       56 </v>
   <v type="int" >       57 </v>
   <v type="int" >      112 </v>
   <v type="int" >      113 </v>
   <v type="int" >      114 </v>
   <v type="int" >      115 </v>
   <v type="int" >      116 </v>
   <v type="int" >      117 </v>
   <v type="int" >       64 </v>
   <v type="int" >      119 </v>
   <v type="int" >      120 </v>
   <v type="int" >       67 </v>
   <v type="int" >       68 </v>
   <v type="int" >       69 </v>
   <v type="int" >       70 </v>
   <v type="int" >       71 </v>
   <v type="int" >       72 </v>
   <v type="int" >       73 </v>
   <v type="int" >       74 </v>
   <v type="int" >       75 </v>
   <v type="int" >      109 </v>
   <v type="int" >      110 </v>
   <v type="int" >      111 </v>
  </varray>
 </primitive_cell>
 <kpoints>
  <generation param="Gamma">
   <v type="int" name="divisions">       3        2        4 </v>
   <v name="usershift">      0.00000000       0.00000000       0.00000000 </v>
   <v name="genvec1">      0.33333333      -0.00000000       0.00000000 </v>
   <v name="genvec2">      0.00000000       0.50000000       0.00000000 </v>
   <v name="genvec3">      0.00000000       0.00000000       0.25000000 </v>
   <v name="shift">      0.00000000       0.00000000       0.00000000 </v>
  </generation>
  <varray name="kpointlist" >
   <v>       0.00000000       0.00000000       0.00000000 </v>
   <v>       0.33333333       0.00000000       0.00000000 </v>
   <v>       0.00000000       0.50000000       0.00000000 </v>
   <v>       0.33333333       0.50000000       0.00000000 </v>
   <v>       0.00000000       0.00000000       0.25000000 </v>
   <v>       0.33333333       0.00000000       0.25000000 </v>
   <v>      -0.33333333      -0.00000000       0.25000000 </v>
   <v>       0.00000000       0.50000000       0.25000000 </v>
   <v>       0.33333333       0.50000000       0.25000000 </v>
   <v>      -0.33333333       0.50000000       0.25000000 </v>
   <v>       0.00000000       0.00000000       0.50000000 </v>
   <v>       0.33333333       0.00000000       0.50000000 </v>
   <v>       0.00000000       0.50000000       0.50000000 </v>
   <v>       0.33333333       0.50000000       0.50000000 </v>
  </varray>
  <varray name="weights" >
   <v>       0.04166667 </v>
   <v>       0.08333333 </v>
   <v>       0.04166667 </v>
   <v>       0.08333333 </v>
   <v>       0.08333333 </v>
   <v>       0.08333333 </v>
   <v>       0.08333333 </v>
   <v>       0.08333333 </v>
   <v>       0.08333333 </v>
   <v>       0.08333333 </v>
   <v>       0.04166667 </v>
   <v>       0.08333333 </v>
   <v>       0.04166667 </v>
   <v>       0.08333333 </v>
  </varray>
 </kpoints>
 <parameters>
  <separator name="general" >
   <i type="string" name="SYSTEM">Si and Ge interface calculation</i>
   <i type="logical" name="LCOMPAT"> F  </i>
  </separator>
  <separator name="electronic" >
   <i type="string" name="PREC">normal</i>
   <i name="ENMAX">    700.00000000</i>
   <i name="ENAUG">    900.00000000</i>
   <i name="EDIFF">      0.00000010</i>
   <i type="int" name="IALGO">    38</i>
   <i type="int" name="IWAVPR">    10</i>
   <i type="int" name="NBANDS">   288</i>
   <i type="int" name="NBANDSLOW">    -1</i>
   <i type="int" name="NBANDSHIGH">    -1</i>
   <i name="NELECT">    480.00000000</i>
   <i type="int" name="TURBO">     0</i>
   <i type="int" name="IRESTART">     0</i>
   <i type="int" name="NREBOOT">     0</i>
   <i type="int" name="NMIN">     0</i>
   <i name="EREF">      0.00000000</i>
   <separator name="electronic smearing" >
    <i type="int" name="ISMEAR">     0</i>
    <i name="SIGMA">      0.01000000</i>
    <i name="KSPACING">      0.50000000</i>
    <i type="logical" name="KGAMMA"> T  </i>
    <i type="logical" name="KBLOWUP"> F  </i>
   </separator>
   <separator name="electronic projectors" >
    <i type="logical" name="LREAL"> T  </i>
    <v name="ROPT">     -0.00050000     -0.00050000</v>
    <i type="int" name="LMAXPAW">  -100</i>
    <i type="int" name="LMAXMIX">     6</i>
    <i type="logical" name="NLSPLINE"> F  </i>
   </separator>
   <separator name="electronic startup" >
    <i type="int" name="ISTART">     0</i>
    <i type="int" name="ICHARG">     2</i>
    <i type="int" name="INIWAV">     1</i>
   </separator>
   <separator name="electronic spin" >
    <i type="int" name="ISPIN">     2</i>
    <i type="logical" name="LNONCOLLINEAR"> F  </i>
    <v name="MAGMOM">      0.00833333      0.00833333      0.00833333      0.00833333      0.00833333      0.00833333      0.00833333      0.00833333      0.00833333      0.00833333      0.00833333      0.00833333      0.00833333      0.00833333      0.00833333      0.00833333      0.00833333      0.00833333      0.00833333      0.00833333
      0.00833333      0.00833333      0.00833333      0.00833333      0.00833333      0.00833333      0.00833333      0.00833333      0.00833333      0.00833333      0.00833333      0.00833333      0.00833333      0.00833333      0.00833333      0.00833333      0.00833333      0.00833333      0.00833333      0.00833333
      0.00833333      0.00833333      0.00833333      0.00833333      0.00833333      0.00833333      0.00833333      0.00833333      0.00833333      0.00833333      0.00833333      0.00833333      0.00833333      0.00833333      0.00833333      0.00833333      0.00833333      0.00833333      0.00833333      0.00833333
      0.00833333      0.00833333      0.00833333      0.00833333      0.00833333      0.00833333      0.00833333      0.00833333      0.00833333      0.00833333      0.00833333      0.00833333      0.00833333      0.00833333      0.00833333      0.00833333      0.00833333      0.00833333      0.00833333      0.00833333
      0.00833333      0.00833333      0.00833333      0.00833333      0.00833333      0.00833333      0.00833333      0.00833333      0.00833333      0.00833333      0.00833333      0.00833333      0.00833333      0.00833333      0.00833333      0.00833333      0.00833333      0.00833333      0.00833333      0.00833333
      0.00833333      0.00833333      0.00833333      0.00833333      0.00833333      0.00833333      0.00833333      0.00833333      0.00833333      0.00833333      0.00833333      0.00833333      0.00833333      0.00833333      0.00833333      0.00833333      0.00833333      0.00833333      0.00833333      0.00833333
</v>
    <i name="NUPDOWN">      1.00000000</i>
    <i type="logical" name="LSORBIT"> F  </i>
    <v name="SAXIS">      0.00000000      0.00000000      1.00000000</v>
    <i type="logical" name="LSPIRAL"> F  </i>
    <v name="QSPIRAL">      0.00000000      0.00000000      0.00000000</v>
    <i type="logical" name="LZEROZ"> F  </i>
   </separator>
   <separator name="electronic exchange-correlation" >
    <i type="logical" name="LASPH"> T  </i>
   </separator>
   <separator name="electronic convergence" >
    <i type="int" name="NELM">   100</i>
    <i type="int" name="NELMDL">    -5</i>
    <i type="int" name="NELMIN">     2</i>
    <i name="ENINI">    700.00000000</i>
    <separator name="electronic convergence detail" >
     <i type="logical" name="LDIAG"> T  </i>
     <i type="logical" name="LSUBROT"> F  </i>
     <i name="WEIMIN">      0.00000000</i>
     <i name="EBREAK">      0.00000000</i>
     <i name="DEPER">      0.30000000</i>
     <i type="int" name="NRMM">     4</i>
     <i name="TIME">      0.40000000</i>
    </separator>
   </separator>
   <separator name="electronic mixer" >
    <i name="AMIX">      0.60000000</i>
    <i name="BMIX">      1.00000000</i>
    <i name="AMIN">      0.10000000</i>
    <i name="AMIX_MAG">      2.40000000</i>
    <i name="BMIX_MAG">      1.00000000</i>
    <separator name="electronic mixer details" >
     <i type="int" name="IMIX">     4</i>
     <i type="logical" name="MIXFIRST"> F  </i>
     <i type="int" name="MAXMIX">   -45</i>
     <i name="WC">    100.00000000</i>
     <i type="int" name="INIMIX">     1</i>
     <i type="int" name="MIXPRE">     1</i>
     <i type="int" name="MREMOVE">     5</i>
    </separator>
   </separator>
   <separator name="electronic dipolcorrection" >
    <i type="logical" name="LDIPOL"> F  </i>
    <i type="logical" name="LMONO"> F  </i>
    <i type="int" name="IDIPOL">     0</i>
    <i name="EPSILON">      1.00000000</i>
    <v name="DIPOL">   -100.00000000   -100.00000000   -100.00000000</v>
    <i name="EFIELD">      0.00000000</i>
    <i type="logical" name="LVACPOTAV"> F  </i>
   </separator>
  </separator>
  <separator name="grids" >
   <i type="int" name="NGX">    90</i>
   <i type="int" name="NGY">   108</i>
   <i type="int" name="NGZ">    54</i>
   <i type="int" name="NGXF">   180</i>
   <i type="int" name="NGYF">   216</i>
   <i type="int" name="NGZF">   108</i>
   <i type="logical" name="ADDGRID"> T  </i>
  </separator>
  <separator name="ionic" >
   <i type="int" name="NSW">     0</i>
   <i type="int" name="IBRION">    -1</i>
   <i type="int" name="MDALGO">     0</i>
   <i type="int" name="ISIF">     2</i>
   <i name="PSTRESS">      0.00000000</i>
   <i name="EDIFFG">      0.00000100</i>
   <i type="int" name="NFREE">     0</i>
   <i name="POTIM">      0.50000000</i>
   <i name="SMASS">     -3.00000000</i>
   <i name="SCALEE">      1.00000000</i>
  </separator>
  <separator name="ionic md" >
   <i name="TEBEG">      0.00010000</i>
   <i name="TEEND">      0.00010000</i>
   <i type="int" name="NBLOCK">     1</i>
   <i type="int" name="KBLOCK">     1</i>
   <i type="int" name="NPACO">   256</i>
   <i name="APACO">     10.00000000</i>
  </separator>
  <separator name="symmetry" >
   <i type="int" name="ISYM">     2</i>
   <i name="SYMPREC">      0.00001000</i>
  </separator>
  <separator name="dos" >
   <i type="int" name="LORBIT">     0</i>
   <v name="RWIGS">     -1.00000000     -1.00000000</v>
   <i type="int" name="NEDOS">   301</i>
   <i name="EMIN">     10.00000000</i>
   <i name="EMAX">    -10.00000000</i>
   <i name="EFERMI">      0.00000000</i>
  </separator>
  <separator name="writing" >
   <i type="int" name="NWRITE">     2</i>
   <i type="logical" name="LWAVE"> F  </i>
   <i type="logical" name="LDOWNSAMPLE"> F  </i>
   <i type="logical" name="LCHARG"> T  </i>
   <i type="logical" name="LPARD"> F  </i>
   <i type="logical" name="LVTOT"> F  </i>
   <i type="logical" name="LVHAR"> T  </i>
   <i type="logical" name="LELF"> F  </i>
   <i type="logical" name="LOPTICS"> F  </i>
   <v name="STM">      0.00000000      0.00000000      0.00000000      0.00000000      0.00000000      0.00000000      0.00000000</v>
  </separator>
  <separator name="performance" >
   <i type="int" name="NPAR">     4</i>
   <i type="int" name="NSIM">     4</i>
   <i type="int" name="NBLK">    -1</i>
   <i type="logical" name="LPLANE"> T  </i>
   <i type="logical" name="LSCALAPACK"> T  </i>
   <i type="logical" name="LSCAAWARE"> F  </i>
   <i type="logical" name="LSCALU"> F  </i>
   <i type="logical" name="LASYNC"> F  </i>
   <i type="logical" name="LORBITALREAL"> F  </i>
  </separator>
  <separator name="miscellaneous" >
   <i type="int" name="IDIOT">     3</i>
   <i type="int" name="PHON_NSTRUCT">    -1</i>
   <i type="logical" name="LMUSIC"> F  </i>
   <v name="POMASS">     28.08500000     12.01100000</v>
   <v name="DARWINR">      0.00000000      0.00000000</v>
   <v name="DARWINV">      1.00000000      1.00000000</v>
   <i type="logical" name="LCORR"> T  </i>
  </separator>
  <i type="logical" name="GGA_COMPAT"> T  </i>
  <i type="logical" name="LBERRY"> F  </i>
  <i type="int" name="ICORELEVEL">     0</i>
  <i type="logical" name="LDAU"> F  </i>
  <i type="int" name="I_CONSTRAINED_M">     0</i>
  <separator name="electronic exchange-correlation" >
   <i type="string" name="GGA    ">PE</i>
   <i type="string" name="XC_C">1</i>
   <i type="int" name="VOSKOWN">     0</i>
   <i type="logical" name="LHFCALC"> F  </i>
   <i type="string" name="PRECFOCK"></i>
   <i type="logical" name="LSYMGRAD"> F  </i>
   <i type="logical" name="LHFONE"> F  </i>
   <i type="logical" name="LRHFCALC"> F  </i>
   <i type="logical" name="LTHOMAS"> F  </i>
   <i type="logical" name="LMODELHF"> F  </i>
   <i type="logical" name="LFOCKACE"> F  </i>
   <i name="ENCUT4O">     -1.00000000</i>
   <i type="int" name="EXXOEP">     0</i>
   <i type="int" name="FOURORBIT">     0</i>
   <i name="AEXX">      0.00000000</i>
   <i name="HFALPHA">      0.00000000</i>
   <i name="MCALPHA">      0.00000000</i>
   <i name="ALDAX">      1.00000000</i>
   <i name="AGGAX">      1.00000000</i>
   <i name="AMGGAX">      1.00000000</i>
   <i name="ALDAC">      1.00000000</i>
   <i name="AGGAC">      1.00000000</i>
   <i name="AMGGAC">      1.00000000</i>
   <i type="int" name="NKREDX">     1</i>
   <i type="int" name="NKREDY">     1</i>
   <i type="int" name="NKREDZ">     1</i>
   <i type="logical" name="SHIFTRED"> F  </i>
   <i type="logical" name="ODDONLY"> F  </i>
   <i type="logical" name="EVENONLY"> F  </i>
   <i type="int" name="LMAXFOCK">     0</i>
   <i type="int" name="NMAXFOCKAE">     0</i>
   <i type="logical" name="LFOCKAEDFT"> F  </i>
   <i name="HFSCREEN">      0.00000000</i>
   <i name="HFSCREENC">      0.00000000</i>
   <i type="int" name="NBANDSGWLOW">     0</i>
  </separator>
  <separator name="vdW DFT" >
   <i type="logical" name="LUSE_VDW"> F  </i>
   <i type="int" name="IVDW_NL">    -1</i>
   <i type="logical" name="LSPIN_VDW"> F  </i>
   <i name="ZAB_VDW">     -0.84910000</i>
   <i name="GAMMA_VDW">      1.39626340</i>
   <i name="ALPHA_VDW">      0.00000000</i>
   <i name="PARAM1">      0.12340000</i>
   <i name="PARAM2">      1.00000000</i>
   <i name="BPARAM">      6.30000000</i>
   <i name="CPARAM">      0.00930000</i>
  </separator>
  <separator name="model GW" >
   <i type="int" name="MODEL_GW">     0</i>
   <i name="MODEL_EPS0">      8.30043681</i>
   <i name="MODEL_ALPHA">      1.00000000</i>
  </separator>
  <separator name="linear response parameters" >
   <i type="logical" name="LEPSILON"> F  </i>
   <i type="logical" name="LRPA"> F  </i>
   <i type="logical" name="LNABLA"> F  </i>
   <i type="logical" name="LVEL"> F  </i>
   <i name="CSHIFT">      0.10000000</i>
   <i name="OMEGAMAX">     -1.00000000</i>
   <i name="DEG_THRESHOLD">      0.00200000</i>
   <i name="RTIME">     -0.10000000</i>
   <i name="WPLASMAI">      0.00000000</i>
   <v name="DFIELD">      0.00000000      0.00000000      0.00000000</v>
   <v name="WPLASMA">      0.00000000      0.00000000      0.00000000      0.00000000      0.00000000      0.00000000      0.00000000      0.00000000      0.00000000</v>
  </separator>
  <separator name="orbital magnetization" >
   <i type="logical" name="NUCIND"> F  </i>
   <v name="MAGPOS">      0.00000000      0.00000000      0.00000000</v>
   <i type="logical" name="LNICSALL"> T  </i>
   <i type="logical" name="ORBITALMAG"> F  </i>
   <i type="logical" name="LMAGBLOCH"> F  </i>
   <i type="logical" name="LCHIMAG"> F  </i>
   <i type="logical" name="LGAUGE"> T  </i>
   <i type="int" name="MAGATOM">     0</i>
   <v name="MAGDIPOL">      0.00000000      0.00000000      0.00000000</v>
   <v name="AVECCONST">      0.00000000      0.00000000      0.00000000</v>
  </separator>
  <separator name="response functions" >
   <i type="logical" name="LALL_IN_ONE"> F  </i>
   <i type="int" name="IALL_IN_ONE">    -1</i>
   <i type="int" name="NBANDS_WAVE">    -1</i>
   <i type="logical" name="LFINITE_TEMPERATURE"> F  </i>
   <i type="logical" name="LADDER"> F  </i>
   <i type="logical" name="LRPAFORCE"> F  </i>
   <i type="logical" name="LFXC"> F  </i>
   <i type="logical" name="LHARTREE"> T  </i>
   <i type="int" name="IBSE">     0</i>
   <v type="int" name="KPOINT">    -1     0     0     0</v>
   <i type="logical" name="LTCTC"> F  </i>
   <i type="logical" name="LTCTE"> F  </i>
   <i type="logical" name="LTETE"> F  </i>
   <i type="logical" name="LTRIPLET"> F  </i>
   <i type="logical" name="LFXCEPS"> F  </i>
   <i type="logical" name="LFXHEG"> F  </i>
   <i type="int" name="NATURALO">     2</i>
   <i type="logical" name="LHOLEGF"> F  </i>
   <i type="logical" name="L2ORDER"> F  </i>
   <i type="logical" name="LDMP1"> F  </i>
   <i type="logical" name="LMP2LT"> F  </i>
   <i type="logical" name="LSMP2LT"> F  </i>
   <i type="logical" name="LGWLF"> F  </i>
   <i name="ENCUTGW">     -1.60000002</i>
   <i name="ENCUTGWSOFT">     -1.60000002</i>
   <i name="ENCUTLF">     -1.00000000</i>
   <i type="logical" name="ESF_SPLINES"> F  </i>
   <i name="ESF_CONV">      0.01000000</i>
   <i type="int" name="ESF_NINTER">    15</i>
   <i type="int" name="LMAXMP2">    -1</i>
   <i name="SCISSOR">      0.00000000</i>
   <i type="int" name="NOMEGA">     0</i>
   <i type="int" name="NOMEGAR">     0</i>
   <i type="int" name="NBANDSGW">    -1</i>
   <i type="int" name="NBANDSO">    -1</i>
   <i type="int" name="NBANDSV">    -1</i>
   <i type="int" name="NELMGW">     1</i>
   <i type="int" name="NELMHF">     1</i>
   <i type="int" name="DIM">     3</i>
   <i type="int" name="IESPILON">     4</i>
   <i type="int" name="ANTIRES">     0</i>
   <i name="OMEGAMAX">    -30.00000000</i>
   <i name="OMEGAMIN">    -30.00000000</i>
   <i name="OMEGATL">   -200.00000000</i>
   <i type="int" name="OMEGAGRID">     0</i>
   <i name="CSHIFT">     -0.10000000</i>
   <i type="logical" name="LSELFENERGY"> F  </i>
   <i type="logical" name="LSPECTRAL"> F  </i>
   <i type="logical" name="LSPECTRALGW"> F  </i>
   <i type="logical" name="LSINGLES"> F  </i>
   <i type="logical" name="LFERMIGW"> F  </i>
   <i type="logical" name="ODDONLYGW"> F  </i>
   <i type="logical" name="EVENONLYGW"> F  </i>
   <i type="int" name="NKREDLFX">     1</i>
   <i type="int" name="NKREDLFY">     1</i>
   <i type="int" name="NKREDLFZ">     1</i>
   <i type="int" name="MAXMEM">  2800</i>
   <i type="int" name="TELESCOPE">     0</i>
   <i type="int" name="NTAUPAR">    -1</i>
   <i type="int" name="NOMEGAPAR">    -1</i>
   <i name="DAMP_NEWTON">      0.80000001</i>
   <i name="LAMBDA">      1.00000000</i>
  </separator>
  <separator name="External order field" >
   <i name="OFIELD_KAPPA">      0.00000000</i>
   <v name="OFIELD_K">      0.00000000      0.00000000      0.00000000</v>
   <i name="OFIELD_Q6_NEAR">      0.00000000</i>
   <i name="OFIELD_Q6_FAR">      0.00000000</i>
   <i name="OFIELD_A">      0.00000000</i>
  </separator>
  <separator name="optional k-points parameters" >
   <i type="int" name="KPOINTS_OPT_MODE">     1</i>
   <i type="logical" name="LKPOINTS_OPT"> F  </i>
  </separator>
 </parameters>
 <atominfo>
  <atoms>     120 </atoms>
  <types>       2 </types>
  <array name="atoms" >
   <dimension dim="1">ion</dimension>
   <field type="string">element</field>
   <field type="int">atomtype</field>
   <set>
    <rc><c>Si</c><c>   1</c></rc>
    <rc><c>Si</c><c>   1</c></rc>
    <rc><c>Si</c><c>   1</c></rc>
    <rc><c>Si</c><c>   1</c></rc>
    <rc><c>Si</c><c>   1</c></rc>
    <rc><c>Si</c><c>   1</c></rc>
    <rc><c>Si</c><c>   1</c></rc>
    <rc><c>Si</c><c>   1</c></rc>
    <rc><c>Si</c><c>   1</c></rc>
    <rc><c>Si</c><c>   1</c></rc>
    <rc><c>Si</c><c>   1</c></rc>
    <rc><c>Si</c><c>   1</c></rc>
    <rc><c>Si</c><c>   1</c></rc>
    <rc><c>Si</c><c>   1</c></rc>
    <rc><c>Si</c><c>   1</c></rc>
    <rc><c>Si</c><c>   1</c></rc>
    <rc><c>Si</c><c>   1</c></rc>
    <rc><c>Si</c><c>   1</c></rc>
    <rc><c>Si</c><c>   1</c></rc>
    <rc><c>Si</c><c>   1</c></rc>
    <rc><c>Si</c><c>   1</c></rc>
    <rc><c>Si</c><c>   1</c></rc>
    <rc><c>Si</c><c>   1</c></rc>
    <rc><c>Si</c><c>   1</c></rc>
    <rc><c>Si</c><c>   1</c></rc>
    <rc><c>Si</c><c>   1</c></rc>
    <rc><c>Si</c><c>   1</c></rc>
    <rc><c>Si</c><c>   1</c></rc>
    <rc><c>Si</c><c>   1</c></rc>
    <rc><c>Si</c><c>   1</c></rc>
    <rc><c>Si</c><c>   1</c></rc>
    <rc><c>Si</c><c>   1</c></rc>
    <rc><c>Si</c><c>   1</c></rc>
    <rc><c>Si</c><c>   1</c></rc>
    <rc><c>Si</c><c>   1</c></rc>
    <rc><c>Si</c><c>   1</c></rc>
    <rc><c>C </c><c>   2</c></rc>
    <rc><c>C </c><c>   2</c></rc>
    <rc><c>C </c><c>   2</c></rc>
    <rc><c>C </c><c>   2</c></rc>
    <rc><c>C </c><c>   2</c></rc>
    <rc><c>C </c><c>   2</c></rc>
    <rc><c>C </c><c>   2</c></rc>
    <rc><c>C </c><c>   2</c></rc>
    <rc><c>C </c><c>   2</c></rc>
    <rc><c>C </c><c>   2</c></rc>
    <rc><c>C </c><c>   2</c></rc>
    <rc><c>C </c><c>   2</c></rc>
    <rc><c>C </c><c>   2</c></rc>
    <rc><c>C </c><c>   2</c></rc>
    <rc><c>C </c><c>   2</c></rc>
    <rc><c>C </c><c>   2</c></rc>
    <rc><c>C </c><c>   2</c></rc>
    <rc><c>C </c><c>   2</c></rc>
    <rc><c>C </c><c>   2</c></rc>
    <rc><c>C </c><c>   2</c></rc>
    <rc><c>C </c><c>   2</c></rc>
    <rc><c>C </c><c>   2</c></rc>
    <rc><c>C </c><c>   2</c></rc>
    <rc><c>C </c><c>   2</c></rc>
    <rc><c>C </c><c>   2</c></rc>
    <rc><c>C </c><c>   2</c></rc>
    <rc><c>C </c><c>   2</c></rc>
    <rc><c>C </c><c>   2</c></rc>
    <rc><c>C </c><c>   2</c></rc>
    <rc><c>C </c><c>   2</c></rc>
    <rc><c>C </c><c>   2</c></rc>
    <rc><c>C </c><c>   2</c></rc>
    <rc><c>C </c><c>   2</c></rc>
    <rc><c>C </c><c>   2</c></rc>
    <rc><c>C </c><c>   2</c></rc>
    <rc><c>C </c><c>   2</c></rc>
    <rc><c>C </c><c>   2</c></rc>
    <rc><c>C </c><c>   2</c></rc>
    <rc><c>C </c><c>   2</c></rc>
    <rc><c>C </c><c>   2</c></rc>
    <rc><c>C </c><c>   2</c></rc>
    <rc><c>C </c><c>   2</c></rc>
    <rc><c>C </c><c>   2</c></rc>
    <rc><c>C </c><c>   2</c></rc>
    <rc><c>C </c><c>   2</c></rc>
    <rc><c>C </c><c>   2</c></rc>
    <rc><c>C </c><c>   2</c></rc>
    <rc><c>C </c><c>   2</c></rc>
    <rc><c>C </c><c>   2</c></rc>
    <rc><c>C </c><c>   2</c></rc>
    <rc><c>C </c><c>   2</c></rc>
    <rc><c>C </c><c>   2</c></rc>
    <rc><c>C </c><c>   2</c></rc>
    <rc><c>C </c><c>   2</c></rc>
    <rc><c>C </c><c>   2</c></rc>
    <rc><c>C </c><c>   2</c></rc>
    <rc><c>C </c><c>   2</c></rc>
    <rc><c>C </c><c>   2</c></rc>
    <rc><c>C </c><c>   2</c></rc>
    <rc><c>C </c><c>   2</c></rc>
    <rc><c>C </c><c>   2</c></rc>
    <rc><c>C </c><c>   2</c></rc>
    <rc><c>C </c><c>   2</c></rc>
    <rc><c>C </c><c>   2</c></rc>
    <rc><c>C </c><c>   2</c></rc>
    <rc><c>C </c><c>   2</c></rc>
    <rc><c>C </c><c>   2</c></rc>
    <rc><c>C </c><c>   2</c></rc>
    <rc><c>C </c><c>   2</c></rc>
    <rc><c>C </c><c>   2</c></rc>
    <rc><c>C </c><c>   2</c></rc>
    <rc><c>C </c><c>   2</c></rc>
    <rc><c>C </c><c>   2</c></rc>
    <rc><c>C </c><c>   2</c></rc>
    <rc><c>C </c><c>   2</c></rc>
    <rc><c>C </c><c>   2</c></rc>
    <rc><c>C </c><c>   2</c></rc>
    <rc><c>C </c><c>   2</c></rc>
    <rc><c>C </c><c>   2</c></rc>
    <rc><c>C </c><c>   2</c></rc>
    <rc><c>C </c><c>   2</c></rc>
    <rc><c>C </c><c>   2</c></rc>
    <rc><c>C </c><c>   2</c></rc>
    <rc><c>C </c><c>   2</c></rc>
   </set>
  </array>
  <array name="atomtypes" >
   <dimension dim="1">type</dimension>
   <field type="int">atomspertype</field>
   <field type="string">element</field>
   <field>mass</field>
   <field>valence</field>
   <field type="string">pseudopotential</field>
   <set>
    <rc><c>  36</c><c>Si</c><c>     28.08500000</c><c>      4.00000000</c><c>  PAW_PBE Si 05Jan2001                  </c></rc>
    <rc><c>  84</c><c>C </c><c>     12.01100000</c><c>      4.00000000</c><c>  PAW_PBE C 08Apr2002                   </c></rc>
   </set>
  </array>
 </atominfo>
 <structure name="initialpos" >
  <crystal>
   <varray name="basis" >
    <v>      13.30317974       0.00000000       0.00000000 </v>
    <v>       6.65158939      14.87340641       0.00000000 </v>
    <v>       0.00000000       0.00000000       8.39005947 </v>
   </varray>
   <i name="volume">   1660.08736136 </i>
   <varray name="rec_basis" >
    <v>       0.07517000      -0.03361704       0.00000000 </v>
    <v>       0.00000000       0.06723409       0.00000000 </v>
    <v>       0.00000000       0.00000000       0.11918867 </v>
   </varray>
  </crystal>
  <varray name="positions" >
   <v>       0.98290563       0.65811950       0.00000000 </v>
   <v>       0.78290558       0.55811930       0.14474380 </v>
   <v>       0.58290541       0.45811909       0.28948760 </v>
   <v>       0.98290563       0.32478613       0.00000000 </v>
   <v>       0.78290558       0.22478597       0.14474380 </v>
   <v>       0.58290541       0.12478580       0.28948760 </v>
   <v>       0.98290563       0.99145281       0.00000000 </v>
   <v>       0.78290558       0.89145267       0.14474380 </v>
   <v>       0.58290541       0.79145253       0.28948760 </v>
   <v>       0.63290566       0.69145268       0.07237174 </v>
   <v>       0.43290559       0.59145248       0.21711555 </v>
   <v>       0.23290552       0.49145243       0.36185935 </v>
   <v>       0.63290566       0.35811943       0.07237174 </v>
   <v>       0.43290559       0.25811928       0.21711555 </v>
   <v>       0.23290552       0.15811914       0.36185935 </v>
   <v>       0.63290566       0.02478614       0.07237174 </v>
   <v>       0.43290559       0.92478597       0.21711555 </v>
   <v>       0.23290552       0.82478583       0.36185935 </v>
   <v>       0.48290563       0.65811950       0.00000000 </v>
   <v>       0.28290555       0.55811930       0.14474380 </v>
   <v>       0.08290544       0.45811909       0.28948760 </v>
   <v>       0.48290563       0.32478613       0.00000000 </v>
   <v>       0.28290555       0.22478595       0.14474380 </v>
   <v>       0.08290544       0.12478581       0.28948760 </v>
   <v>       0.48290563       0.99145281       0.00000000 </v>
   <v>       0.28290555       0.89145267       0.14474380 </v>
   <v>       0.08290544       0.79145253       0.28948760 </v>
   <v>       0.13290568       0.69145274       0.07237176 </v>
   <v>       0.93290555       0.59145248       0.21711555 </v>
   <v>       0.73290551       0.49145240       0.36185935 </v>
   <v>       0.13290568       0.35811949       0.07237176 </v>
   <v>       0.93290555       0.25811928       0.21711555 </v>
   <v>       0.73290551       0.15811913       0.36185935 </v>
   <v>       0.13290568       0.02478614       0.07237176 </v>
   <v>       0.93290555       0.92478597       0.21711555 </v>
   <v>       0.73290551       0.82478583       0.36185935 </v>
   <v>       0.36071706       0.13267241       0.56210440 </v>
   <v>       0.33214545       0.40410104       0.65716469 </v>
   <v>       0.30357385       0.67552966       0.75222492 </v>
   <v>       0.50357413       0.27552956       0.56210440 </v>
   <v>       0.47500256       0.54695821       0.65716469 </v>
   <v>       0.44643104       0.81838685       0.75222492 </v>
   <v>       0.64643127       0.41838673       0.56210440 </v>
   <v>       0.61785972       0.68981534       0.65716469 </v>
   <v>       0.58928818       0.96124405       0.75222492 </v>
   <v>       0.78928840       0.56124389       0.56210440 </v>
   <v>       0.76071686       0.83267254       0.65716469 </v>
   <v>       0.73214531       0.10410118       0.75222492 </v>
   <v>       0.93214554       0.70410103       0.56210440 </v>
   <v>       0.90357393       0.97552961       0.65716469 </v>
   <v>       0.87500238       0.24695826       0.75222492 </v>
   <v>       0.07500267       0.84695810       0.56210440 </v>
   <v>       0.04643107       0.11838675       0.65716469 </v>
   <v>       0.01785958       0.38981533       0.75222492 </v>
   <v>       0.21785986       0.98981535       0.56210440 </v>
   <v>       0.18928838       0.26124394       0.65716469 </v>
   <v>       0.16071665       0.53267252       0.75222492 </v>
   <v>       0.45357415       0.87552941       0.60963446 </v>
   <v>       0.42500261       0.14695799       0.70469469 </v>
   <v>       0.39643112       0.41838670       0.79975492 </v>
   <v>       0.59643125       0.01838660       0.60963446 </v>
   <v>       0.56785971       0.28981531       0.70469469 </v>
   <v>       0.53928816       0.56124401       0.79975492 </v>
   <v>       0.73928845       0.16124380       0.60963446 </v>
   <v>       0.71071684       0.43267250       0.70469469 </v>
   <v>       0.68214524       0.70410109       0.79975486 </v>
   <v>       0.88214552       0.30410087       0.60963446 </v>
   <v>       0.85357404       0.57552952       0.70469469 </v>
   <v>       0.82500237       0.84695804       0.79975486 </v>
   <v>       0.02500272       0.44695815       0.60963446 </v>
   <v>       0.99643111       0.71838677       0.70469469 </v>
   <v>       0.96785957       0.98981541       0.79975486 </v>
   <v>       0.16785979       0.58981526       0.60963446 </v>
   <v>       0.13928819       0.86124390       0.70469469 </v>
   <v>       0.11071682       0.13267255       0.79975492 </v>
   <v>       0.31071699       0.73267239       0.60963446 </v>
   <v>       0.28214550       0.00410104       0.70469469 </v>
   <v>       0.25357390       0.27552950       0.79975486 </v>
   <v>       0.43214551       0.70410097       0.56210440 </v>
   <v>       0.40357399       0.97552961       0.65716469 </v>
   <v>       0.37500241       0.24695826       0.75222492 </v>
   <v>       0.57500267       0.84695810       0.56210440 </v>
   <v>       0.54643112       0.11838675       0.65716469 </v>
   <v>       0.51785964       0.38981545       0.75222492 </v>
   <v>       0.71785986       0.98981524       0.56210440 </v>
   <v>       0.68928838       0.26124394       0.65716469 </v>
   <v>       0.66071671       0.53267252       0.75222486 </v>
   <v>       0.86071700       0.13267241       0.56210440 </v>
   <v>       0.83214539       0.40410104       0.65716469 </v>
   <v>       0.80357385       0.67552966       0.75222492 </v>
   <v>       0.00357413       0.27552950       0.56210440 </v>
   <v>       0.97500259       0.54695815       0.65716469 </v>
   <v>       0.94643104       0.81838679       0.75222492 </v>
   <v>       0.14643133       0.41838673       0.56210440 </v>
   <v>       0.11785972       0.68981534       0.65716469 </v>
   <v>       0.08928823       0.96124399       0.75222492 </v>
   <v>       0.28928852       0.56124383       0.56210440 </v>
   <v>       0.26071692       0.83267248       0.65716469 </v>
   <v>       0.23214531       0.10410106       0.75222492 </v>
   <v>       0.38214555       0.30410087       0.60963446 </v>
   <v>       0.35357404       0.57552952       0.70469469 </v>
   <v>       0.32500243       0.84695816       0.79975486 </v>
   <v>       0.52500272       0.44695795       0.60963446 </v>
   <v>       0.49643117       0.71838659       0.70469469 </v>
   <v>       0.46785963       0.98981518       0.79975486 </v>
   <v>       0.66785979       0.58981526       0.60963446 </v>
   <v>       0.63928831       0.86124384       0.70469469 </v>
   <v>       0.61071670       0.13267243       0.79975492 </v>
   <v>       0.81071699       0.73267233       0.60963446 </v>
   <v>       0.78214538       0.00410092       0.70469469 </v>
   <v>       0.75357390       0.27552950       0.79975492 </v>
   <v>       0.95357406       0.87552935       0.60963446 </v>
   <v>       0.92500258       0.14695799       0.70469469 </v>
   <v>       0.89643103       0.41838670       0.79975492 </v>
   <v>       0.09643125       0.01838660       0.60963446 </v>
   <v>       0.06785965       0.28981531       0.70469469 </v>
   <v>       0.03928804       0.56124377       0.79975492 </v>
   <v>       0.23928833       0.16124368       0.60963446 </v>
   <v>       0.21071672       0.43267226       0.70469469 </v>
   <v>       0.18214512       0.70410085       0.79975486 </v>
  </varray>
 </structure>
 <calculation>
  <scstep>
   <time name="dav">   27.45   27.69</time>
   <time name="total">   28.12   28.36</time>
   <energy>
    <i name="alphaZ">    586.39300858 </i>
    <i name="ewald">  -7885.09256333 </i>
    <i name="hartreedc">  -9009.00795921 </i>
    <i name="XCdc">    730.34586055 </i>
    <i name="pawpsdc">  12288.30765307 </i>
    <i name="pawaedc"> -11702.77953025 </i>
    <i name="eentropy">     -0.00099305 </i>
    <i name="bandstr">   1317.28515817 </i>
    <i name="atom">  16071.23009607 </i>
    <i name="e_fr_energy">   2396.68073061 </i>
    <i name="e_wo_entrp">   2396.68172366 </i>
    <i name="e_0_energy">   2396.68122713 </i>
   </energy>
  </scstep>
  <scstep>
   <time name="dav">   31.93   32.21</time>
   <time name="total">   31.93   32.21</time>
   <energy>
    <i name="e_fr_energy">   -497.43214306 </i>
    <i name="e_wo_entrp">   -497.43019120 </i>
    <i name="e_0_energy">   -497.43116713 </i>
   </energy>
  </scstep>
  <scstep>
   <time name="dav">   32.27   32.55</time>
   <time name="total">   32.28   32.56</time>
   <energy>
    <i name="e_fr_energy">   -817.66398533 </i>
    <i name="e_wo_entrp">   -817.66077870 </i>
    <i name="e_0_energy">   -817.66238201 </i>
   </energy>
  </scstep>
  <scstep>
   <time name="dav">   34.46   34.77</time>
   <time name="total">   34.47   34.78</time>
   <energy>
    <i name="e_fr_energy">   -835.40424523 </i>
    <i name="e_wo_entrp">   -835.40128933 </i>
    <i name="e_0_energy">   -835.40276728 </i>
   </energy>
  </scstep>
  <scstep>
   <time name="dav">   36.74   37.07</time>
   <time name="total">   37.90   38.24</time>
   <energy>
    <i name="e_fr_energy">   -836.38669506 </i>
    <i name="e_wo_entrp">   -836.38385340 </i>
    <i name="e_0_energy">   -836.38527423 </i>
   </energy>
  </scstep>
  <scstep>
   <time name="dav">   35.65   36.05</time>
   <time name="total">   37.44   37.85</time>
   <energy>
    <i name="e_fr_energy">   -831.39285956 </i>
    <i name="e_wo_entrp">   -831.39089886 </i>
    <i name="e_0_energy">   -831.39187921 </i>
   </energy>
  </scstep>
  <scstep>
   <time name="dav">   37.19   37.61</time>
   <time name="total">   39.00   39.43</time>
   <energy>
    <i name="e_fr_energy">   -789.18457956 </i>
    <i name="e_wo_entrp">   -789.18233742 </i>
    <i name="e_0_energy">   -789.18345849 </i>
   </energy>
  </scstep>
  <scstep>
   <time name="dav">   35.64   35.96</time>
   <time name="total">   37.44   37.78</time>
   <energy>
    <i name="e_fr_energy">   -794.17770450 </i>
    <i name="e_wo_entrp">   -794.17544555 </i>
    <i name="e_0_energy">   -794.17657503 </i>
   </energy>
  </scstep>
  <scstep>
   <time name="dav">   33.93   34.22</time>
   <time name="total">   35.74   36.03</time>
   <energy>
    <i name="e_fr_energy">   -790.87930833 </i>
    <i name="e_wo_entrp">   -790.87735667 </i>
    <i name="e_0_energy">   -790.87833250 </i>
   </energy>
  </scstep>
  <scstep>
   <time name="dav">   35.14   35.44</time>
   <time name="total">   36.94   37.25</time>
   <energy>
    <i name="e_fr_energy">   -790.63730202 </i>
    <i name="e_wo_entrp">   -790.63506086 </i>
    <i name="e_0_energy">   -790.63618144 </i>
   </energy>
  </scstep>
  <scstep>
   <time name="dav">   34.09   34.39</time>
   <time name="total">   35.90   36.20</time>
   <energy>
    <i name="e_fr_energy">   -790.51765979 </i>
    <i name="e_wo_entrp">   -790.51520160 </i>
    <i name="e_0_energy">   -790.51643069 </i>
   </energy>
  </scstep>
  <scstep>
   <time name="dav">   31.49   31.76</time>
   <time name="total">   33.28   33.56</time>
   <energy>
    <i name="e_fr_energy">   -790.52113656 </i>
    <i name="e_wo_entrp">   -790.51895410 </i>
    <i name="e_0_energy">   -790.52004533 </i>
   </energy>
  </scstep>
  <scstep>
   <time name="dav">   32.44   32.72</time>
   <time name="total">   34.25   34.53</time>
   <energy>
    <i name="e_fr_energy">   -790.52207977 </i>
    <i name="e_wo_entrp">   -790.51978316 </i>
    <i name="e_0_energy">   -790.52093147 </i>
   </energy>
  </scstep>
  <scstep>
   <time name="dav">   33.10   33.41</time>
   <time name="total">   34.92   35.24</time>
   <energy>
    <i name="e_fr_energy">   -790.52153898 </i>
    <i name="e_wo_entrp">   -790.51951276 </i>
    <i name="e_0_energy">   -790.52052587 </i>
   </energy>
  </scstep>
  <scstep>
   <time name="dav">   33.70   34.00</time>
   <time name="total">   35.51   35.82</time>
   <energy>
    <i name="e_fr_energy">   -790.51999113 </i>
    <i name="e_wo_entrp">   -790.51773043 </i>
    <i name="e_0_energy">   -790.51886078 </i>
   </energy>
  </scstep>
  <scstep>
   <time name="dav">   34.80   35.11</time>
   <time name="total">   36.62   36.94</time>
   <energy>
    <i name="e_fr_energy">   -790.51946860 </i>
    <i name="e_wo_entrp">   -790.51728504 </i>
    <i name="e_0_energy">   -790.51837682 </i>
   </energy>
  </scstep>
  <scstep>
   <time name="dav">   34.71   35.02</time>
   <time name="total">   36.52   36.84</time>
   <energy>
    <i name="e_fr_energy">   -790.51944398 </i>
    <i name="e_wo_entrp">   -790.51726235 </i>
    <i name="e_0_energy">   -790.51835316 </i>
   </energy>
  </scstep>
  <scstep>
   <time name="dav">   34.24   34.53</time>
   <time name="total">   36.05   36.35</time>
   <energy>
    <i name="e_fr_energy">   -790.51943200 </i>
    <i name="e_wo_entrp">   -790.51725846 </i>
    <i name="e_0_energy">   -790.51834523 </i>
   </energy>
  </scstep>
  <scstep>
   <time name="dav">   34.31   34.62</time>
   <time name="total">   36.12   36.44</time>
   <energy>
    <i name="e_fr_energy">   -790.51943526 </i>
    <i name="e_wo_entrp">   -790.51726361 </i>
    <i name="e_0_energy">   -790.51834943 </i>
   </energy>
  </scstep>
  <scstep>
   <time name="dav">   34.57   34.87</time>
   <time name="total">   36.37   36.68</time>
   <energy>
    <i name="e_fr_energy">   -790.51943729 </i>
    <i name="e_wo_entrp">   -790.51726878 </i>
    <i name="e_0_energy">   -790.51835303 </i>
   </energy>
  </scstep>
  <scstep>
   <time name="dav">   34.69   34.98</time>
   <time name="total">   36.49   36.79</time>
   <energy>
    <i name="e_fr_energy">   -790.51943804 </i>
    <i name="e_wo_entrp">   -790.51727220 </i>
    <i name="e_0_energy">   -790.51835512 </i>
   </energy>
  </scstep>
  <scstep>
   <time name="dav">   33.96   34.25</time>
   <time name="total">   35.75   36.06</time>
   <energy>
    <i name="e_fr_energy">   -790.51943839 </i>
    <i name="e_wo_entrp">   -790.51727309 </i>
    <i name="e_0_energy">   -790.51835574 </i>
   </energy>
  </scstep>
  <scstep>
   <time name="dav">   35.05   35.36</time>
   <time name="total">   36.85   37.16</time>
   <energy>
    <i name="e_fr_energy">   -790.51943868 </i>
    <i name="e_wo_entrp">   -790.51727396 </i>
    <i name="e_0_energy">   -790.51835632 </i>
   </energy>
  </scstep>
  <scstep>
   <time name="dav">   35.72   36.03</time>
   <time name="total">   37.53   37.84</time>
   <energy>
    <i name="e_fr_energy">   -790.51943890 </i>
    <i name="e_wo_entrp">   -790.51727545 </i>
    <i name="e_0_energy">   -790.51835717 </i>
   </energy>
  </scstep>
  <scstep>
   <time name="dav">   27.13   27.36</time>
   <time name="total">   27.77   28.00</time>
   <energy>
    <i name="alphaZ">    586.39300858 </i>
    <i name="ewald">  -7885.09256333 </i>
    <i name="hartreedc">  -9594.93415171 </i>
    <i name="XCdc">    764.59103863 </i>
    <i name="pawpsdc">  33873.24253736 </i>
    <i name="pawaedc"> -33294.01837205 </i>
    <i name="eentropy">     -0.00216306 </i>
    <i name="bandstr">  -1311.92886940 </i>
    <i name="atom">  16071.23009607 </i>
    <i name="e_fr_energy">   -790.51943890 </i>
    <i name="e_wo_entrp">   -790.51727583 </i>
    <i name="e_0_energy">   -790.51835736 </i>
   </energy>
  </scstep>
  <structure>
   <crystal>
    <varray name="basis" >
     <v>      13.30317974       0.00000000       0.00000000 </v>
     <v>       6.65158939      14.87340641       0.00000000 </v>
     <v>       0.00000000       0.00000000       8.39005947 </v>
    </varray>
    <i name="volume">   1660.08736136 </i>
    <varray name="rec_basis" >
     <v>       0.07517000      -0.03361704       0.00000000 </v>
     <v>       0.00000000       0.06723409       0.00000000 </v>
     <v>       0.00000000       0.00000000       0.11918867 </v>
    </varray>
   </crystal>
   <varray name="positions" >
    <v>       0.98290563       0.65811950       0.00000000 </v>
    <v>       0.78290558       0.55811930       0.14474380 </v>
    <v>       0.58290541       0.45811909       0.28948760 </v>
    <v>       0.98290563       0.32478613       0.00000000 </v>
    <v>       0.78290558       0.22478597       0.14474380 </v>
    <v>       0.58290541       0.12478580       0.28948760 </v>
    <v>       0.98290563       0.99145281       0.00000000 </v>
    <v>       0.78290558       0.89145267       0.14474380 </v>
    <v>       0.58290541       0.79145253       0.28948760 </v>
    <v>       0.63290566       0.69145268       0.07237174 </v>
    <v>       0.43290559       0.59145248       0.21711555 </v>
    <v>       0.23290552       0.49145243       0.36185935 </v>
    <v>       0.63290566       0.35811943       0.07237174 </v>
    <v>       0.43290559       0.25811928       0.21711555 </v>
    <v>       0.23290552       0.15811914       0.36185935 </v>
    <v>       0.63290566       0.02478614       0.07237174 </v>
    <v>       0.43290559       0.92478597       0.21711555 </v>
    <v>       0.23290552       0.82478583       0.36185935 </v>
    <v>       0.48290563       0.65811950       0.00000000 </v>
    <v>       0.28290555       0.55811930       0.14474380 </v>
    <v>       0.08290544       0.45811909       0.28948760 </v>
    <v>       0.48290563       0.32478613       0.00000000 </v>
    <v>       0.28290555       0.22478595       0.14474380 </v>
    <v>       0.08290544       0.12478581       0.28948760 </v>
    <v>       0.48290563       0.99145281       0.00000000 </v>
    <v>       0.28290555       0.89145267       0.14474380 </v>
    <v>       0.08290544       0.79145253       0.28948760 </v>
    <v>       0.13290568       0.69145274       0.07237176 </v>
    <v>       0.93290555       0.59145248       0.21711555 </v>
    <v>       0.73290551       0.49145240       0.36185935 </v>
    <v>       0.13290568       0.35811949       0.07237176 </v>
    <v>       0.93290555       0.25811928       0.21711555 </v>
    <v>       0.73290551       0.15811913       0.36185935 </v>
    <v>       0.13290568       0.02478614       0.07237176 </v>
    <v>       0.93290555       0.92478597       0.21711555 </v>
    <v>       0.73290551       0.82478583       0.36185935 </v>
    <v>       0.36071706       0.13267241       0.56210440 </v>
    <v>       0.33214545       0.40410104       0.65716469 </v>
    <v>       0.30357385       0.67552966       0.75222492 </v>
    <v>       0.50357413       0.27552956       0.56210440 </v>
    <v>       0.47500256       0.54695821       0.65716469 </v>
    <v>       0.44643104       0.81838685       0.75222492 </v>
    <v>       0.64643127       0.41838673       0.56210440 </v>
    <v>       0.61785972       0.68981534       0.65716469 </v>
    <v>       0.58928818       0.96124405       0.75222492 </v>
    <v>       0.78928840       0.56124389       0.56210440 </v>
    <v>       0.76071686       0.83267254       0.65716469 </v>
    <v>       0.73214531       0.10410118       0.75222492 </v>
    <v>       0.93214554       0.70410103       0.56210440 </v>
    <v>       0.90357393       0.97552961       0.65716469 </v>
    <v>       0.87500238       0.24695826       0.75222492 </v>
    <v>       0.07500267       0.84695810       0.56210440 </v>
    <v>       0.04643107       0.11838675       0.65716469 </v>
    <v>       0.01785958       0.38981533       0.75222492 </v>
    <v>       0.21785986       0.98981535       0.56210440 </v>
    <v>       0.18928838       0.26124394       0.65716469 </v>
    <v>       0.16071665       0.53267252       0.75222492 </v>
    <v>       0.45357415       0.87552941       0.60963446 </v>
    <v>       0.42500261       0.14695799       0.70469469 </v>
    <v>       0.39643112       0.41838670       0.79975492 </v>
    <v>       0.59643125       0.01838660       0.60963446 </v>
    <v>       0.56785971       0.28981531       0.70469469 </v>
    <v>       0.53928816       0.56124401       0.79975492 </v>
    <v>       0.73928845       0.16124380       0.60963446 </v>
    <v>       0.71071684       0.43267250       0.70469469 </v>
    <v>       0.68214524       0.70410109       0.79975486 </v>
    <v>       0.88214552       0.30410087       0.60963446 </v>
    <v>       0.85357404       0.57552952       0.70469469 </v>
    <v>       0.82500237       0.84695804       0.79975486 </v>
    <v>       0.02500272       0.44695815       0.60963446 </v>
    <v>       0.99643111       0.71838677       0.70469469 </v>
    <v>       0.96785957       0.98981541       0.79975486 </v>
    <v>       0.16785979       0.58981526       0.60963446 </v>
    <v>       0.13928819       0.86124390       0.70469469 </v>
    <v>       0.11071682       0.13267255       0.79975492 </v>
    <v>       0.31071699       0.73267239       0.60963446 </v>
    <v>       0.28214550       0.00410104       0.70469469 </v>
    <v>       0.25357390       0.27552950       0.79975486 </v>
    <v>       0.43214551       0.70410097       0.56210440 </v>
    <v>       0.40357399       0.97552961       0.65716469 </v>
    <v>       0.37500241       0.24695826       0.75222492 </v>
    <v>       0.57500267       0.84695810       0.56210440 </v>
    <v>       0.54643112       0.11838675       0.65716469 </v>
    <v>       0.51785964       0.38981545       0.75222492 </v>
    <v>       0.71785986       0.98981524       0.56210440 </v>
    <v>       0.68928838       0.26124394       0.65716469 </v>
    <v>       0.66071671       0.53267252       0.75222486 </v>
    <v>       0.86071700       0.13267241       0.56210440 </v>
    <v>       0.83214539       0.40410104       0.65716469 </v>
    <v>       0.80357385       0.67552966       0.75222492 </v>
    <v>       0.00357413       0.27552950       0.56210440 </v>
    <v>       0.97500259       0.54695815       0.65716469 </v>
    <v>       0.94643104       0.81838679       0.75222492 </v>
    <v>       0.14643133       0.41838673       0.56210440 </v>
    <v>       0.11785972       0.68981534       0.65716469 </v>
    <v>       0.08928823       0.96124399       0.75222492 </v>
    <v>       0.28928852       0.56124383       0.56210440 </v>
    <v>       0.26071692       0.83267248       0.65716469 </v>
    <v>       0.23214531       0.10410106       0.75222492 </v>
    <v>       0.38214555       0.30410087       0.60963446 </v>
    <v>       0.35357404       0.57552952       0.70469469 </v>
    <v>       0.32500243       0.84695816       0.79975486 </v>
    <v>       0.52500272       0.44695795       0.60963446 </v>
    <v>       0.49643117       0.71838659       0.70469469 </v>
    <v>       0.46785963       0.98981518       0.79975486 </v>
    <v>       0.66785979       0.58981526       0.60963446 </v>
    <v>       0.63928831       0.86124384       0.70469469 </v>
    <v>       0.61071670       0.13267243       0.79975492 </v>
    <v>       0.81071699       0.73267233       0.60963446 </v>
    <v>       0.78214538       0.00410092       0.70469469 </v>
    <v>       0.75357390       0.27552950       0.79975492 </v>
    <v>       0.95357406       0.87552935       0.60963446 </v>
    <v>       0.92500258       0.14695799       0.70469469 </v>
    <v>       0.89643103       0.41838670       0.79975492 </v>
    <v>       0.09643125       0.01838660       0.60963446 </v>
    <v>       0.06785965       0.28981531       0.70469469 </v>
    <v>       0.03928804       0.56124377       0.79975492 </v>
    <v>       0.23928833       0.16124368       0.60963446 </v>
    <v>       0.21071672       0.43267226       0.70469469 </v>
    <v>       0.18214512       0.70410085       0.79975486 </v>
   </varray>
  </structure>
  <varray name="forces" >
   <v>      -0.53746446      -1.48223801      -2.14467105 </v>
   <v>       0.59069679       0.13312232       0.16398133 </v>
   <v>       0.21784439      -0.14691934       0.60867705 </v>
   <v>      -1.02397541       0.51963826      -1.26497176 </v>
   <v>       0.06708237      -0.04816223       0.11398554 </v>
   <v>       0.07167895      -0.30267892      -0.01856045 </v>
   <v>       0.19320997       0.04961725       3.40744661 </v>
   <v>       0.78766630      -0.09523653      -0.56555900 </v>
   <v>       0.46072065       0.55164815       1.13719487 </v>
   <v>       0.52606840      -0.31408984      -2.12511711 </v>
   <v>      -0.72220356       0.41744140       0.01776363 </v>
   <v>       1.19054096       0.83768341       1.04825613 </v>
   <v>       0.33944230      -0.51275143      -0.87888070 </v>
   <v>      -0.32572038       0.17081019       0.01892871 </v>
   <v>       0.32854614      -0.26221986       1.38630025 </v>
   <v>      -0.33358144       0.53566038      -0.72290954 </v>
   <v>      -0.51358350       0.17494380      -0.42065684 </v>
   <v>      -0.56628201      -0.28302980       0.67556790 </v>
   <v>      -0.53746446      -1.48223801      -2.14467105 </v>
   <v>       0.59069679       0.13312232       0.16398133 </v>
   <v>       0.21784439      -0.14691934       0.60867705 </v>
   <v>      -1.02397541       0.51963826      -1.26497176 </v>
   <v>       0.06708237      -0.04816223       0.11398554 </v>
   <v>       0.07167895      -0.30267892      -0.01856045 </v>
   <v>       0.19320997       0.04961725       3.40744661 </v>
   <v>       0.78766630      -0.09523653      -0.56555900 </v>
   <v>       0.46072065       0.55164815       1.13719487 </v>
   <v>       0.52606840      -0.31408984      -2.12511711 </v>
   <v>      -0.72220356       0.41744140       0.01776363 </v>
   <v>       1.19054096       0.83768341       1.04825613 </v>
   <v>       0.33944230      -0.51275143      -0.87888070 </v>
   <v>      -0.32572038       0.17081019       0.01892871 </v>
   <v>       0.32854614      -0.26221986       1.38630025 </v>
   <v>      -0.33358144       0.53566038      -0.72290954 </v>
   <v>      -0.51358350       0.17494380      -0.42065684 </v>
   <v>      -0.56628201      -0.28302980       0.67556790 </v>
   <v>      -1.28380746      -0.12534434       2.65936845 </v>
   <v>      -2.72940013      -0.79670055       3.51262960 </v>
   <v>      -3.77101554       0.14379356      -1.71839669 </v>
   <v>      -1.50849253      -0.02124916       3.10152729 </v>
   <v>      -1.82081328      -0.42584931       4.27725491 </v>
   <v>      -3.77339251       0.47416511      -3.23033803 </v>
   <v>      -1.86509928      -0.09348189       2.61947533 </v>
   <v>      -2.19704746      -0.50248288       4.06027078 </v>
   <v>      -2.92491718       0.05763706      -3.02958749 </v>
   <v>      -2.42509915      -0.42381885       2.08751048 </v>
   <v>      -1.72607853      -0.75823699       3.97865435 </v>
   <v>      -4.43277704       0.10293602      -1.47793469 </v>
   <v>      -1.19175929       0.00363091       2.99773474 </v>
   <v>      -2.19229792      -0.24057016       3.83940980 </v>
   <v>      -3.95645117       0.52753199      -2.50816694 </v>
   <v>      -1.41531014      -0.05567519       2.00360018 </v>
   <v>      -2.18943568      -0.71535489       3.73435057 </v>
   <v>      -3.25361137       1.02744957      -3.24284602 </v>
   <v>      -1.49854530       0.16542926       2.70906337 </v>
   <v>      -1.13106016      -0.12001799       4.54313624 </v>
   <v>      -3.77192256      -0.03731099      -2.05640254 </v>
   <v>       3.74004660       0.08453965       2.81785725 </v>
   <v>       2.20830231       0.78502566      -4.56188368 </v>
   <v>       2.00090514      -1.58824708      -0.73609980 </v>
   <v>       3.87951959      -0.08168388       2.56200148 </v>
   <v>       1.58723205       0.45928711      -3.92978334 </v>
   <v>       1.45052446       0.51427291      -1.75431072 </v>
   <v>       3.14858433       0.67264397       0.32328103 </v>
   <v>       2.52067612       0.74298434      -3.51709119 </v>
   <v>       1.06328751      -0.37927693      -1.31592255 </v>
   <v>       4.03342398      -0.14025496       2.75864436 </v>
   <v>       2.13392087       0.16669387      -4.22235245 </v>
   <v>       1.40142220       0.14197087      -2.41345832 </v>
   <v>       3.98710261      -0.01031335       2.26057088 </v>
   <v>       2.17343279       1.05492224      -3.83955437 </v>
   <v>       0.45419575      -0.61210456      -4.95283870 </v>
   <v>       3.65026927      -0.01644293       1.90592821 </v>
   <v>       1.83115295       0.15368978      -3.61116625 </v>
   <v>       2.09988652      -1.14547526      -2.11192120 </v>
   <v>       3.60303013       0.33234045       1.38538305 </v>
   <v>       2.19386621       0.76990946      -3.96748614 </v>
   <v>       1.14686581      -0.03420084      -2.37688681 </v>
   <v>      -1.19175929       0.00363091       2.99773474 </v>
   <v>      -2.19229792      -0.24057016       3.83940980 </v>
   <v>      -3.95645117       0.52753199      -2.50816694 </v>
   <v>      -1.41531014      -0.05567519       2.00360018 </v>
   <v>      -2.18943568      -0.71535489       3.73435057 </v>
   <v>      -3.25361137       1.02744957      -3.24284602 </v>
   <v>      -1.49854530       0.16542926       2.70906337 </v>
   <v>      -1.13106016      -0.12001799       4.54313624 </v>
   <v>      -3.77192256      -0.03731099      -2.05640254 </v>
   <v>      -1.28380746      -0.12534434       2.65936845 </v>
   <v>      -2.72940013      -0.79670055       3.51262960 </v>
   <v>      -3.77101554       0.14379356      -1.71839669 </v>
   <v>      -1.50849253      -0.02124916       3.10152729 </v>
   <v>      -1.82081328      -0.42584931       4.27725491 </v>
   <v>      -3.77339251       0.47416511      -3.23033803 </v>
   <v>      -1.86509928      -0.09348189       2.61947533 </v>
   <v>      -2.19704746      -0.50248288       4.06027078 </v>
   <v>      -2.92491718       0.05763706      -3.02958749 </v>
   <v>      -2.42509915      -0.42381885       2.08751048 </v>
   <v>      -1.72607853      -0.75823699       3.97865435 </v>
   <v>      -4.43277704       0.10293602      -1.47793469 </v>
   <v>       4.03342398      -0.14025496       2.75864436 </v>
   <v>       2.13392087       0.16669387      -4.22235245 </v>
   <v>       1.40142220       0.14197087      -2.41345832 </v>
   <v>       3.98710261      -0.01031335       2.26057088 </v>
   <v>       2.17343279       1.05492224      -3.83955437 </v>
   <v>       0.45419575      -0.61210456      -4.95283870 </v>
   <v>       3.65026927      -0.01644293       1.90592821 </v>
   <v>       1.83115295       0.15368978      -3.61116625 </v>
   <v>       2.09988652      -1.14547526      -2.11192120 </v>
   <v>       3.60303013       0.33234045       1.38538305 </v>
   <v>       2.19386621       0.76990946      -3.96748614 </v>
   <v>       1.14686581      -0.03420084      -2.37688681 </v>
   <v>       3.74004660       0.08453965       2.81785725 </v>
   <v>       2.20830231       0.78502566      -4.56188368 </v>
   <v>       2.00090514      -1.58824708      -0.73609980 </v>
   <v>       3.87951959      -0.08168388       2.56200148 </v>
   <v>       1.58723205       0.45928711      -3.92978334 </v>
   <v>       1.45052446       0.51427291      -1.75431072 </v>
   <v>       3.14858433       0.67264397       0.32328103 </v>
   <v>       2.52067612       0.74298434      -3.51709119 </v>
   <v>       1.06328751      -0.37927693      -1.31592255 </v>
  </varray>
  <varray name="stress" >
   <v>     -82.93938652       1.28015923     -27.08957970 </v>
   <v>       1.28029636     -96.58316576      -2.91972785 </v>
   <v>     -27.08963377      -2.91968684    -206.60791744 </v>
  </varray>
  <energy>
   <i name="e_fr_energy">   -790.51943890 </i>
   <i name="e_wo_entrp">   -790.51727583 </i>
   <i name="e_0_energy">   -790.51835736 </i>
  </energy>
  <time name="totalsc">  914.77  923.17</time>
  <eigenvalues>
   <array>
    <dimension dim="1">band</dimension>
    <dimension dim="2">kpoint</dimension>
    <dimension dim="3">spin</dimension>
    <field>eigene</field>
    <field>occ</field>
    <set>
     <set comment="spin 1">
      <set comment="kpoint 1">
       <r>  -14.2171    1.0000 </r>
       <r>  -13.7936    1.0000 </r>
       <r>  -13.7432    1.0000 </r>
       <r>  -13.5514    1.0000 </r>
       <r>  -13.5399    1.0000 </r>
       <r>  -13.5136    1.0000 </r>
       <r>  -13.4745    1.0000 </r>
       <r>  -13.0308    1.0000 </r>
       <r>  -12.7282    1.0000 </r>
       <r>  -12.7033    1.0000 </r>
       <r>  -12.5981    1.0000 </r>
       <r>  -12.5682    1.0000 </r>
       <r>  -12.0434    1.0000 </r>
       <r>  -12.0251    1.0000 </r>
       <r>  -11.8216    1.0000 </r>
       <r>  -11.4880    1.0000 </r>
       <r>  -11.4538    1.0000 </r>
       <r>  -11.2192    1.0000 </r>
       <r>  -11.1656    1.0000 </r>
       <r>  -10.9550    1.0000 </r>
       <r>  -10.9277    1.0000 </r>
       <r>  -10.5904    1.0000 </r>
       <r>  -10.5523    1.0000 </r>
       <r>  -10.1032    1.0000 </r>
       <r>   -9.8888    1.0000 </r>
       <r>   -9.8746    1.0000 </r>
       <r>   -9.8232    1.0000 </r>
       <r>   -9.7762    1.0000 </r>
       <r>   -9.7384    1.0000 </r>
       <r>   -9.7147    1.0000 </r>
       <r>   -9.4997    1.0000 </r>
       <r>   -9.2045    1.0000 </r>
       <r>   -9.1318    1.0000 </r>
       <r>   -9.0904    1.0000 </r>
       <r>   -9.0333    1.0000 </r>
       <r>   -8.9701    1.0000 </r>
       <r>   -8.8620    1.0000 </r>
       <r>   -8.7917    1.0000 </r>
       <r>   -8.6134    1.0000 </r>
       <r>   -8.4354    1.0000 </r>
       <r>   -8.3674    1.0000 </r>
       <r>   -7.6909    1.0000 </r>
       <r>   -7.6775    1.0000 </r>
       <r>   -7.6148    1.0000 </r>
       <r>   -7.4757    1.0000 </r>
       <r>   -6.8816    1.0000 </r>
       <r>   -6.7375    1.0000 </r>
       <r>   -6.7023    1.0000 </r>
       <r>   -6.6158    1.0000 </r>
       <r>   -6.5824    1.0000 </r>
       <r>   -6.4616    1.0000 </r>
       <r>   -6.4431    1.0000 </r>
       <r>   -6.3563    1.0000 </r>
       <r>   -6.1137    1.0000 </r>
       <r>   -6.0532    1.0000 </r>
       <r>   -5.9836    1.0000 </r>
       <r>   -5.9733    1.0000 </r>
       <r>   -5.9425    1.0000 </r>
       <r>   -5.8493    1.0000 </r>
       <r>   -5.6917    1.0000 </r>
       <r>   -5.6881    1.0000 </r>
       <r>   -5.6242    1.0000 </r>
       <r>   -5.6077    1.0000 </r>
       <r>   -5.6004    1.0000 </r>
       <r>   -5.4200    1.0000 </r>
       <r>   -5.3319    1.0000 </r>
       <r>   -5.2885    1.0000 </r>
       <r>   -5.1844    1.0000 </r>
       <r>   -5.0823    1.0000 </r>
       <r>   -5.0485    1.0000 </r>
       <r>   -5.0126    1.0000 </r>
       <r>   -4.9769    1.0000 </r>
       <r>   -4.9696    1.0000 </r>
       <r>   -4.8626    1.0000 </r>
       <r>   -4.7848    1.0000 </r>
       <r>   -4.7470    1.0000 </r>
       <r>   -4.6079    1.0000 </r>
       <r>   -4.5921    1.0000 </r>
       <r>   -4.4385    1.0000 </r>
       <r>   -4.3284    1.0000 </r>
       <r>   -4.3178    1.0000 </r>
       <r>   -4.2656    1.0000 </r>
       <r>   -4.2518    1.0000 </r>
       <r>   -4.1484    1.0000 </r>
       <r>   -4.1067    1.0000 </r>
       <r>   -4.0051    1.0000 </r>
       <r>   -3.9622    1.0000 </r>
       <r>   -3.9357    1.0000 </r>
       <r>   -3.8914    1.0000 </r>
       <r>   -3.8339    1.0000 </r>
       <r>   -3.7971    1.0000 </r>
       <r>   -3.7031    1.0000 </r>
       <r>   -3.6698    1.0000 </r>
       <r>   -3.5639    1.0000 </r>
       <r>   -3.5395    1.0000 </r>
       <r>   -3.4783    1.0000 </r>
       <r>   -3.4315    1.0000 </r>
       <r>   -3.3285    1.0000 </r>
       <r>   -3.2138    1.0000 </r>
       <r>   -3.1381    1.0000 </r>
       <r>   -3.0085    1.0000 </r>
       <r>   -2.8852    1.0000 </r>
       <r>   -2.7559    1.0000 </r>
       <r>   -2.6662    1.0000 </r>
       <r>   -2.6593    1.0000 </r>
       <r>   -2.6483    1.0000 </r>
       <r>   -2.5916    1.0000 </r>
       <r>   -2.5217    1.0000 </r>
       <r>   -2.4730    1.0000 </r>
       <r>   -2.4510    1.0000 </r>
       <r>   -2.4068    1.0000 </r>
       <r>   -2.2475    1.0000 </r>
       <r>   -2.1949    1.0000 </r>
       <r>   -2.1722    1.0000 </r>
       <r>   -2.0196    1.0000 </r>
       <r>   -1.9820    1.0000 </r>
       <r>   -1.9355    1.0000 </r>
       <r>   -1.8512    1.0000 </r>
       <r>   -1.8181    1.0000 </r>
       <r>   -1.7696    1.0000 </r>
       <r>   -1.7502    1.0000 </r>
       <r>   -1.7414    1.0000 </r>
       <r>   -1.6859    1.0000 </r>
       <r>   -1.6412    1.0000 </r>
       <r>   -1.6146    1.0000 </r>
       <r>   -1.5751    1.0000 </r>
       <r>   -1.4818    1.0000 </r>
       <r>   -1.3659    1.0000 </r>
       <r>   -1.3430    1.0000 </r>
       <r>   -1.3416    1.0000 </r>
       <r>   -1.2096    1.0000 </r>
       <r>   -1.1762    1.0000 </r>
       <r>   -1.1084    1.0000 </r>
       <r>   -1.0404    1.0000 </r>
       <r>   -1.0260    1.0000 </r>
       <r>   -1.0108    1.0000 </r>
       <r>   -0.9136    1.0000 </r>
       <r>   -0.8722    1.0000 </r>
       <r>   -0.8603    1.0000 </r>
       <r>   -0.7979    1.0000 </r>
       <r>   -0.6954    1.0000 </r>
       <r>   -0.6603    1.0000 </r>
       <r>   -0.6283    1.0000 </r>
       <r>   -0.6233    1.0000 </r>
       <r>   -0.5618    1.0000 </r>
       <r>   -0.5533    1.0000 </r>
       <r>   -0.3615    1.0000 </r>
       <r>   -0.2446    1.0000 </r>
       <r>   -0.2250    1.0000 </r>
       <r>   -0.2026    1.0000 </r>
       <r>   -0.1327    1.0000 </r>
       <r>   -0.1293    1.0000 </r>
       <r>   -0.0378    1.0000 </r>
       <r>    0.0456    1.0000 </r>
       <r>    0.0730    1.0000 </r>
       <r>    0.1228    1.0000 </r>
       <r>    0.1448    1.0000 </r>
       <r>    0.1632    1.0000 </r>
       <r>    0.2481    1.0000 </r>
       <r>    0.3071    1.0000 </r>
       <r>    0.3574    1.0000 </r>
       <r>    0.3763    1.0000 </r>
       <r>    0.3963    1.0000 </r>
       <r>    0.4574    1.0000 </r>
       <r>    0.6232    1.0000 </r>
       <r>    0.6423    1.0000 </r>
       <r>    0.6508    1.0000 </r>
       <r>    0.7134    1.0000 </r>
       <r>    0.7251    1.0000 </r>
       <r>    0.8374    1.0000 </r>
       <r>    0.8441    1.0000 </r>
       <r>    0.8935    1.0000 </r>
       <r>    0.9093    1.0000 </r>
       <r>    1.0490    1.0000 </r>
       <r>    1.0563    1.0000 </r>
       <r>    1.0984    1.0000 </r>
       <r>    1.1264    1.0000 </r>
       <r>    1.2154    1.0000 </r>
       <r>    1.2681    1.0000 </r>
       <r>    1.2925    1.0000 </r>
       <r>    1.3260    1.0000 </r>
       <r>    1.3989    1.0000 </r>
       <r>    1.4084    1.0000 </r>
       <r>    1.5079    1.0000 </r>
       <r>    1.5838    1.0000 </r>
       <r>    1.5964    1.0000 </r>
       <r>    1.6787    1.0000 </r>
       <r>    1.7316    1.0000 </r>
       <r>    1.7479    1.0000 </r>
       <r>    1.7883    1.0000 </r>
       <r>    1.8455    1.0000 </r>
       <r>    1.8929    1.0000 </r>
       <r>    1.9446    1.0000 </r>
       <r>    1.9617    1.0000 </r>
       <r>    1.9644    1.0000 </r>
       <r>    2.0180    1.0000 </r>
       <r>    2.0436    1.0000 </r>
       <r>    2.0850    1.0000 </r>
       <r>    2.1283    1.0000 </r>
       <r>    2.1418    1.0000 </r>
       <r>    2.2025    1.0000 </r>
       <r>    2.2380    1.0000 </r>
       <r>    2.2821    1.0000 </r>
       <r>    2.3445    1.0000 </r>
       <r>    2.3987    1.0000 </r>
       <r>    2.4277    1.0000 </r>
       <r>    2.4713    1.0000 </r>
       <r>    2.4795    1.0000 </r>
       <r>    2.5655    1.0000 </r>
       <r>    2.5827    1.0000 </r>
       <r>    2.6758    1.0000 </r>
       <r>    2.6926    1.0000 </r>
       <r>    2.7254    1.0000 </r>
       <r>    2.7384    1.0000 </r>
       <r>    2.7678    1.0000 </r>
       <r>    2.8050    1.0000 </r>
       <r>    2.8073    1.0000 </r>
       <r>    2.8431    1.0000 </r>
       <r>    2.8663    1.0000 </r>
       <r>    2.9265    1.0000 </r>
       <r>    2.9812    1.0000 </r>
       <r>    3.0111    1.0000 </r>
       <r>    3.0505    1.0000 </r>
       <r>    3.0769    1.0000 </r>
       <r>    3.1215    1.0000 </r>
       <r>    3.1964    1.0000 </r>
       <r>    3.2075    1.0000 </r>
       <r>    3.3299    1.0000 </r>
       <r>    3.3457    1.0000 </r>
       <r>    3.4016    1.0000 </r>
       <r>    3.4172    1.0000 </r>
       <r>    3.4314    1.0000 </r>
       <r>    3.5356    1.0000 </r>
       <r>    3.5958    1.0000 </r>
       <r>    3.6088    1.0000 </r>
       <r>    3.6320    1.0000 </r>
       <r>    3.6586    1.0000 </r>
       <r>    3.6824    1.0000 </r>
       <r>    3.6850    1.0000 </r>
       <r>    3.7866    1.0000 </r>
       <r>    3.7958    1.0000 </r>
       <r>    3.8721    0.0367 </r>
       <r>    3.8737    0.0218 </r>
       <r>    3.9282    0.0000 </r>
       <r>    3.9356    0.0000 </r>
       <r>    3.9944    0.0000 </r>
       <r>    4.0419    0.0000 </r>
       <r>    4.0852    0.0000 </r>
       <r>    4.1057    0.0000 </r>
       <r>    4.1793    0.0000 </r>
       <r>    4.1966    0.0000 </r>
       <r>    4.3024    0.0000 </r>
       <r>    4.3464    0.0000 </r>
       <r>    4.3659    0.0000 </r>
       <r>    4.3784    0.0000 </r>
       <r>    4.4288    0.0000 </r>
       <r>    4.4325    0.0000 </r>
       <r>    4.5196    0.0000 </r>
       <r>    4.6054    0.0000 </r>
       <r>    4.6378    0.0000 </r>
       <r>    4.6615    0.0000 </r>
       <r>    4.6665    0.0000 </r>
       <r>    4.7832    0.0000 </r>
       <r>    4.7944    0.0000 </r>
       <r>    4.8183    0.0000 </r>
       <r>    4.9115    0.0000 </r>
       <r>    4.9200    0.0000 </r>
       <r>    4.9496    0.0000 </r>
       <r>    4.9822    0.0000 </r>
       <r>    5.0026    0.0000 </r>
       <r>    5.0808    0.0000 </r>
       <r>    5.2350    0.0000 </r>
       <r>    5.2468    0.0000 </r>
       <r>    5.3028    0.0000 </r>
       <r>    5.3852    0.0000 </r>
       <r>    5.4218    0.0000 </r>
       <r>    5.4842    0.0000 </r>
       <r>    5.5545    0.0000 </r>
       <r>    5.5857    0.0000 </r>
       <r>    5.5924    0.0000 </r>
       <r>    5.7305    0.0000 </r>
       <r>    5.7582    0.0000 </r>
       <r>    5.8053    0.0000 </r>
       <r>    5.8314    0.0000 </r>
       <r>    5.8992    0.0000 </r>
       <r>    5.9633    0.0000 </r>
       <r>    5.9799    0.0000 </r>
       <r>    6.1310    0.0000 </r>
      </set>
      <set comment="kpoint 2">
       <r>  -14.1379    1.0000 </r>
       <r>  -13.9031    1.0000 </r>
       <r>  -13.8415    1.0000 </r>
       <r>  -13.7573    1.0000 </r>
       <r>  -13.5523    1.0000 </r>
       <r>  -13.2457    1.0000 </r>
       <r>  -13.1293    1.0000 </r>
       <r>  -13.0271    1.0000 </r>
       <r>  -12.7854    1.0000 </r>
       <r>  -12.7573    1.0000 </r>
       <r>  -12.6049    1.0000 </r>
       <r>  -12.5635    1.0000 </r>
       <r>  -12.4926    1.0000 </r>
       <r>  -12.1372    1.0000 </r>
       <r>  -11.5291    1.0000 </r>
       <r>  -11.4764    1.0000 </r>
       <r>  -11.3080    1.0000 </r>
       <r>  -11.2108    1.0000 </r>
       <r>  -11.0115    1.0000 </r>
       <r>  -10.9030    1.0000 </r>
       <r>  -10.8573    1.0000 </r>
       <r>  -10.7826    1.0000 </r>
       <r>  -10.6997    1.0000 </r>
       <r>  -10.1231    1.0000 </r>
       <r>   -9.9576    1.0000 </r>
       <r>   -9.8527    1.0000 </r>
       <r>   -9.7936    1.0000 </r>
       <r>   -9.6617    1.0000 </r>
       <r>   -9.6265    1.0000 </r>
       <r>   -9.5389    1.0000 </r>
       <r>   -9.4205    1.0000 </r>
       <r>   -9.3220    1.0000 </r>
       <r>   -9.3058    1.0000 </r>
       <r>   -9.1971    1.0000 </r>
       <r>   -9.1412    1.0000 </r>
       <r>   -8.9729    1.0000 </r>
       <r>   -8.8531    1.0000 </r>
       <r>   -8.7321    1.0000 </r>
       <r>   -8.6837    1.0000 </r>
       <r>   -8.6179    1.0000 </r>
       <r>   -8.4209    1.0000 </r>
       <r>   -8.1050    1.0000 </r>
       <r>   -7.4344    1.0000 </r>
       <r>   -7.2605    1.0000 </r>
       <r>   -6.9391    1.0000 </r>
       <r>   -6.8480    1.0000 </r>
       <r>   -6.8062    1.0000 </r>
       <r>   -6.6236    1.0000 </r>
       <r>   -6.6107    1.0000 </r>
       <r>   -6.5667    1.0000 </r>
       <r>   -6.4264    1.0000 </r>
       <r>   -6.3325    1.0000 </r>
       <r>   -6.2882    1.0000 </r>
       <r>   -6.2171    1.0000 </r>
       <r>   -6.1721    1.0000 </r>
       <r>   -6.1023    1.0000 </r>
       <r>   -6.0122    1.0000 </r>
       <r>   -5.9844    1.0000 </r>
       <r>   -5.9249    1.0000 </r>
       <r>   -5.7827    1.0000 </r>
       <r>   -5.7291    1.0000 </r>
       <r>   -5.7207    1.0000 </r>
       <r>   -5.5411    1.0000 </r>
       <r>   -5.4838    1.0000 </r>
       <r>   -5.3608    1.0000 </r>
       <r>   -5.3201    1.0000 </r>
       <r>   -5.3193    1.0000 </r>
       <r>   -5.2839    1.0000 </r>
       <r>   -5.1641    1.0000 </r>
       <r>   -5.0783    1.0000 </r>
       <r>   -5.0689    1.0000 </r>
       <r>   -4.9526    1.0000 </r>
       <r>   -4.9426    1.0000 </r>
       <r>   -4.9232    1.0000 </r>
       <r>   -4.8772    1.0000 </r>
       <r>   -4.7519    1.0000 </r>
       <r>   -4.7095    1.0000 </r>
       <r>   -4.5811    1.0000 </r>
       <r>   -4.5721    1.0000 </r>
       <r>   -4.4890    1.0000 </r>
       <r>   -4.3615    1.0000 </r>
       <r>   -4.3372    1.0000 </r>
       <r>   -4.2359    1.0000 </r>
       <r>   -4.2028    1.0000 </r>
       <r>   -4.1169    1.0000 </r>
       <r>   -4.0079    1.0000 </r>
       <r>   -3.9976    1.0000 </r>
       <r>   -3.9301    1.0000 </r>
       <r>   -3.8881    1.0000 </r>
       <r>   -3.8375    1.0000 </r>
       <r>   -3.7308    1.0000 </r>
       <r>   -3.6633    1.0000 </r>
       <r>   -3.5997    1.0000 </r>
       <r>   -3.5347    1.0000 </r>
       <r>   -3.4119    1.0000 </r>
       <r>   -3.3731    1.0000 </r>
       <r>   -3.2828    1.0000 </r>
       <r>   -3.0979    1.0000 </r>
       <r>   -3.0894    1.0000 </r>
       <r>   -2.9281    1.0000 </r>
       <r>   -2.8314    1.0000 </r>
       <r>   -2.7812    1.0000 </r>
       <r>   -2.7710    1.0000 </r>
       <r>   -2.7082    1.0000 </r>
       <r>   -2.6790    1.0000 </r>
       <r>   -2.6256    1.0000 </r>
       <r>   -2.6048    1.0000 </r>
       <r>   -2.4629    1.0000 </r>
       <r>   -2.4455    1.0000 </r>
       <r>   -2.3569    1.0000 </r>
       <r>   -2.3352    1.0000 </r>
       <r>   -2.2638    1.0000 </r>
       <r>   -2.2506    1.0000 </r>
       <r>   -2.2115    1.0000 </r>
       <r>   -2.0805    1.0000 </r>
       <r>   -2.0661    1.0000 </r>
       <r>   -1.9455    1.0000 </r>
       <r>   -1.9025    1.0000 </r>
       <r>   -1.8894    1.0000 </r>
       <r>   -1.8190    1.0000 </r>
       <r>   -1.8084    1.0000 </r>
       <r>   -1.7084    1.0000 </r>
       <r>   -1.6680    1.0000 </r>
       <r>   -1.6063    1.0000 </r>
       <r>   -1.5806    1.0000 </r>
       <r>   -1.5375    1.0000 </r>
       <r>   -1.4689    1.0000 </r>
       <r>   -1.4371    1.0000 </r>
       <r>   -1.4335    1.0000 </r>
       <r>   -1.3862    1.0000 </r>
       <r>   -1.3737    1.0000 </r>
       <r>   -1.3094    1.0000 </r>
       <r>   -1.2867    1.0000 </r>
       <r>   -1.1890    1.0000 </r>
       <r>   -1.1711    1.0000 </r>
       <r>   -1.1022    1.0000 </r>
       <r>   -0.9679    1.0000 </r>
       <r>   -0.8434    1.0000 </r>
       <r>   -0.8202    1.0000 </r>
       <r>   -0.7713    1.0000 </r>
       <r>   -0.7150    1.0000 </r>
       <r>   -0.7054    1.0000 </r>
       <r>   -0.6821    1.0000 </r>
       <r>   -0.5686    1.0000 </r>
       <r>   -0.5619    1.0000 </r>
       <r>   -0.4950    1.0000 </r>
       <r>   -0.3590    1.0000 </r>
       <r>   -0.3122    1.0000 </r>
       <r>   -0.2822    1.0000 </r>
       <r>   -0.1925    1.0000 </r>
       <r>   -0.1270    1.0000 </r>
       <r>   -0.1079    1.0000 </r>
       <r>   -0.0419    1.0000 </r>
       <r>   -0.0048    1.0000 </r>
       <r>    0.1241    1.0000 </r>
       <r>    0.1529    1.0000 </r>
       <r>    0.1891    1.0000 </r>
       <r>    0.2667    1.0000 </r>
       <r>    0.2758    1.0000 </r>
       <r>    0.3547    1.0000 </r>
       <r>    0.4561    1.0000 </r>
       <r>    0.4690    1.0000 </r>
       <r>    0.5115    1.0000 </r>
       <r>    0.5633    1.0000 </r>
       <r>    0.6187    1.0000 </r>
       <r>    0.6504    1.0000 </r>
       <r>    0.6832    1.0000 </r>
       <r>    0.7486    1.0000 </r>
       <r>    0.7785    1.0000 </r>
       <r>    0.8457    1.0000 </r>
       <r>    0.8912    1.0000 </r>
       <r>    0.9038    1.0000 </r>
       <r>    1.0189    1.0000 </r>
       <r>    1.0550    1.0000 </r>
       <r>    1.1144    1.0000 </r>
       <r>    1.1432    1.0000 </r>
       <r>    1.1938    1.0000 </r>
       <r>    1.2143    1.0000 </r>
       <r>    1.2202    1.0000 </r>
       <r>    1.2774    1.0000 </r>
       <r>    1.3681    1.0000 </r>
[...]
       <r>   -10.6087     0.0059    43.0004 </r>
       <r>   -10.5341    17.5801    44.3121 </r>
       <r>   -10.4595     4.8768    44.6972 </r>
       <r>   -10.3849    11.9896    45.5917 </r>
       <r>   -10.3103     0.0009    45.6667 </r>
       <r>   -10.2357     4.4668    46.0000 </r>
       <r>   -10.1611     4.5962    46.3429 </r>
       <r>   -10.0865    34.1550    48.8912 </r>
       <r>   -10.0119     4.4676    49.3333 </r>
       <r>    -9.9372    17.4789    50.6374 </r>
       <r>    -9.8626    11.9563    51.5587 </r>
       <r>    -9.7880    30.9048    53.8679 </r>
       <r>    -9.7134    21.4569    55.4707 </r>
       <r>    -9.6388    15.7136    56.6442 </r>
       <r>    -9.5642    31.2195    58.9996 </r>
       <r>    -9.4896    16.0986    60.2011 </r>
       <r>    -9.4150     8.2003    60.8198 </r>
       <r>    -9.3404    15.6063    62.0011 </r>
       <r>    -9.2658    26.7614    63.9977 </r>
       <r>    -9.1911    29.7584    66.2211 </r>
       <r>    -9.1165    23.0702    67.9950 </r>
       <r>    -9.0419    32.2430    70.4321 </r>
       <r>    -8.9673     9.3710    71.1495 </r>
       <r>    -8.8927     6.7080    71.6667 </r>
       <r>    -8.8181    22.4877    73.3445 </r>
       <r>    -8.7435    17.7706    74.6704 </r>
       <r>    -8.6689    26.3716    76.6392 </r>
       <r>    -8.5943    25.7467    78.6461 </r>
       <r>    -8.5197    17.7457    79.9907 </r>
       <r>    -8.4450     0.1151    80.0086 </r>
       <r>    -8.3704    13.5136    81.0168 </r>
       <r>    -8.2958    13.1773    82.0000 </r>
       <r>    -8.2212     4.4677    82.3333 </r>
       <r>    -8.1466     0.0000    82.3333 </r>
       <r>    -8.0720     8.9321    82.9998 </r>
       <r>    -7.9974     0.0000    83.0000 </r>
       <r>    -7.9228     0.0000    83.0000 </r>
       <r>    -7.8482     7.1838    83.5360 </r>
       <r>    -7.7736     6.1956    84.0000 </r>
       <r>    -7.6989     0.5889    84.0439 </r>
       <r>    -7.6243     8.3882    84.6698 </r>
       <r>    -7.5497     4.4260    85.0000 </r>
       <r>    -7.4751     1.4878    85.1110 </r>
       <r>    -7.4005    29.0190    87.2761 </r>
       <r>    -7.3259     0.7420    87.3334 </r>
       <r>    -7.2513     7.3484    87.8817 </r>
       <r>    -7.1767     6.0533    88.3333 </r>
       <r>    -7.1021     2.4516    88.5162 </r>
       <r>    -7.0275     1.9762    88.6671 </r>
       <r>    -6.9528     8.9327    89.3335 </r>
       <r>    -6.8782     5.8035    89.7665 </r>
       <r>    -6.8036    17.4804    91.0712 </r>
       <r>    -6.7290    18.5647    92.5227 </r>
       <r>    -6.6544    24.9301    94.4037 </r>
       <r>    -6.5798    33.0305    96.8698 </r>
       <r>    -6.5052    26.0837    98.8507 </r>
       <r>    -6.4306    28.5648   101.0091 </r>
       <r>    -6.3560    21.3864   102.6088 </r>
       <r>    -6.2814    36.4937   105.3479 </r>
       <r>    -6.2067    20.2223   106.8645 </r>
       <r>    -6.1321    21.7159   108.5082 </r>
       <r>    -6.0575    26.5338   110.4879 </r>
       <r>    -5.9829    31.1454   112.8117 </r>
       <r>    -5.9083    43.1021   116.0280 </r>
       <r>    -5.8337    29.5898   118.2900 </r>
       <r>    -5.7591    24.4093   120.1560 </r>
       <r>    -5.6845    30.2101   122.4724 </r>
       <r>    -5.6099    25.1688   124.3679 </r>
       <r>    -5.5353    28.7605   126.5426 </r>
       <r>    -5.4606    24.4339   128.3751 </r>
       <r>    -5.3860    19.6355   129.8476 </r>
       <r>    -5.3114    40.0171   132.8510 </r>
       <r>    -5.2368    37.2672   135.6786 </r>
       <r>    -5.1622    25.8916   137.6467 </r>
       <r>    -5.0876    28.5665   139.7851 </r>
       <r>    -5.0130    28.0835   141.9035 </r>
       <r>    -4.9384    31.1568   144.2855 </r>
       <r>    -4.8638    32.9981   146.7947 </r>
       <r>    -4.7892    30.5674   149.1122 </r>
       <r>    -4.7145    35.0042   151.7321 </r>
       <r>    -4.6399    23.2697   153.4869 </r>
       <r>    -4.5653    27.5924   155.5497 </r>
       <r>    -4.4907    40.1818   158.6163 </r>
       <r>    -4.4161    25.2548   160.5391 </r>
       <r>    -4.3415    29.2377   162.7570 </r>
       <r>    -4.2669    16.3641   164.0212 </r>
       <r>    -4.1923    33.6730   166.5649 </r>
       <r>    -4.1177    11.6778   167.4970 </r>
       <r>    -4.0431    26.5218   169.4761 </r>
       <r>    -3.9684    32.7347   171.9349 </r>
       <r>    -3.8938    34.2052   174.4882 </r>
       <r>    -3.8192    26.9308   176.5145 </r>
       <r>    -3.7446    24.9174   178.4495 </r>
       <r>    -3.6700    45.2918   181.8306 </r>
       <r>    -3.5954    31.3046   184.2122 </r>
       <r>    -3.5208    26.7941   186.2343 </r>
       <r>    -3.4462    29.4197   188.4639 </r>
       <r>    -3.3716    28.0756   190.5844 </r>
       <r>    -3.2970    26.1821   192.5808 </r>
       <r>    -3.2224    22.7628   194.3017 </r>
       <r>    -3.1477    14.6078   195.4035 </r>
       <r>    -3.0731    31.2807   197.7484 </r>
       <r>    -2.9985    14.8055   198.8764 </r>
       <r>    -2.9239    17.7883   200.2403 </r>
       <r>    -2.8493    30.0027   202.4917 </r>
       <r>    -2.7747    38.4174   205.3625 </r>
       <r>    -2.7001    40.1315   208.3633 </r>
       <r>    -2.6255    41.5916   211.4802 </r>
       <r>    -2.5509    35.7233   214.1604 </r>
       <r>    -2.4763    30.7074   216.4822 </r>
       <r>    -2.4016    39.8686   219.4667 </r>
       <r>    -2.3270    31.0765   221.8024 </r>
       <r>    -2.2524    29.7395   224.0222 </r>
       <r>    -2.1778    38.4182   226.9597 </r>
       <r>    -2.1032    26.7829   228.9686 </r>
       <r>    -2.0286    23.1850   230.7270 </r>
       <r>    -1.9540    36.2455   233.4584 </r>
       <r>    -1.8794    34.0096   236.0185 </r>
       <r>    -1.8048    34.6743   238.6577 </r>
       <r>    -1.7302    44.4720   242.0213 </r>
       <r>    -1.6555    44.6116   245.3543 </r>
       <r>    -1.5809    54.8218   249.4573 </r>
       <r>    -1.5063    40.3582   252.5464 </r>
       <r>    -1.4317    36.7201   255.3220 </r>
       <r>    -1.3571    51.7596   259.2124 </r>
       <r>    -1.2825    35.2153   261.8809 </r>
       <r>    -1.2079    33.5350   264.3988 </r>
       <r>    -1.1333    33.9720   266.9540 </r>
       <r>    -1.0587    38.7314   269.8438 </r>
       <r>    -0.9841    29.4880   272.0859 </r>
       <r>    -0.9094    37.8921   274.9277 </r>
       <r>    -0.8348    29.1708   277.1192 </r>
       <r>    -0.7602    32.1986   279.5253 </r>
       <r>    -0.6856    41.5878   282.6391 </r>
       <r>    -0.6110    34.7979   285.2880 </r>
       <r>    -0.5364    38.9909   288.2196 </r>
       <r>    -0.4618    31.2734   290.6028 </r>
       <r>    -0.3872    20.7016   292.1831 </r>
       <r>    -0.3126    33.5411   294.6973 </r>
       <r>    -0.2380    36.1009   297.4227 </r>
       <r>    -0.1633    34.8141   300.0412 </r>
       <r>    -0.0887    36.3893   302.7600 </r>
       <r>    -0.0141    33.8742   305.3365 </r>
       <r>     0.0605    38.8203   308.2848 </r>
       <r>     0.1351    40.7040   311.3248 </r>
       <r>     0.2097    46.3712   314.8224 </r>
       <r>     0.2843    41.7674   318.0028 </r>
       <r>     0.3589    32.5238   320.4909 </r>
       <r>     0.4335    33.6384   323.0399 </r>
       <r>     0.5081    39.7416   326.0062 </r>
       <r>     0.5828    42.6563   329.2519 </r>
       <r>     0.6574    43.0587   332.4961 </r>
       <r>     0.7320    37.9630   335.3633 </r>
       <r>     0.8066    46.9350   338.9128 </r>
       <r>     0.8812    37.7933   341.7466 </r>
       <r>     0.9558    40.8278   344.8366 </r>
       <r>     1.0304    33.8845   347.3711 </r>
       <r>     1.1050    46.9010   350.8892 </r>
       <r>     1.1796    41.4524   354.0387 </r>
       <r>     1.2542    44.1558   357.4180 </r>
       <r>     1.3289    45.6511   360.8711 </r>
       <r>     1.4035    49.3536   364.5908 </r>
       <r>     1.4781    42.6373   367.7991 </r>
       <r>     1.5527    43.7146   371.0972 </r>
       <r>     1.6273    32.1647   373.5710 </r>
       <r>     1.7019    49.5815   377.2759 </r>
       <r>     1.7765    45.5967   380.7318 </r>
       <r>     1.8511    40.7087   383.8311 </r>
       <r>     1.9257    48.6141   387.4905 </r>
       <r>     2.0003    52.5148   391.4555 </r>
       <r>     2.0750    35.8883   394.1752 </r>
       <r>     2.1496    50.8541   398.0173 </r>
       <r>     2.2242    38.8828   400.9793 </r>
       <r>     2.2988    46.8492   404.5178 </r>
       <r>     2.3734    47.0021   408.0892 </r>
       <r>     2.4480    53.7900   412.1639 </r>
       <r>     2.5226    45.1126   415.6163 </r>
       <r>     2.5972    48.3739   419.3175 </r>
       <r>     2.6718    46.1306   422.7757 </r>
       <r>     2.7464    56.5617   427.0543 </r>
       <r>     2.8211    47.4704   430.6304 </r>
       <r>     2.8957    58.5421   435.0661 </r>
       <r>     2.9703    48.3065   438.7634 </r>
       <r>     3.0449    37.4037   441.6579 </r>
       <r>     3.1195    41.1810   444.7400 </r>
       <r>     3.1941    51.9559   448.6483 </r>
       <r>     3.2687    42.5235   451.8521 </r>
       <r>     3.3433    35.0448   454.4986 </r>
       <r>     3.4179    46.3261   457.9820 </r>
       <r>     3.4925    50.1975   461.7282 </r>
       <r>     3.5672    37.2856   464.5281 </r>
       <r>     3.6418    57.0042   468.8334 </r>
       <r>     3.7164    57.2546   473.1395 </r>
       <r>     3.7910    53.3571   477.1688 </r>
       <r>     3.8656    39.7945   480.1803 </r>
       <r>     3.9402    44.1707   483.4991 </r>
       <r>     4.0148    46.5410   486.9912 </r>
       <r>     4.0894    47.9280   490.5996 </r>
       <r>     4.1640    45.7869   494.0728 </r>
       <r>     4.2386    45.8126   497.5314 </r>
       <r>     4.3133    43.9397   500.8641 </r>
       <r>     4.3879    49.4189   504.5897 </r>
       <r>     4.4625    42.1660   507.7391 </r>
       <r>     4.5371    43.3069   511.0698 </r>
       <r>     4.6117    43.1137   514.3283 </r>
       <r>     4.6863    53.6351   518.3540 </r>
       <r>     4.7609    48.6372   522.1027 </r>
       <r>     4.8355    40.4831   525.1308 </r>
       <r>     4.9101    44.1318   528.4452 </r>
       <r>     4.9847    41.0562   531.5363 </r>
       <r>     5.0594    45.8171   534.9700 </r>
       <r>     5.1340    50.2348   538.7186 </r>
       <r>     5.2086    40.8411   541.7679 </r>
       <r>     5.2832    43.6990   545.0450 </r>
       <r>     5.3578    35.1950   547.6863 </r>
       <r>     5.4324    28.2830   549.8105 </r>
       <r>     5.5070    39.9968   552.8236 </r>
       <r>     5.5816    25.0846   554.7440 </r>
       <r>     5.6562    27.5504   556.8579 </r>
       <r>     5.7308    37.6316   559.6817 </r>
       <r>     5.8055    43.9387   562.9636 </r>
       <r>     5.8801    51.3477   566.8282 </r>
       <r>     5.9547    30.1844   569.1278 </r>
       <r>     6.0293    47.7111   572.6919 </r>
       <r>     6.1039    29.0740   574.9204 </r>
       <r>     6.1785    14.0175   576.0000 </r>
       <r>     6.2531     0.0000   576.0000 </r>
       <r>     6.3277     0.0000   576.0000 </r>
       <r>     6.4023     0.0000   576.0000 </r>
       <r>     6.4769     0.0000   576.0000 </r>
       <r>     6.5515     0.0000   576.0000 </r>
       <r>     6.6262     0.0000   576.0000 </r>
       <r>     6.7008     0.0000   576.0000 </r>
       <r>     6.7754     0.0000   576.0000 </r>
       <r>     6.8500     0.0000   576.0000 </r>
       <r>     6.9246     0.0000   576.0000 </r>
       <r>     6.9992     0.0000   576.0000 </r>
       <r>     7.0738     0.0000   576.0000 </r>
       <r>     7.1484     0.0000   576.0000 </r>
      </set>
     </set>
    </array>
   </total>
  </dos>
 </calculation>
 <structure name="finalpos" >
  <crystal>
   <varray name="basis" >
    <v>      13.30317974       0.00000000       0.00000000 </v>
    <v>       6.65158939      14.87340641       0.00000000 </v>
    <v>       0.00000000       0.00000000       8.39005947 </v>
   </varray>
   <i name="volume">   1660.08736136 </i>
   <varray name="rec_basis" >
    <v>       0.07517000      -0.03361704       0.00000000 </v>
    <v>       0.00000000       0.06723409       0.00000000 </v>
    <v>       0.00000000       0.00000000       0.11918867 </v>
   </varray>
  </crystal>
  <varray name="positions" >
   <v>       0.98290563       0.65811950       0.00000000 </v>
   <v>       0.78290558       0.55811930       0.14474380 </v>
   <v>       0.58290541       0.45811909       0.28948760 </v>
   <v>       0.98290563       0.32478613       0.00000000 </v>
   <v>       0.78290558       0.22478597       0.14474380 </v>
   <v>       0.58290541       0.12478580       0.28948760 </v>
   <v>       0.98290563       0.99145281       0.00000000 </v>
   <v>       0.78290558       0.89145267       0.14474380 </v>
   <v>       0.58290541       0.79145253       0.28948760 </v>
   <v>       0.63290566       0.69145268       0.07237174 </v>
   <v>       0.43290559       0.59145248       0.21711555 </v>
   <v>       0.23290552       0.49145243       0.36185935 </v>
   <v>       0.63290566       0.35811943       0.07237174 </v>
   <v>       0.43290559       0.25811928       0.21711555 </v>
   <v>       0.23290552       0.15811914       0.36185935 </v>
   <v>       0.63290566       0.02478614       0.07237174 </v>
   <v>       0.43290559       0.92478597       0.21711555 </v>
   <v>       0.23290552       0.82478583       0.36185935 </v>
   <v>       0.48290563       0.65811950       0.00000000 </v>
   <v>       0.28290555       0.55811930       0.14474380 </v>
   <v>       0.08290544       0.45811909       0.28948760 </v>
   <v>       0.48290563       0.32478613       0.00000000 </v>
   <v>       0.28290555       0.22478595       0.14474380 </v>
   <v>       0.08290544       0.12478581       0.28948760 </v>
   <v>       0.48290563       0.99145281       0.00000000 </v>
   <v>       0.28290555       0.89145267       0.14474380 </v>
   <v>       0.08290544       0.79145253       0.28948760 </v>
   <v>       0.13290568       0.69145274       0.07237176 </v>
   <v>       0.93290555       0.59145248       0.21711555 </v>
   <v>       0.73290551       0.49145240       0.36185935 </v>
   <v>       0.13290568       0.35811949       0.07237176 </v>
   <v>       0.93290555       0.25811928       0.21711555 </v>
   <v>       0.73290551       0.15811913       0.36185935 </v>
   <v>       0.13290568       0.02478614       0.07237176 </v>
   <v>       0.93290555       0.92478597       0.21711555 </v>
   <v>       0.73290551       0.82478583       0.36185935 </v>
   <v>       0.36071706       0.13267241       0.56210440 </v>
   <v>       0.33214545       0.40410104       0.65716469 </v>
   <v>       0.30357385       0.67552966       0.75222492 </v>
   <v>       0.50357413       0.27552956       0.56210440 </v>
   <v>       0.47500256       0.54695821       0.65716469 </v>
   <v>       0.44643104       0.81838685       0.75222492 </v>
   <v>       0.64643127       0.41838673       0.56210440 </v>
   <v>       0.61785972       0.68981534       0.65716469 </v>
   <v>       0.58928818       0.96124405       0.75222492 </v>
   <v>       0.78928840       0.56124389       0.56210440 </v>
   <v>       0.76071686       0.83267254       0.65716469 </v>
   <v>       0.73214531       0.10410118       0.75222492 </v>
   <v>       0.93214554       0.70410103       0.56210440 </v>
   <v>       0.90357393       0.97552961       0.65716469 </v>
   <v>       0.87500238       0.24695826       0.75222492 </v>
   <v>       0.07500267       0.84695810       0.56210440 </v>
   <v>       0.04643107       0.11838675       0.65716469 </v>
   <v>       0.01785958       0.38981533       0.75222492 </v>
   <v>       0.21785986       0.98981535       0.56210440 </v>
   <v>       0.18928838       0.26124394       0.65716469 </v>
   <v>       0.16071665       0.53267252       0.75222492 </v>
   <v>       0.45357415       0.87552941       0.60963446 </v>
   <v>       0.42500261       0.14695799       0.70469469 </v>
   <v>       0.39643112       0.41838670       0.79975492 </v>
   <v>       0.59643125       0.01838660       0.60963446 </v>
   <v>       0.56785971       0.28981531       0.70469469 </v>
   <v>       0.53928816       0.56124401       0.79975492 </v>
   <v>       0.73928845       0.16124380       0.60963446 </v>
   <v>       0.71071684       0.43267250       0.70469469 </v>
   <v>       0.68214524       0.70410109       0.79975486 </v>
   <v>       0.88214552       0.30410087       0.60963446 </v>
   <v>       0.85357404       0.57552952       0.70469469 </v>
   <v>       0.82500237       0.84695804       0.79975486 </v>
   <v>       0.02500272       0.44695815       0.60963446 </v>
   <v>       0.99643111       0.71838677       0.70469469 </v>
   <v>       0.96785957       0.98981541       0.79975486 </v>
   <v>       0.16785979       0.58981526       0.60963446 </v>
   <v>       0.13928819       0.86124390       0.70469469 </v>
   <v>       0.11071682       0.13267255       0.79975492 </v>
   <v>       0.31071699       0.73267239       0.60963446 </v>
   <v>       0.28214550       0.00410104       0.70469469 </v>
   <v>       0.25357390       0.27552950       0.79975486 </v>
   <v>       0.43214551       0.70410097       0.56210440 </v>
   <v>       0.40357399       0.97552961       0.65716469 </v>
   <v>       0.37500241       0.24695826       0.75222492 </v>
   <v>       0.57500267       0.84695810       0.56210440 </v>
   <v>       0.54643112       0.11838675       0.65716469 </v>
   <v>       0.51785964       0.38981545       0.75222492 </v>
   <v>       0.71785986       0.98981524       0.56210440 </v>
   <v>       0.68928838       0.26124394       0.65716469 </v>
   <v>       0.66071671       0.53267252       0.75222486 </v>
   <v>       0.86071700       0.13267241       0.56210440 </v>
   <v>       0.83214539       0.40410104       0.65716469 </v>
   <v>       0.80357385       0.67552966       0.75222492 </v>
   <v>       0.00357413       0.27552950       0.56210440 </v>
   <v>       0.97500259       0.54695815       0.65716469 </v>
   <v>       0.94643104       0.81838679       0.75222492 </v>
   <v>       0.14643133       0.41838673       0.56210440 </v>
   <v>       0.11785972       0.68981534       0.65716469 </v>
   <v>       0.08928823       0.96124399       0.75222492 </v>
   <v>       0.28928852       0.56124383       0.56210440 </v>
   <v>       0.26071692       0.83267248       0.65716469 </v>
   <v>       0.23214531       0.10410106       0.75222492 </v>
   <v>       0.38214555       0.30410087       0.60963446 </v>
   <v>       0.35357404       0.57552952       0.70469469 </v>
   <v>       0.32500243       0.84695816       0.79975486 </v>
   <v>       0.52500272       0.44695795       0.60963446 </v>
   <v>       0.49643117       0.71838659       0.70469469 </v>
   <v>       0.46785963       0.98981518       0.79975486 </v>
   <v>       0.66785979       0.58981526       0.60963446 </v>
   <v>       0.63928831       0.86124384       0.70469469 </v>
   <v>       0.61071670       0.13267243       0.79975492 </v>
   <v>       0.81071699       0.73267233       0.60963446 </v>
   <v>       0.78214538       0.00410092       0.70469469 </v>
   <v>       0.75357390       0.27552950       0.79975492 </v>
   <v>       0.95357406       0.87552935       0.60963446 </v>
   <v>       0.92500258       0.14695799       0.70469469 </v>
   <v>       0.89643103       0.41838670       0.79975492 </v>
   <v>       0.09643125       0.01838660       0.60963446 </v>
   <v>       0.06785965       0.28981531       0.70469469 </v>
   <v>       0.03928804       0.56124377       0.79975492 </v>
   <v>       0.23928833       0.16124368       0.60963446 </v>
   <v>       0.21071672       0.43267226       0.70469469 </v>
   <v>       0.18214512       0.70410085       0.79975486 </v>
  </varray>
 </structure>
</modeling>
