    8    8    1    2
  0.2646359E+02  0.5960000E-09  0.5960000E-09  0.5960000E-09  0.5000000E-15
  1.000000000000000E-004
  CAR 
 Si and Ge interface calculation         
     32     63     20
 
  0.0000000E+00  0.0000000E+00  0.0000000E+00  0.8000000E-02
      1         -6.791153       -6.679891   1.000000   1.000000
      2         -3.290971       -3.164708   1.000000   1.000000
      3         -3.290971       -3.164706   1.000000   1.000000
      4         -3.290969       -3.164704   1.000000   1.000000
      5         -3.097163       -3.009177   1.000000   1.000000
      6         -3.096945       -3.008889   1.000000   1.000000
      7         -3.096735       -3.008594   1.000000   1.000000
      8          1.789442        1.904524   1.000000   1.000000
      9          1.789482        1.904554   1.000000   1.000000
     10          1.789538        1.904579   1.000000   1.000000
     11          1.789551        1.904622   1.000000   1.000000
     12          1.789603        1.904653   1.000000   1.000000
     13          1.789641        1.904690   1.000000   1.000000
     14          4.540227        4.654453   1.000000   0.000000
     15          4.540243        4.654459   1.000000   0.000000
     16          4.540247        4.654466   1.000000   0.000000
     17          5.227629        5.369092   1.000000   0.000000
     18          5.227635        5.369096   1.000000   0.000000
     19          5.227639        5.369101   1.000000   0.000000
     20          5.387156        5.492080   1.000000   0.000000
 
  0.2000000E+00  0.0000000E+00  0.0000000E+00  0.1600000E-01
      1         -6.640624       -6.529498   1.000000   1.000000
      2         -4.447490       -4.337845   1.000000   1.000000
      3         -3.254163       -3.128005   1.000000   1.000000
      4         -3.254162       -3.128004   1.000000   1.000000
      5         -3.066999       -2.979559   1.000000   1.000000
      6         -3.066992       -2.979557   1.000000   1.000000
      7         -1.743841       -1.639036   1.000000   1.000000
      8          1.467214        1.585531   1.000000   1.000000
      9          1.467216        1.585535   1.000000   1.000000
     10          1.509228        1.627551   1.000000   1.000000
     11          1.509233        1.627605   1.000000   1.000000
     12          1.943489        2.058476   1.000000   1.000000
     13          1.943497        2.058480   1.000000   1.000000
     14          3.190419        3.298713   1.000000   1.000000
     15          3.987452        4.101644   1.000000   0.000000
     16          3.987463        4.101648   1.000000   0.000000
     17          5.137720        5.274441   1.000000   0.000000
     18          5.864021        6.000650   0.000000   0.000000
     19          5.948768        6.086747   0.000000   0.000000
     20          5.948772        6.086751   0.000000   0.000000
 
  0.0000000E+00  0.2000000E+00  0.0000000E+00  0.1600000E-01
      1         -6.640625       -6.529498   1.000000   1.000000
      2         -4.447490       -4.337844   1.000000   1.000000
      3         -3.254163       -3.128007   1.000000   1.000000
      4         -3.254162       -3.128004   1.000000   1.000000
      5         -3.067179       -2.979811   1.000000   1.000000
      6         -3.066811       -2.979305   1.000000   1.000000
      7         -1.743843       -1.639035   1.000000   1.000000
      8          1.467211        1.585531   1.000000   1.000000
      9          1.467213        1.585534   1.000000   1.000000
     10          1.509141        1.627535   1.000000   1.000000
     11          1.509315        1.627632   1.000000   1.000000
     12          1.943498        2.058471   1.000000   1.000000
     13          1.943501        2.058473   1.000000   1.000000
     14          3.190414        3.298718   1.000000   1.000000
     15          3.987461        4.101638   1.000000   0.000000
     16          3.987466        4.101642   1.000000   0.000000
     17          5.137709        5.274451   1.000000   0.000000
     18          5.864011        6.000660   0.000000   0.000000
     19          5.948772        6.086744   0.000000   0.000000
     20          5.948776        6.086747   0.000000   0.000000
 
  0.0000000E+00  0.0000000E+00  0.2000000E+00  0.1600000E-01
      1         -6.640624       -6.529498   1.000000   1.000000
      2         -4.447490       -4.337844   1.000000   1.000000
      3         -3.254163       -3.128007   1.000000   1.000000
      4         -3.254162       -3.128003   1.000000   1.000000
      5         -3.067109       -2.979713   1.000000   1.000000
      6         -3.066882       -2.979403   1.000000   1.000000
      7         -1.743842       -1.639035   1.000000   1.000000
      8          1.467212        1.585530   1.000000   1.000000
      9          1.467216        1.585536   1.000000   1.000000
     10          1.509176        1.627552   1.000000   1.000000
     11          1.509282        1.627608   1.000000   1.000000
     12          1.943492        2.058473   1.000000   1.000000
     13          1.943500        2.058478   1.000000   1.000000
     14          3.190417        3.298715   1.000000   1.000000
     15          3.987454        4.101640   1.000000   0.000000
     16          3.987466        4.101647   1.000000   0.000000
     17          5.137715        5.274445   1.000000   0.000000
     18          5.864016        6.000655   0.000000   0.000000
     19          5.948768        6.086744   0.000000   0.000000
     20          5.948776        6.086751   0.000000   0.000000
 
  0.4000000E+00  0.0000000E+00  0.0000000E+00  0.1600000E-01
      1         -6.191955       -6.081227   1.000000   1.000000
      2         -5.454642       -5.344518   1.000000   1.000000
      3         -3.191100       -3.065136   1.000000   1.000000
      4         -3.191099       -3.065135   1.000000   1.000000
      5         -3.016025       -2.929709   1.000000   1.000000
      6         -3.016019       -2.929708   1.000000   1.000000
      7         -0.160223       -0.055288   1.000000   1.000000
      8          1.054755        1.176002   1.000000   1.000000
      9          1.054755        1.176004   1.000000   1.000000
     10          1.142805        1.264793   1.000000   1.000000
     11          1.142807        1.264860   1.000000   1.000000
     12          1.502891        1.608768   1.000000   1.000000
     13          2.396133        2.510890   1.000000   1.000000
     14          2.396141        2.510894   1.000000   1.000000
     15          3.112851        3.227290   1.000000   1.000000
     16          3.112860        3.227294   1.000000   1.000000
     17          5.328544        5.461649   1.000000   0.000000
     18          5.819178        5.946999   0.000000   0.000000
     19          6.717633        6.851510   0.000000   0.000000
     20          7.412953        7.535150   0.000000   0.000000
 
  0.0000000E+00  0.4000000E+00  0.0000000E+00  0.1600000E-01
      1         -6.191955       -6.081227   1.000000   1.000000
      2         -5.454642       -5.344518   1.000000   1.000000
      3         -3.191100       -3.065138   1.000000   1.000000
      4         -3.191099       -3.065135   1.000000   1.000000
      5         -3.016210       -2.929970   1.000000   1.000000
      6         -3.015833       -2.929447   1.000000   1.000000
      7         -0.160225       -0.055286   1.000000   1.000000
      8          1.054753        1.176001   1.000000   1.000000
      9          1.054753        1.176003   1.000000   1.000000
     10          1.142731        1.264820   1.000000   1.000000
     11          1.142877        1.264844   1.000000   1.000000
     12          1.502887        1.608772   1.000000   1.000000
     13          2.396142        2.510885   1.000000   1.000000
     14          2.396145        2.510886   1.000000   1.000000
     15          3.112860        3.227285   1.000000   1.000000
     16          3.112864        3.227287   1.000000   1.000000
     17          5.328533        5.461661   1.000000   0.000000
     18          5.819165        5.947012   0.000000   0.000000
     19          6.717623        6.851520   0.000000   0.000000
     20          7.412944        7.535160   0.000000   0.000000
 
  0.0000000E+00  0.0000000E+00  0.4000000E+00  0.1600000E-01
      1         -6.191955       -6.081227   1.000000   1.000000
      2         -5.454642       -5.344518   1.000000   1.000000
      3         -3.191100       -3.065137   1.000000   1.000000
      4         -3.191099       -3.065134   1.000000   1.000000
      5         -3.016137       -2.929869   1.000000   1.000000
      6         -3.015906       -2.929548   1.000000   1.000000
      7         -0.160224       -0.055287   1.000000   1.000000
      8          1.054753        1.176001   1.000000   1.000000
      9          1.054755        1.176004   1.000000   1.000000
     10          1.142760        1.264823   1.000000   1.000000
     11          1.142850        1.264834   1.000000   1.000000
     12          1.502889        1.608770   1.000000   1.000000
     13          2.396136        2.510887   1.000000   1.000000
     14          2.396144        2.510892   1.000000   1.000000
     15          3.112854        3.227287   1.000000   1.000000
     16          3.112863        3.227292   1.000000   1.000000
     17          5.328539        5.461654   1.000000   0.000000
     18          5.819172        5.947005   0.000000   0.000000
     19          6.717628        6.851514   0.000000   0.000000
     20          7.412949        7.535155   0.000000   0.000000
 
  0.2000000E+00  0.2000000E+00  0.0000000E+00  0.1600000E-01
      1         -6.492252       -6.381274   1.000000   1.000000
      2         -4.353176       -4.243865   1.000000   1.000000
      3         -4.353061       -4.243693   1.000000   1.000000
      4         -3.456195       -3.345006   1.000000   1.000000
      5         -2.834586       -2.732413   1.000000   1.000000
      6         -1.828303       -1.723640   1.000000   1.000000
      7         -1.828209       -1.723549   1.000000   1.000000
      8          0.844908        0.967300   1.000000   1.000000
      9          1.524458        1.643018   1.000000   1.000000
     10          1.524465        1.643027   1.000000   1.000000
     11          1.823606        1.940948   1.000000   1.000000
     12          1.823737        1.941057   1.000000   1.000000
     13          2.046961        2.161753   1.000000   1.000000
     14          2.223090        2.331893   1.000000   1.000000
     15          3.438524        3.554418   1.000000   1.000000
     16          4.329780        4.443350   1.000000   0.000000
     17          5.560648        5.696433   1.000000   0.000000
     18          5.904740        6.037777   0.000000   0.000000
     19          5.904818        6.037850   0.000000   0.000000
     20          6.339847        6.449662   0.000000   0.000000
 
  0.0000000E+00  0.2000000E+00  0.2000000E+00  0.1600000E-01
      1         -6.492252       -6.381274   1.000000   1.000000
      2         -4.353122       -4.243781   1.000000   1.000000
      3         -4.353116       -4.243778   1.000000   1.000000
      4         -3.456195       -3.345007   1.000000   1.000000
      5         -2.834586       -2.732413   1.000000   1.000000
      6         -1.828258       -1.723601   1.000000   1.000000
      7         -1.828256       -1.723588   1.000000   1.000000
      8          0.844907        0.967301   1.000000   1.000000
      9          1.524458        1.643003   1.000000   1.000000
     10          1.524467        1.643040   1.000000   1.000000
     11          1.823668        1.940998   1.000000   1.000000
     12          1.823676        1.941007   1.000000   1.000000
     13          2.046958        2.161756   1.000000   1.000000
     14          2.223090        2.331894   1.000000   1.000000
     15          3.438526        3.554416   1.000000   1.000000
     16          4.329777        4.443352   1.000000   0.000000
     17          5.560653        5.696428   1.000000   0.000000
     18          5.904767        6.037792   0.000000   0.000000
     19          5.904788        6.037838   0.000000   0.000000
     20          6.339850        6.449658   0.000000   0.000000
 
  0.2000000E+00  0.0000000E+00  0.2000000E+00  0.1600000E-01
      1         -6.492252       -6.381274   1.000000   1.000000
      2         -4.353212       -4.243920   1.000000   1.000000
      3         -4.353027       -4.243644   1.000000   1.000000
      4         -3.456192       -3.344995   1.000000   1.000000
      5         -2.834591       -2.732425   1.000000   1.000000
      6         -1.828330       -1.723663   1.000000   1.000000
      7         -1.828178       -1.723515   1.000000   1.000000
      8          0.844906        0.967300   1.000000   1.000000
      9          1.524457        1.643016   1.000000   1.000000
     10          1.524466        1.643024   1.000000   1.000000
     11          1.823562        1.940916   1.000000   1.000000
     12          1.823773        1.941091   1.000000   1.000000
     13          2.046970        2.161747   1.000000   1.000000
     14          2.223086        2.331882   1.000000   1.000000
     15          3.438521        3.554426   1.000000   1.000000
     16          4.329791        4.443350   1.000000   0.000000
     17          5.560643        5.696452   1.000000   0.000000
     18          5.904719        6.037759   0.000000   0.000000
     19          5.904843        6.037875   0.000000   0.000000
     20          6.339840        6.449685   0.000000   0.000000
 
 -0.2000000E+00  0.2000000E+00  0.0000000E+00  0.1600000E-01
      1         -6.492252       -6.381274   1.000000   1.000000
      2         -4.353176       -4.243866   1.000000   1.000000
      3         -4.353063       -4.243698   1.000000   1.000000
      4         -3.456190       -3.344992   1.000000   1.000000
      5         -2.834592       -2.732430   1.000000   1.000000
      6         -1.828300       -1.723632   1.000000   1.000000
      7         -1.828207       -1.723542   1.000000   1.000000
      8          0.844903        0.967302   1.000000   1.000000
      9          1.524459        1.643012   1.000000   1.000000
     10          1.524467        1.643021   1.000000   1.000000
     11          1.823602        1.940950   1.000000   1.000000
     12          1.823732        1.941056   1.000000   1.000000
     13          2.046969        2.161750   1.000000   1.000000
     14          2.223084        2.331880   1.000000   1.000000
     15          3.438524        3.554425   1.000000   1.000000
     16          4.329792        4.443353   1.000000   0.000000
     17          5.560648        5.696452   1.000000   0.000000
     18          5.904740        6.037784   0.000000   0.000000
     19          5.904818        6.037859   0.000000   0.000000
     20          6.339843        6.449688   0.000000   0.000000
 
 -0.2000000E+00  0.0000000E+00  0.2000000E+00  0.1600000E-01
      1         -6.492252       -6.381274   1.000000   1.000000
      2         -4.353212       -4.243920   1.000000   1.000000
      3         -4.353026       -4.243641   1.000000   1.000000
      4         -3.456194       -3.345002   1.000000   1.000000
      5         -2.834588       -2.732417   1.000000   1.000000
      6         -1.828332       -1.723667   1.000000   1.000000
      7         -1.828179       -1.723519   1.000000   1.000000
      8          0.844908        0.967300   1.000000   1.000000
      9          1.524456        1.643018   1.000000   1.000000
     10          1.524465        1.643027   1.000000   1.000000
     11          1.823563        1.940915   1.000000   1.000000
     12          1.823775        1.941092   1.000000   1.000000
     13          2.046967        2.161748   1.000000   1.000000
     14          2.223089        2.331889   1.000000   1.000000
     15          3.438521        3.554423   1.000000   1.000000
     16          4.329786        4.443347   1.000000   0.000000
     17          5.560642        5.696444   1.000000   0.000000
     18          5.904720        6.037756   0.000000   0.000000
     19          5.904843        6.037871   0.000000   0.000000
     20          6.339842        6.449673   0.000000   0.000000
 
  0.0000000E+00 -0.2000000E+00  0.2000000E+00  0.1600000E-01
      1         -6.492252       -6.381273   1.000000   1.000000
      2         -4.353123       -4.243784   1.000000   1.000000
      3         -4.353117       -4.243780   1.000000   1.000000
      4         -3.456190       -3.344992   1.000000   1.000000
      5         -2.834592       -2.732430   1.000000   1.000000
      6         -1.828255       -1.723594   1.000000   1.000000
      7         -1.828252       -1.723579   1.000000   1.000000
      8          0.844902        0.967303   1.000000   1.000000
      9          1.524459        1.642997   1.000000   1.000000
     10          1.524469        1.643034   1.000000   1.000000
     11          1.823664        1.940997   1.000000   1.000000
     12          1.823672        1.941007   1.000000   1.000000
     13          2.046966        2.161753   1.000000   1.000000
     14          2.223083        2.331880   1.000000   1.000000
     15          3.438526        3.554423   1.000000   1.000000
     16          4.329789        4.443355   1.000000   0.000000
     17          5.560653        5.696448   1.000000   0.000000
     18          5.904766        6.037800   0.000000   0.000000
     19          5.904788        6.037847   0.000000   0.000000
     20          6.339846        6.449685   0.000000   0.000000
 
  0.4000000E+00  0.2000000E+00  0.0000000E+00  0.1600000E-01
      1         -6.050924       -5.940383   1.000000   1.000000
      2         -5.329263       -5.219389   1.000000   1.000000
      3         -4.097931       -3.989300   1.000000   1.000000
      4         -3.765018       -3.656562   1.000000   1.000000
      5         -2.466577       -2.361860   1.000000   1.000000
      6         -2.089315       -1.984563   1.000000   1.000000
      7         -0.453677       -0.348087   1.000000   1.000000
      8          0.619738        0.743359   1.000000   1.000000
      9          0.901935        1.009221   1.000000   1.000000
     10          0.903346        1.025504   1.000000   1.000000
     11          1.773991        1.893149   1.000000   1.000000
     12          1.904617        2.022879   1.000000   1.000000
     13          1.982541        2.099888   1.000000   1.000000
     14          2.535026        2.650418   1.000000   1.000000
     15          2.579953        2.697393   1.000000   1.000000
     16          3.533946        3.647457   1.000000   1.000000
     17          6.130500        6.259889   0.000000   0.000000
     18          6.487992        6.618395   0.000000   0.000000
     19          6.619361        6.744082   0.000000   0.000000
     20          7.120165        7.231303   0.000000   0.000000
 
  0.0000000E+00  0.4000000E+00  0.2000000E+00  0.1600000E-01
      1         -6.050924       -5.940383   1.000000   1.000000
      2         -5.329263       -5.219388   1.000000   1.000000
      3         -4.097930       -3.989301   1.000000   1.000000
      4         -3.765018       -3.656562   1.000000   1.000000
      5         -2.466577       -2.361860   1.000000   1.000000
      6         -2.089314       -1.984563   1.000000   1.000000
      7         -0.453678       -0.348086   1.000000   1.000000
      8          0.619737        0.743360   1.000000   1.000000
      9          0.901936        1.009223   1.000000   1.000000
     10          0.903343        1.025505   1.000000   1.000000
     11          1.773988        1.893152   1.000000   1.000000
     12          1.904621        2.022875   1.000000   1.000000
     13          1.982538        2.099891   1.000000   1.000000
     14          2.535030        2.650414   1.000000   1.000000
     15          2.579957        2.697390   1.000000   1.000000
     16          3.533948        3.647455   1.000000   1.000000
     17          6.130491        6.259898   0.000000   0.000000
     18          6.487996        6.618391   0.000000   0.000000
     19          6.619352        6.744092   0.000000   0.000000
     20          7.121228        7.231303   0.000000   0.000000
 
  0.2000000E+00  0.0000000E+00  0.4000000E+00  0.1600000E-01
      1         -6.050923       -5.940383   1.000000   1.000000
      2         -5.329264       -5.219390   1.000000   1.000000
      3         -4.097932       -3.989305   1.000000   1.000000
      4         -3.765015       -3.656554   1.000000   1.000000
      5         -2.466581       -2.361872   1.000000   1.000000
      6         -2.089311       -1.984553   1.000000   1.000000
      7         -0.453674       -0.348078   1.000000   1.000000
      8          0.619734        0.743362   1.000000   1.000000
      9          0.901934        1.009213   1.000000   1.000000
     10          0.903342        1.025501   1.000000   1.000000
     11          1.773985        1.893150   1.000000   1.000000
     12          1.904618        2.022873   1.000000   1.000000
     13          1.982547        2.099886   1.000000   1.000000
     14          2.535025        2.650412   1.000000   1.000000
     15          2.579953        2.697399   1.000000   1.000000
     16          3.533956        3.647457   1.000000   1.000000
     17          6.130496        6.259899   0.000000   0.000000
     18          6.487988        6.618412   0.000000   0.000000
     19          6.619357        6.744080   0.000000   0.000000
     20          7.120024        7.231331   0.000000   0.000000
 
 -0.2000000E+00  0.4000000E+00  0.0000000E+00  0.1600000E-01
      1         -6.050923       -5.940382   1.000000   1.000000
      2         -5.329264       -5.219390   1.000000   1.000000
      3         -4.097933       -3.989307   1.000000   1.000000
      4         -3.765013       -3.656551   1.000000   1.000000
      5         -2.466583       -2.361877   1.000000   1.000000
      6         -2.089309       -1.984550   1.000000   1.000000
      7         -0.453674       -0.348075   1.000000   1.000000
      8          0.619733        0.743363   1.000000   1.000000
      9          0.901932        1.009210   1.000000   1.000000
     10          0.903343        1.025500   1.000000   1.000000
     11          1.773981        1.893151   1.000000   1.000000
     12          1.904621        2.022868   1.000000   1.000000
     13          1.982547        2.099889   1.000000   1.000000
     14          2.535025        2.650409   1.000000   1.000000
     15          2.579956        2.697398   1.000000   1.000000
     16          3.533959        3.647458   1.000000   1.000000
     17          6.130491        6.259907   0.000000   0.000000
     18          6.487993        6.618412   0.000000   0.000000
     19          6.619352        6.744084   0.000000   0.000000
     20          7.121680        7.231327   0.000000   0.000000
 
 -0.4000000E+00  0.0000000E+00  0.2000000E+00  0.1600000E-01
      1         -6.050923       -5.940383   1.000000   1.000000
      2         -5.329263       -5.219389   1.000000   1.000000
      3         -4.097931       -3.989302   1.000000   1.000000
      4         -3.765016       -3.656559   1.000000   1.000000
      5         -2.466579       -2.361864   1.000000   1.000000
      6         -2.089313       -1.984559   1.000000   1.000000
      7         -0.453675       -0.348084   1.000000   1.000000
      8          0.619737        0.743360   1.000000   1.000000
      9          0.901935        1.009219   1.000000   1.000000
     10          0.903343        1.025503   1.000000   1.000000
     11          1.773989        1.893149   1.000000   1.000000
     12          1.904616        2.022877   1.000000   1.000000
     13          1.982545        2.099886   1.000000   1.000000
     14          2.535025        2.650416   1.000000   1.000000
     15          2.579952        2.697396   1.000000   1.000000
     16          3.533951        3.647456   1.000000   1.000000
     17          6.130500        6.259891   0.000000   0.000000
     18          6.487987        6.618404   0.000000   0.000000
     19          6.619361        6.744080   0.000000   0.000000
     20          7.120063        7.231338   0.000000   0.000000
 
  0.0000000E+00  0.2000000E+00  0.4000000E+00  0.1600000E-01
      1         -6.050924       -5.940383   1.000000   1.000000
      2         -5.329263       -5.219388   1.000000   1.000000
      3         -4.097930       -3.989300   1.000000   1.000000
      4         -3.765018       -3.656562   1.000000   1.000000
      5         -2.466577       -2.361860   1.000000   1.000000
      6         -2.089315       -1.984563   1.000000   1.000000
      7         -0.453677       -0.348087   1.000000   1.000000
      8          0.619737        0.743360   1.000000   1.000000
      9          0.901934        1.009222   1.000000   1.000000
     10          0.903346        1.025504   1.000000   1.000000
     11          1.773989        1.893150   1.000000   1.000000
     12          1.904619        2.022877   1.000000   1.000000
     13          1.982539        2.099890   1.000000   1.000000
     14          2.535027        2.650417   1.000000   1.000000
     15          2.579956        2.697391   1.000000   1.000000
     16          3.533946        3.647457   1.000000   1.000000
     17          6.130496        6.259893   0.000000   0.000000
     18          6.487996        6.618391   0.000000   0.000000
     19          6.619357        6.744086   0.000000   0.000000
     20          7.122203        7.231316   0.000000   0.000000
 
  0.0000000E+00 -0.4000000E+00  0.2000000E+00  0.1600000E-01
      1         -6.050923       -5.940382   1.000000   1.000000
      2         -5.329264       -5.219390   1.000000   1.000000
      3         -4.097933       -3.989307   1.000000   1.000000
      4         -3.765013       -3.656551   1.000000   1.000000
      5         -2.466583       -2.361877   1.000000   1.000000
      6         -2.089309       -1.984550   1.000000   1.000000
      7         -0.453673       -0.348075   1.000000   1.000000
      8          0.619732        0.743363   1.000000   1.000000
      9          0.901930        1.009209   1.000000   1.000000
     10          0.903345        1.025499   1.000000   1.000000
     11          1.773981        1.893151   1.000000   1.000000
     12          1.904621        2.022868   1.000000   1.000000
     13          1.982545        2.099890   1.000000   1.000000
     14          2.535024        2.650410   1.000000   1.000000
     15          2.579957        2.697397   1.000000   1.000000
     16          3.533957        3.647460   1.000000   1.000000
     17          6.130491        6.259907   0.000000   0.000000
     18          6.487997        6.618408   0.000000   0.000000
     19          6.619352        6.744083   0.000000   0.000000
     20          7.120020        7.231332   0.000000   0.000000
 
 -0.2000000E+00  0.0000000E+00  0.4000000E+00  0.1600000E-01
      1         -6.050923       -5.940383   1.000000   1.000000
      2         -5.329263       -5.219389   1.000000   1.000000
      3         -4.097931       -3.989302   1.000000   1.000000
      4         -3.765016       -3.656559   1.000000   1.000000
      5         -2.466579       -2.361864   1.000000   1.000000
      6         -2.089313       -1.984560   1.000000   1.000000
      7         -0.453676       -0.348084   1.000000   1.000000
      8          0.619736        0.743360   1.000000   1.000000
      9          0.901936        1.009220   1.000000   1.000000
     10          0.903341        1.025504   1.000000   1.000000
     11          1.773987        1.893150   1.000000   1.000000
     12          1.904618        2.022876   1.000000   1.000000
     13          1.982545        2.099886   1.000000   1.000000
     14          2.535027        2.650414   1.000000   1.000000
     15          2.579953        2.697395   1.000000   1.000000
     16          3.533953        3.647454   1.000000   1.000000
     17          6.130496        6.259895   0.000000   0.000000
     18          6.487987        6.618404   0.000000   0.000000
     19          6.619357        6.744084   0.000000   0.000000
     20          7.122543        7.231372   0.000000   0.000000
 
  0.4000000E+00  0.0000000E+00  0.2000000E+00  0.1600000E-01
      1         -6.050923       -5.940383   1.000000   1.000000
      2         -5.329264       -5.219390   1.000000   1.000000
      3         -4.097932       -3.989305   1.000000   1.000000
      4         -3.765015       -3.656554   1.000000   1.000000
      5         -2.466581       -2.361872   1.000000   1.000000
      6         -2.089311       -1.984553   1.000000   1.000000
      7         -0.453674       -0.348079   1.000000   1.000000
      8          0.619735        0.743361   1.000000   1.000000
      9          0.901933        1.009212   1.000000   1.000000
     10          0.903345        1.025501   1.000000   1.000000
     11          1.773986        1.893148   1.000000   1.000000
     12          1.904617        2.022874   1.000000   1.000000
     13          1.982548        2.099886   1.000000   1.000000
     14          2.535023        2.650414   1.000000   1.000000
     15          2.579952        2.697400   1.000000   1.000000
     16          3.533954        3.647459   1.000000   1.000000
     17          6.130500        6.259896   0.000000   0.000000
     18          6.487988        6.618412   0.000000   0.000000
     19          6.619361        6.744076   0.000000   0.000000
     20          7.120105        7.231428   0.000000   0.000000
 
  0.0000000E+00 -0.2000000E+00  0.4000000E+00  0.1600000E-01
      1         -6.050923       -5.940382   1.000000   1.000000
      2         -5.329264       -5.219390   1.000000   1.000000
      3         -4.097933       -3.989307   1.000000   1.000000