       N       E                     dE             d eps       ncg     rms          rms(c)
DAV:   1     0.129997960679E+03    0.13000E+03   -0.13285E+04  5040   0.157E+03
DAV:   2    -0.249532504546E+02   -0.15495E+03   -0.14955E+03  6632   0.183E+02
DAV:   3    -0.353395667437E+02   -0.10386E+02   -0.10197E+02  6564   0.472E+01
DAV:   4    -0.355894303922E+02   -0.24986E+00   -0.24623E+00  6452   0.769E+00
DAV:   5    -0.355989712919E+02   -0.95409E-02   -0.92627E-02  6364   0.128E+00    0.793E+00
DAV:   6    -0.349246321587E+02    0.67434E+00   -0.14419E+00  6296   0.482E+00    0.376E+00
DAV:   7    -0.348520442882E+02    0.72588E-01   -0.12649E-01  5860   0.194E+00    0.930E-01
DAV:   8    -0.348527306057E+02   -0.68632E-03   -0.21286E-02  5816   0.811E-01    0.371E-01
DAV:   9    -0.348551034757E+02   -0.23729E-02   -0.52715E-03  5712   0.452E-01    0.148E-01
DAV:  10    -0.348553127221E+02   -0.20925E-03   -0.49695E-04  6072   0.153E-01    0.985E-02
DAV:  11    -0.348554090907E+02   -0.96369E-04   -0.13053E-04  5824   0.689E-02    0.156E-02
DAV:  12    -0.348554182843E+02   -0.91937E-05   -0.47572E-05  5896   0.397E-02    0.106E-02
DAV:  13    -0.348554228745E+02   -0.45902E-05   -0.15744E-05  5736   0.178E-02    0.325E-03
DAV:  14    -0.348554240138E+02   -0.11393E-05   -0.10419E-05  5872   0.669E-03    0.122E-03
DAV:  15    -0.348554248828E+02   -0.86906E-06   -0.90383E-06  4552   0.433E-03    0.586E-04
DAV:  16    -0.348554256735E+02   -0.79069E-06   -0.81690E-06  3168   0.130E-03    0.346E-04
DAV:  17    -0.348554264386E+02   -0.76508E-06   -0.77749E-06  3092   0.687E-04    0.415E-04
DAV:  18    -0.348554271386E+02   -0.70000E-06   -0.70660E-06  3120   0.688E-04    0.688E-04
DAV:  19    -0.348554277037E+02   -0.56509E-06   -0.57176E-06  3104   0.594E-04    0.714E-04
DAV:  20    -0.348554282347E+02   -0.53102E-06   -0.51923E-06  3120   0.567E-04    0.655E-04
DAV:  21    -0.348554286546E+02   -0.41991E-06   -0.40213E-06  3132   0.875E-04    0.472E-04
DAV:  22    -0.348554290722E+02   -0.41759E-06   -0.40592E-06  3116   0.685E-04    0.475E-04
DAV:  23    -0.348554294481E+02   -0.37591E-06   -0.37147E-06  3116   0.402E-04    0.493E-04
DAV:  24    -0.348554297812E+02   -0.33307E-06   -0.32700E-06  3100   0.345E-04    0.540E-04
DAV:  25    -0.348554300510E+02   -0.26981E-06   -0.27292E-06  3112   0.261E-04    0.671E-04
DAV:  26    -0.348554302790E+02   -0.22796E-06   -0.22115E-06  3096   0.314E-04    0.637E-04
DAV:  27    -0.348554305791E+02   -0.30011E-06   -0.29755E-06  3096   0.235E-04    0.745E-04
DAV:  28    -0.348554308327E+02   -0.25359E-06   -0.25031E-06  3064   0.235E-04    0.757E-04
DAV:  29    -0.348554309890E+02   -0.15634E-06   -0.14848E-06  3016   0.347E-04    0.748E-04
DAV:  30    -0.348554311006E+02   -0.11161E-06   -0.10281E-06  3000   0.518E-04    0.621E-04
DAV:  31    -0.348554313839E+02   -0.28325E-06   -0.27211E-06  3004   0.489E-04    0.680E-04
DAV:  32    -0.348554315877E+02   -0.20382E-06   -0.20306E-06  2948   0.405E-04    0.677E-04
DAV:  33    -0.348554316987E+02   -0.11101E-06   -0.10851E-06  2932   0.222E-04    0.706E-04
DAV:  34    -0.348554317974E+02   -0.98686E-07   -0.96132E-07  2924   0.225E-04
   1 F= -.34855432E+02 E0= -.34854961E+02  d E =-.941933E-03  mag=     1.0000
