  96  96   0   0
  0.2276159E+02  0.1265123E-08  0.1265123E-08  0.1393391E-08  0.5000000E-15
  1.000000000000000E-004
  CAR 
 Si and Ge interface calculation         
      6.51043245    -11.65206237  301      3.57422577      1.00000000
    -11.652  0.0000E+00  0.0000E+00  0.0000E+00  0.0000E+00
    -11.592  0.0000E+00  0.0000E+00  0.0000E+00  0.0000E+00
    -11.531  0.0000E+00  0.0000E+00  0.0000E+00  0.0000E+00
    -11.470  0.0000E+00  0.0000E+00  0.0000E+00  0.0000E+00
    -11.410  0.0000E+00  0.0000E+00  0.0000E+00  0.0000E+00
    -11.349  0.0000E+00  0.0000E+00  0.0000E+00  0.0000E+00
    -11.289  0.0000E+00  0.0000E+00  0.0000E+00  0.0000E+00
    -11.228  0.0000E+00  0.0000E+00  0.0000E+00  0.0000E+00
    -11.168  0.0000E+00  0.0000E+00  0.0000E+00  0.0000E+00
    -11.107  0.0000E+00  0.0000E+00  0.0000E+00  0.0000E+00
    -11.047  0.0000E+00  0.0000E+00  0.0000E+00  0.0000E+00
    -10.986  0.0000E+00  0.0000E+00  0.0000E+00  0.0000E+00
    -10.926  0.0000E+00  0.0000E+00  0.0000E+00  0.0000E+00
    -10.865  0.9838E-07  0.1591E-10  0.5956E-08  0.9633E-12
    -10.804  0.3265E+02  0.2749E+02  0.1977E+01  0.1664E+01
    -10.744  0.3606E+00  0.5550E+01  0.2000E+01  0.2000E+01
    -10.683  0.0000E+00  0.0000E+00  0.2000E+01  0.2000E+01
    -10.623  0.0000E+00  0.0000E+00  0.2000E+01  0.2000E+01
    -10.562  0.0000E+00  0.0000E+00  0.2000E+01  0.2000E+01
    -10.502  0.0000E+00  0.0000E+00  0.2000E+01  0.2000E+01
    -10.441  0.0000E+00  0.0000E+00  0.2000E+01  0.2000E+01
    -10.381  0.0000E+00  0.0000E+00  0.2000E+01  0.2000E+01
    -10.320  0.0000E+00  0.0000E+00  0.2000E+01  0.2000E+01
    -10.260  0.1475E+00  0.1631E-02  0.2009E+01  0.2000E+01
    -10.199  0.2199E+02  0.2202E+02  0.3340E+01  0.3333E+01
    -10.139  0.2185E+02  0.2102E+02  0.4663E+01  0.4606E+01
    -10.078  0.2198E+02  0.2150E+02  0.5994E+01  0.5908E+01
    -10.017  0.9631E-01  0.1523E+01  0.6000E+01  0.6000E+01
     -9.957  0.2035E-03  0.4343E-06  0.6000E+01  0.6000E+01
     -9.896  0.2199E+02  0.2111E+02  0.7331E+01  0.7278E+01
     -9.836  0.3346E+01  0.1398E+01  0.7535E+01  0.7363E+01
     -9.775  0.7680E+01  0.1052E+02  0.8000E+01  0.8000E+01
     -9.715  0.5092E-10  0.3260E-14  0.8000E+01  0.8000E+01
     -9.654  0.2018E+02  0.1231E+02  0.9222E+01  0.8745E+01
     -9.594  0.2387E+02  0.3171E+02  0.1067E+02  0.1067E+02
     -9.533  0.0000E+00  0.1692E-01  0.1067E+02  0.1067E+02
     -9.473  0.0000E+00  0.0000E+00  0.1067E+02  0.1067E+02
     -9.412  0.1529E-11  0.0000E+00  0.1067E+02  0.1067E+02
     -9.351  0.1720E+02  0.7823E+01  0.1171E+02  0.1114E+02
     -9.291  0.4824E+01  0.1420E+02  0.1200E+02  0.1200E+02
     -9.230  0.1818E+02  0.9491E+01  0.1310E+02  0.1257E+02
     -9.170  0.1485E+02  0.2353E+02  0.1400E+02  0.1400E+02
     -9.109  0.0000E+00  0.0000E+00  0.1400E+02  0.1400E+02
     -9.049  0.0000E+00  0.0000E+00  0.1400E+02  0.1400E+02
     -8.988  0.0000E+00  0.0000E+00  0.1400E+02  0.1400E+02
     -8.928  0.1747E-07  0.1802E-11  0.1400E+02  0.1400E+02
     -8.867  0.1109E+02  0.5481E+01  0.1467E+02  0.1433E+02
     -8.807  0.2303E+02  0.2212E+02  0.1607E+02  0.1567E+02
     -8.746  0.1967E+02  0.2568E+02  0.1726E+02  0.1723E+02
     -8.686  0.5683E+01  0.4117E+01  0.1760E+02  0.1748E+02
     -8.625  0.1209E+02  0.1389E+02  0.1833E+02  0.1832E+02
     -8.564  0.1809E+02  0.1483E+02  0.1943E+02  0.1921E+02
     -8.504  0.2295E+02  0.2585E+02  0.2082E+02  0.2078E+02
     -8.443  0.1893E+02  0.1797E+02  0.2197E+02  0.2187E+02
     -8.383  0.4404E+01  0.5822E+01  0.2223E+02  0.2222E+02
     -8.322  0.2834E+02  0.2395E+02  0.2395E+02  0.2367E+02
     -8.262  0.2373E+01  0.5804E+01  0.2409E+02  0.2402E+02
     -8.201  0.2569E+02  0.2307E+02  0.2565E+02  0.2542E+02
     -8.141  0.2150E+02  0.2062E+02  0.2695E+02  0.2667E+02
     -8.080  0.1920E+02  0.2085E+02  0.2811E+02  0.2793E+02
     -8.020  0.2519E+02  0.2700E+02  0.2964E+02  0.2956E+02
     -7.959  0.1186E+02  0.1076E+02  0.3035E+02  0.3022E+02
     -7.898  0.1767E+02  0.1852E+02  0.3142E+02  0.3134E+02
     -7.838  0.3238E+02  0.2857E+02  0.3339E+02  0.3307E+02
     -7.777  0.1662E+02  0.2098E+02  0.3439E+02  0.3434E+02
     -7.717  0.1752E+02  0.1828E+02  0.3545E+02  0.3544E+02
     -7.656  0.2913E+02  0.2572E+02  0.3722E+02  0.3700E+02
     -7.596  0.2870E+02  0.2710E+02  0.3895E+02  0.3864E+02
     -7.535  0.2680E+02  0.2780E+02  0.4058E+02  0.4033E+02
     -7.475  0.2864E+02  0.3109E+02  0.4231E+02  0.4221E+02
     -7.414  0.1764E+02  0.1345E+02  0.4338E+02  0.4302E+02
     -7.354  0.3170E+02  0.3386E+02  0.4530E+02  0.4507E+02
     -7.293  0.3919E+02  0.3737E+02  0.4767E+02  0.4733E+02
     -7.233  0.1841E+02  0.2117E+02  0.4879E+02  0.4862E+02
     -7.172  0.2457E+02  0.2441E+02  0.5027E+02  0.5009E+02
     -7.111  0.1482E+02  0.1321E+02  0.5117E+02  0.5089E+02
     -7.051  0.2865E+02  0.2714E+02  0.5290E+02  0.5254E+02
     -6.990  0.2782E+02  0.3086E+02  0.5459E+02  0.5441E+02
     -6.930  0.2484E+02  0.2454E+02  0.5609E+02  0.5589E+02
     -6.869  0.1926E+02  0.2006E+02  0.5726E+02  0.5711E+02
     -6.809  0.3277E+02  0.3023E+02  0.5924E+02  0.5894E+02
     -6.748  0.3574E+02  0.3608E+02  0.6141E+02  0.6112E+02
     -6.688  0.4349E+01  0.9005E+01  0.6167E+02  0.6167E+02
     -6.627  0.3332E+02  0.2839E+02  0.6369E+02  0.6339E+02
     -6.567  0.2351E+02  0.2092E+02  0.6511E+02  0.6465E+02
     -6.506  0.2921E+02  0.3582E+02  0.6688E+02  0.6682E+02
     -6.445  0.2786E+02  0.2737E+02  0.6857E+02  0.6848E+02
     -6.385  0.2958E+02  0.2688E+02  0.7036E+02  0.7011E+02
     -6.324  0.4273E+02  0.4253E+02  0.7295E+02  0.7268E+02
     -6.264  0.2690E+02  0.2626E+02  0.7457E+02  0.7427E+02
     -6.203  0.2989E+02  0.3045E+02  0.7638E+02  0.7612E+02
     -6.143  0.2726E+02  0.3085E+02  0.7804E+02  0.7798E+02
     -6.082  0.2478E+02  0.2384E+02  0.7954E+02  0.7943E+02
     -6.022  0.1672E+02  0.1742E+02  0.8055E+02  0.8048E+02
     -5.961  0.1769E+02  0.1555E+02  0.8162E+02  0.8142E+02
     -5.901  0.2675E+02  0.2462E+02  0.8324E+02  0.8291E+02
     -5.840  0.2164E+02  0.2568E+02  0.8455E+02  0.8447E+02
     -5.780  0.1788E+02  0.1519E+02  0.8563E+02  0.8539E+02
     -5.719  0.2427E+02  0.2714E+02  0.8710E+02  0.8703E+02
     -5.658  0.2992E+02  0.2414E+02  0.8891E+02  0.8850E+02
     -5.598  0.1440E+02  0.1793E+02  0.8978E+02  0.8958E+02
     -5.537  0.1814E+02  0.2034E+02  0.9088E+02  0.9081E+02
     -5.477  0.1342E+02  0.1252E+02  0.9170E+02  0.9157E+02
     -5.416  0.2588E+02  0.2262E+02  0.9326E+02  0.9294E+02
     -5.356  0.2170E+02  0.2341E+02  0.9458E+02  0.9436E+02
     -5.295  0.2346E+02  0.2638E+02  0.9600E+02  0.9596E+02
     -5.235  0.1778E+02  0.1132E+02  0.9707E+02  0.9664E+02
     -5.174  0.2408E+02  0.2868E+02  0.9853E+02  0.9838E+02
     -5.114  0.2407E+02  0.2080E+02  0.9999E+02  0.9964E+02
     -5.053  0.3225E+02  0.3176E+02  0.1019E+03  0.1016E+03
     -4.992  0.2842E+02  0.3251E+02  0.1037E+03  0.1035E+03
     -4.932  0.2953E+02  0.2638E+02  0.1055E+03  0.1051E+03
     -4.871  0.3388E+02  0.3776E+02  0.1075E+03  0.1074E+03
     -4.811  0.3011E+02  0.2418E+02  0.1093E+03  0.1089E+03
     -4.750  0.2896E+02  0.3253E+02  0.1111E+03  0.1108E+03
     -4.690  0.3124E+02  0.3129E+02  0.1130E+03  0.1127E+03
     -4.629  0.1634E+02  0.1687E+02  0.1140E+03  0.1138E+03
     -4.569  0.3918E+02  0.4089E+02  0.1163E+03  0.1162E+03
     -4.508  0.1661E+02  0.1498E+02  0.1173E+03  0.1171E+03
     -4.448  0.3186E+02  0.3280E+02  0.1193E+03  0.1191E+03
     -4.387  0.2202E+02  0.1986E+02  0.1206E+03  0.1203E+03
     -4.327  0.3099E+02  0.3189E+02  0.1225E+03  0.1223E+03
     -4.266  0.1731E+02  0.1960E+02  0.1235E+03  0.1235E+03
     -4.205  0.2059E+02  0.1875E+02  0.1248E+03  0.1246E+03
     -4.145  0.2619E+02  0.2645E+02  0.1264E+03  0.1262E+03
     -4.084  0.1865E+02  0.2036E+02  0.1275E+03  0.1274E+03
     -4.024  0.1714E+02  0.1139E+02  0.1285E+03  0.1281E+03
     -3.963  0.3852E+02  0.4175E+02  0.1309E+03  0.1306E+03
     -3.903  0.2523E+02  0.2282E+02  0.1324E+03  0.1320E+03
     -3.842  0.2497E+02  0.2887E+02  0.1339E+03  0.1338E+03
     -3.782  0.2203E+02  0.2042E+02  0.1352E+03  0.1350E+03
     -3.721  0.2503E+02  0.2412E+02  0.1367E+03  0.1365E+03
     -3.661  0.2475E+02  0.2597E+02  0.1382E+03  0.1380E+03
     -3.600  0.2760E+02  0.2822E+02  0.1399E+03  0.1397E+03
     -3.539  0.2593E+02  0.2656E+02  0.1415E+03  0.1414E+03
     -3.479  0.1598E+02  0.1684E+02  0.1424E+03  0.1424E+03
     -3.418  0.2714E+02  0.2540E+02  0.1441E+03  0.1439E+03
     -3.358  0.3506E+02  0.3684E+02  0.1462E+03  0.1461E+03
     -3.297  0.3013E+02  0.2328E+02  0.1480E+03  0.1476E+03
     -3.237  0.3128E+02  0.3582E+02  0.1499E+03  0.1497E+03
     -3.176  0.2333E+02  0.1929E+02  0.1513E+03  0.1509E+03
     -3.116  0.3293E+02  0.3725E+02  0.1533E+03  0.1531E+03
     -3.055  0.2750E+02  0.2657E+02  0.1550E+03  0.1548E+03
     -2.995  0.2539E+02  0.2347E+02  0.1565E+03  0.1562E+03
     -2.934  0.3044E+02  0.3201E+02  0.1584E+03  0.1581E+03
     -2.874  0.3331E+02  0.3053E+02  0.1604E+03  0.1600E+03
     -2.813  0.2228E+02  0.2596E+02  0.1618E+03  0.1615E+03
     -2.752  0.3350E+02  0.3074E+02  0.1638E+03  0.1634E+03
     -2.692  0.1801E+02  0.2277E+02  0.1649E+03  0.1648E+03
     -2.631  0.2256E+02  0.2073E+02  0.1662E+03  0.1660E+03
     -2.571  0.2231E+02  0.2020E+02  0.1676E+03  0.1673E+03
     -2.510  0.2780E+02  0.2967E+02  0.1693E+03  0.1690E+03
     -2.450  0.2409E+02  0.2055E+02  0.1707E+03  0.1703E+03
     -2.389  0.1441E+02  0.1815E+02  0.1716E+03  0.1714E+03
     -2.329  0.1114E+02  0.1357E+02  0.1723E+03  0.1722E+03
     -2.268  0.2381E+02  0.1981E+02  0.1737E+03  0.1734E+03
     -2.208  0.2136E+02  0.2509E+02  0.1750E+03  0.1749E+03
     -2.147  0.1885E+02  0.1445E+02  0.1762E+03  0.1758E+03
     -2.086  0.1848E+02  0.2225E+02  0.1773E+03  0.1772E+03
     -2.026  0.2496E+02  0.2392E+02  0.1788E+03  0.1786E+03
     -1.965  0.1532E+02  0.1759E+02  0.1797E+03  0.1797E+03
     -1.905  0.2074E+02  0.2028E+02  0.1810E+03  0.1809E+03
     -1.844  0.2564E+02  0.2137E+02  0.1825E+03  0.1822E+03
     -1.784  0.9092E+01  0.1213E+02  0.1831E+03  0.1829E+03
     -1.723  0.2992E+02  0.2790E+02  0.1849E+03  0.1846E+03
     -1.663  0.2775E+02  0.2816E+02  0.1866E+03  0.1863E+03
     -1.602  0.2091E+02  0.2371E+02  0.1878E+03  0.1878E+03
     -1.542  0.2744E+02  0.1945E+02  0.1895E+03  0.1889E+03
     -1.481  0.2284E+02  0.3062E+02  0.1909E+03  0.1908E+03
     -1.421  0.2683E+02  0.2316E+02  0.1925E+03  0.1922E+03
     -1.360  0.1200E+02  0.1548E+02  0.1932E+03  0.1931E+03
     -1.299  0.1711E+02  0.1350E+02  0.1943E+03  0.1939E+03
     -1.239  0.2944E+02  0.3307E+02  0.1960E+03  0.1959E+03
     -1.178  0.1415E+02  0.9580E+01  0.1969E+03  0.1965E+03
     -1.118  0.1835E+02  0.2305E+02  0.1980E+03  0.1979E+03
     -1.057  0.1633E+02  0.1697E+02  0.1990E+03  0.1989E+03
     -0.997  0.2004E+02  0.1869E+02  0.2002E+03  0.2001E+03
     -0.936  0.8092E+01  0.5949E+01  0.2007E+03  0.2004E+03
     -0.876  0.2086E+02  0.2136E+02  0.2020E+03  0.2017E+03
     -0.815  0.1805E+02  0.1743E+02  0.2031E+03  0.2028E+03
     -0.755  0.4107E+02  0.3984E+02  0.2055E+03  0.2052E+03
     -0.694  0.3401E+02  0.3232E+02  0.2076E+03  0.2072E+03
     -0.633  0.4761E+02  0.4899E+02  0.2105E+03  0.2101E+03
     -0.573  0.5403E+02  0.5496E+02  0.2138E+03  0.2135E+03
     -0.512  0.3927E+02  0.3913E+02  0.2161E+03  0.2158E+03
     -0.452  0.3290E+02  0.3490E+02  0.2181E+03  0.2179E+03
     -0.391  0.3345E+02  0.3056E+02  0.2201E+03  0.2198E+03
     -0.331  0.4874E+02  0.4885E+02  0.2231E+03  0.2227E+03
     -0.270  0.3236E+02  0.3521E+02  0.2251E+03  0.2249E+03
     -0.210  0.4079E+02  0.3935E+02  0.2275E+03  0.2273E+03
     -0.149  0.4693E+02  0.4752E+02  0.2304E+03  0.2301E+03
     -0.089  0.3939E+02  0.4001E+02  0.2328E+03  0.2326E+03
     -0.028  0.4318E+02  0.3907E+02  0.2354E+03  0.2349E+03
      0.032  0.4526E+02  0.4438E+02  0.2381E+03  0.2376E+03
      0.093  0.4951E+02  0.5103E+02  0.2411E+03  0.2407E+03
      0.154  0.3617E+02  0.3784E+02  0.2433E+03  0.2430E+03
      0.214  0.4426E+02  0.4229E+02  0.2460E+03  0.2456E+03
      0.275  0.2428E+02  0.2712E+02  0.2474E+03  0.2472E+03
      0.335  0.4225E+02  0.3987E+02  0.2500E+03  0.2496E+03
      0.396  0.3377E+02  0.3257E+02  0.2521E+03  0.2516E+03
      0.456  0.5067E+02  0.5045E+02  0.2551E+03  0.2546E+03
      0.517  0.3619E+02  0.4040E+02  0.2573E+03  0.2571E+03
      0.577  0.3497E+02  0.3472E+02  0.2594E+03  0.2592E+03
      0.638  0.5702E+02  0.5251E+02  0.2629E+03  0.2624E+03
      0.698  0.5239E+02  0.5375E+02  0.2661E+03  0.2656E+03
      0.759  0.4707E+02  0.4675E+02  0.2689E+03  0.2684E+03
      0.820  0.4218E+02  0.4432E+02  0.2715E+03  0.2711E+03
      0.880  0.5811E+02  0.5431E+02  0.2750E+03  0.2744E+03
      0.941  0.4035E+02  0.4564E+02  0.2774E+03  0.2772E+03
      1.001  0.4558E+02  0.4428E+02  0.2802E+03  0.2799E+03
      1.062  0.4957E+02  0.5086E+02  0.2832E+03  0.2829E+03
      1.122  0.4167E+02  0.3943E+02  0.2857E+03  0.2853E+03
      1.183  0.3672E+02  0.3695E+02  0.2879E+03  0.2876E+03
      1.243  0.3869E+02  0.4184E+02  0.2903E+03  0.2901E+03
      1.304  0.3861E+02  0.3667E+02  0.2926E+03  0.2923E+03
      1.364  0.4725E+02  0.4386E+02  0.2955E+03  0.2950E+03
      1.425  0.3780E+02  0.4021E+02  0.2978E+03  0.2974E+03
      1.485  0.5137E+02  0.5102E+02  0.3009E+03  0.3005E+03
      1.546  0.3732E+02  0.3536E+02  0.3031E+03  0.3026E+03
      1.607  0.3716E+02  0.4075E+02  0.3054E+03  0.3051E+03
      1.667  0.5234E+02  0.5102E+02  0.3085E+03  0.3082E+03
      1.728  0.3965E+02  0.3703E+02  0.3109E+03  0.3104E+03
      1.788  0.3011E+02  0.3259E+02  0.3128E+03  0.3124E+03
      1.849  0.4585E+02  0.4242E+02  0.3155E+03  0.3150E+03
      1.909  0.3769E+02  0.3739E+02  0.3178E+03  0.3172E+03
      1.970  0.4207E+02  0.4485E+02  0.3204E+03  0.3200E+03
      2.030  0.5704E+02  0.5330E+02  0.3238E+03  0.3232E+03
      2.091  0.4702E+02  0.5087E+02  0.3267E+03  0.3263E+03
      2.151  0.3084E+02  0.2917E+02  0.3285E+03  0.3280E+03
      2.212  0.4111E+02  0.4699E+02  0.3310E+03  0.3309E+03
      2.273  0.3521E+02  0.3258E+02  0.3332E+03  0.3329E+03
      2.333  0.4983E+02  0.4589E+02  0.3362E+03  0.3356E+03
      2.394  0.3714E+02  0.3890E+02  0.3384E+03  0.3380E+03
      2.454  0.3732E+02  0.3540E+02  0.3407E+03  0.3401E+03
      2.515  0.2469E+02  0.2974E+02  0.3422E+03  0.3419E+03
      2.575  0.3387E+02  0.3036E+02  0.3442E+03  0.3438E+03
      2.636  0.3660E+02  0.3513E+02  0.3465E+03  0.3459E+03
      2.696  0.4185E+02  0.4328E+02  0.3490E+03  0.3485E+03
      2.757  0.3804E+02  0.4067E+02  0.3513E+03  0.3510E+03
      2.817  0.3479E+02  0.3217E+02  0.3534E+03  0.3529E+03
      2.878  0.4716E+02  0.4846E+02  0.3563E+03  0.3559E+03
      2.938  0.4361E+02  0.3609E+02  0.3589E+03  0.3580E+03
      2.999  0.3712E+02  0.3879E+02  0.3611E+03  0.3604E+03
      3.060  0.4152E+02  0.4029E+02  0.3637E+03  0.3628E+03
      3.120  0.4539E+02  0.5030E+02  0.3664E+03  0.3659E+03
      3.181  0.2004E+02  0.2235E+02  0.3676E+03  0.3672E+03
      3.241  0.4636E+02  0.4317E+02  0.3704E+03  0.3698E+03
      3.302  0.4496E+02  0.4384E+02  0.3731E+03  0.3725E+03
      3.362  0.3022E+02  0.3306E+02  0.3750E+03  0.3745E+03
      3.423  0.4102E+02  0.4055E+02  0.3775E+03  0.3770E+03
      3.483  0.4757E+02  0.4126E+02  0.3803E+03  0.3795E+03
      3.544  0.2970E+02  0.3839E+02  0.3821E+03  0.3818E+03
      3.604  0.4680E+02  0.4432E+02  0.3850E+03  0.3845E+03
      3.665  0.3479E+02  0.3422E+02  0.3871E+03  0.3865E+03
      3.726  0.4289E+02  0.4069E+02  0.3897E+03  0.3890E+03
      3.786  0.4605E+02  0.4500E+02  0.3925E+03  0.3917E+03
      3.847  0.3227E+02  0.3433E+02  0.3944E+03  0.3938E+03
      3.907  0.4036E+02  0.4610E+02  0.3969E+03  0.3966E+03
      3.968  0.4373E+02  0.3813E+02  0.3995E+03  0.3989E+03
      4.028  0.4905E+02  0.4712E+02  0.4025E+03  0.4018E+03
      4.089  0.4732E+02  0.4893E+02  0.4053E+03  0.4047E+03
      4.149  0.3711E+02  0.3604E+02  0.4076E+03  0.4069E+03
      4.210  0.3736E+02  0.4384E+02  0.4099E+03  0.4096E+03
      4.270  0.3652E+02  0.3291E+02  0.4121E+03  0.4115E+03
      4.331  0.4692E+02  0.5128E+02  0.4149E+03  0.4147E+03
      4.391  0.3951E+02  0.3685E+02  0.4173E+03  0.4169E+03
      4.452  0.3545E+02  0.3658E+02  0.4194E+03  0.4191E+03
      4.513  0.3869E+02  0.4034E+02  0.4218E+03  0.4215E+03
      4.573  0.3579E+02  0.3310E+02  0.4240E+03  0.4235E+03
      4.634  0.3848E+02  0.4364E+02  0.4263E+03  0.4262E+03
      4.694  0.3806E+02  0.3318E+02  0.4286E+03  0.4282E+03
      4.755  0.3198E+02  0.3182E+02  0.4305E+03  0.4301E+03
      4.815  0.3608E+02  0.4002E+02  0.4327E+03  0.4325E+03
      4.876  0.2138E+02  0.2015E+02  0.4340E+03  0.4338E+03
      4.936  0.2846E+02  0.2808E+02  0.4357E+03  0.4355E+03
      4.997  0.4968E+02  0.4686E+02  0.4387E+03  0.4383E+03
      5.057  0.3035E+02  0.3014E+02  0.4406E+03  0.4401E+03
      5.118  0.4168E+02  0.4559E+02  0.4431E+03  0.4429E+03
      5.179  0.3771E+02  0.3508E+02  0.4454E+03  0.4450E+03
      5.239  0.4025E+02  0.4111E+02  0.4478E+03  0.4475E+03
      5.300  0.4063E+02  0.4225E+02  0.4503E+03  0.4501E+03
      5.360  0.3750E+02  0.3291E+02  0.4525E+03  0.4520E+03
      5.421  0.4866E+02  0.5190E+02  0.4555E+03  0.4552E+03
      5.481  0.4388E+02  0.4272E+02  0.4581E+03  0.4578E+03
      5.542  0.3309E+02  0.3566E+02  0.4602E+03  0.4599E+03
      5.602  0.3580E+02  0.3351E+02  0.4623E+03  0.4620E+03
      5.663  0.1950E+02  0.2251E+02  0.4635E+03  0.4633E+03
      5.723  0.8241E+01  0.1105E+02  0.4640E+03  0.4640E+03
      5.784  0.0000E+00  0.0000E+00  0.4640E+03  0.4640E+03
      5.844  0.0000E+00  0.0000E+00  0.4640E+03  0.4640E+03
      5.905  0.0000E+00  0.0000E+00  0.4640E+03  0.4640E+03
      5.966  0.0000E+00  0.0000E+00  0.4640E+03  0.4640E+03
      6.026  0.0000E+00  0.0000E+00  0.4640E+03  0.4640E+03
      6.087  0.0000E+00  0.0000E+00  0.4640E+03  0.4640E+03
      6.147  0.0000E+00  0.0000E+00  0.4640E+03  0.4640E+03
      6.208  0.0000E+00  0.0000E+00  0.4640E+03  0.4640E+03
      6.268  0.0000E+00  0.0000E+00  0.4640E+03  0.4640E+03
      6.329  0.0000E+00  0.0000E+00  0.4640E+03  0.4640E+03
      6.389  0.0000E+00  0.0000E+00  0.4640E+03  0.4640E+03
      6.450  0.0000E+00  0.0000E+00  0.4640E+03  0.4640E+03
      6.510  0.0000E+00  0.0000E+00  0.4640E+03  0.4640E+03
