<?xml version="1.0" encoding="ISO-8859-1"?>
<modeling>
 <generator>
  <i name="program" type="string">vasp </i>
  <i name="version" type="string">6.4.3  </i>
  <i name="subversion" type="string">19Mar24 (build Oct 22 2024 11:23:12) complex                          parallel </i>
  <i name="platform" type="string">LinuxIFC </i>
  <i name="date" type="string">2025 06 04 </i>
  <i name="time" type="string">06:54:13 </i>
 </generator>
 <incar>
  <i type="string" name="SYSTEM">Si and Ge interface calculation</i>
  <i type="int" name="ISTART">     0</i>
  <i type="logical" name="ADDGRID"> T  </i>
  <i type="int" name="ISPIN">     2</i>
  <i name="AMIX">      0.60000000</i>
  <i type="int" name="ICHARG">     2</i>
  <i type="int" name="NELM">   100</i>
  <i name="EDIFF">      0.00000010</i>
  <i name="ENCUT">    700.00000000</i>
  <i name="ENAUG">    900.00000000</i>
  <i type="int" name="NBANDS">   231</i>
  <i name="NUPDOWN">      1.00000000</i>
  <i name="NELECT">    384.00000000</i>
  <i type="string" name="LREAL">AUTO</i>
  <i type="int" name="ISMEAR">     0</i>
  <i name="SIGMA">      0.01000000</i>
  <i type="int" name="LMAXMIX">     6</i>
  <i type="logical" name="LWAVE"> F  </i>
  <i type="logical" name="LVTOT"> F  </i>
  <i type="logical" name="LVHAR"> T  </i>
  <i type="logical" name="LASPH"> T  </i>
  <i type="logical" name="LMIXTAU"> T  </i>
 </incar>
 <primitive_cell>
  <structure name="primitive_cell" >
   <crystal>
    <varray name="basis" >
     <v>      12.65122604       0.00000000       0.00000000 </v>
     <v>       2.53024530      12.39562035       0.00000000 </v>
     <v>       0.00000000       0.00000000      13.93391037 </v>
    </varray>
    <i name="volume">   2185.11296711 </i>
    <varray name="rec_basis" >
     <v>       0.07904372      -0.01613473       0.00000000 </v>
     <v>       0.00000000       0.08067366       0.00000000 </v>
     <v>       0.00000000       0.00000000       0.07176736 </v>
    </varray>
   </crystal>
   <varray name="positions" >
    <v>       0.78425658       0.48979867       0.41441864 </v>
    <v>       0.99259037       0.94813251       0.00000002 </v>
    <v>       0.95092356       0.65646577       0.08288376 </v>
    <v>       0.90925682       0.36479890       0.16576751 </v>
    <v>       0.86759007       0.07313222       0.24865122 </v>
    <v>       0.82592332       0.78146553       0.33153489 </v>
    <v>       0.82710075       0.50251091       0.58288372 </v>
    <v>       0.49259037       0.44813251       0.00000003 </v>
    <v>       0.45092362       0.15646577       0.08288376 </v>
    <v>       0.40925688       0.86479896       0.16576751 </v>
    <v>       0.49376744       0.41917768       0.50000000 </v>
    <v>       0.32592338       0.28146553       0.33153492 </v>
    <v>       0.36876750       0.29417765       0.50000000 </v>
    <v>       0.36759040       0.82313263       0.00000001 </v>
    <v>       0.32592362       0.53146583       0.08288376 </v>
    <v>       0.28425688       0.23979901       0.16576754 </v>
    <v>       0.24259017       0.94813240       0.24865119 </v>
    <v>       0.91043395       0.33584419       0.66576755 </v>
    <v>       0.86876744       0.79417765       0.50000000 </v>
    <v>       0.86759049       0.32313258       0.00000001 </v>
    <v>       0.82592368       0.03146578       0.08288376 </v>
    <v>       0.78425688       0.73979890       0.16576751 </v>
    <v>       0.07710051       0.25251091       0.58288372 </v>
    <v>       0.70092338       0.15646553       0.33153489 </v>
    <v>       0.86876744       0.79417765       0.50000000 </v>
    <v>       0.24259035       0.69813263       0.00000000 </v>
    <v>       0.20092359       0.40646580       0.08288375 </v>
    <v>       0.15925685       0.11479896       0.16576751 </v>
    <v>       0.82710075       0.50251091       0.58288372 </v>
    <v>       0.07592334       0.53146553       0.33153489 </v>
    <v>       0.66043401       0.58584422       0.66576755 </v>
    <v>       0.74259043       0.19813251       0.00000002 </v>
    <v>       0.70092362       0.90646571       0.08288377 </v>
    <v>       0.65925688       0.61479890       0.16576751 </v>
    <v>       0.61759025       0.32313234       0.24865122 </v>
    <v>       0.57592344       0.03146547       0.33153489 </v>
    <v>       0.57710064       0.75251091       0.58288372 </v>
    <v>       0.11759036       0.07313251       0.00000002 </v>
    <v>       0.07592360       0.78146577       0.08288376 </v>
    <v>       0.03425685       0.48979896       0.16576751 </v>
    <v>       0.99259007       0.19813222       0.24865122 </v>
    <v>       0.28543401       0.71084422       0.66576755 </v>
    <v>       0.40925661       0.11479884       0.41441870 </v>
    <v>       0.61759049       0.57313258       0.00000001 </v>
    <v>       0.57592362       0.28146583       0.08288375 </v>
    <v>       0.53425694       0.98979902       0.16576754 </v>
    <v>       0.49259019       0.69813228       0.24865125 </v>
    <v>       0.11876750       0.54417765       0.50000000 </v>
    <v>       0.91043359       0.08584392       0.91441870 </v>
    <v>       0.15925664       0.36479878       0.41441870 </v>
    <v>       0.74259013       0.44813234       0.24865119 </v>
    <v>       0.78543389       0.21084416       0.66576755 </v>
    <v>       0.49376714       0.16917741       0.74865127 </v>
    <v>       0.20210051       0.12751067       0.83153498 </v>
    <v>       0.41043353       0.58584392       0.91441870 </v>
    <v>       0.65925658       0.86479867       0.41441864 </v>
    <v>       0.90925658       0.61479878       0.41441870 </v>
    <v>       0.95092338       0.90646553       0.33153492 </v>
    <v>       0.99376720       0.66917741       0.74865127 </v>
    <v>       0.70210040       0.62751067       0.83153498 </v>
    <v>       0.78543371       0.46084398       0.91441870 </v>
    <v>       0.24376750       0.66917771       0.50000000 </v>
    <v>       0.95210075       0.62751091       0.58288372 </v>
    <v>       0.53425670       0.73979867       0.41441870 </v>
    <v>       0.36876726       0.54417747       0.74865127 </v>
    <v>       0.07710051       0.50251073       0.83153498 </v>
    <v>       0.28543353       0.96084392       0.91441858 </v>
    <v>       0.20092338       0.65646565       0.33153492 </v>
    <v>       0.45210069       0.12751102       0.58288372 </v>
    <v>       0.16043401       0.08584416       0.66576755 </v>
    <v>       0.86876726       0.04417753       0.74865127 </v>
    <v>       0.57710046       0.00251067       0.83153498 </v>
    <v>       0.66043365       0.33584389       0.91441870 </v>
    <v>       0.45092344       0.40646553       0.33153495 </v>
    <v>       0.11759009       0.82313240       0.24865118 </v>
    <v>       0.53543395       0.46084416       0.66576755 </v>
    <v>       0.24376726       0.41917741       0.74865115 </v>
    <v>       0.95210046       0.37751067       0.83153486 </v>
    <v>       0.16043353       0.83584404       0.91441870 </v>
    <v>       0.61876744       0.04417777       0.50000000 </v>
    <v>       0.32710064       0.00251102       0.58288372 </v>
    <v>       0.03543389       0.96084416       0.66576755 </v>
    <v>       0.74376720       0.91917753       0.74865127 </v>
    <v>       0.45210040       0.87751079       0.83153498 </v>
    <v>       0.03543353       0.21084392       0.91441870 </v>
    <v>       0.36759013       0.57313228       0.24865122 </v>
    <v>       0.20210064       0.37751091       0.58288372 </v>
    <v>       0.20092338       0.65646565       0.33153492 </v>
    <v>       0.61876714       0.29417741       0.74865115 </v>
    <v>       0.32710051       0.25251067       0.83153498 </v>
    <v>       0.53543371       0.71084404       0.91441870 </v>
    <v>       0.15925664       0.36479878       0.41441870 </v>
    <v>       0.70210069       0.87751091       0.58288372 </v>
    <v>       0.41043401       0.83584428       0.66576755 </v>
    <v>       0.11876726       0.79417753       0.74865127 </v>
    <v>       0.82710046       0.75251079       0.83153498 </v>
   </varray>
  </structure>
  <varray name="primitive_index" >
   <v type="int" >        1 </v>
   <v type="int" >        2 </v>
   <v type="int" >        3 </v>
   <v type="int" >        4 </v>
   <v type="int" >        5 </v>
   <v type="int" >        6 </v>
   <v type="int" >        7 </v>
   <v type="int" >        8 </v>
   <v type="int" >        9 </v>
   <v type="int" >       10 </v>
   <v type="int" >       11 </v>
   <v type="int" >       12 </v>
   <v type="int" >       13 </v>
   <v type="int" >       14 </v>
   <v type="int" >       15 </v>
   <v type="int" >       16 </v>
   <v type="int" >       17 </v>
   <v type="int" >       18 </v>
   <v type="int" >       19 </v>
   <v type="int" >       20 </v>
   <v type="int" >       21 </v>
   <v type="int" >       22 </v>
   <v type="int" >       23 </v>
   <v type="int" >       24 </v>
   <v type="int" >       25 </v>
   <v type="int" >       26 </v>
   <v type="int" >       27 </v>
   <v type="int" >       28 </v>
   <v type="int" >       29 </v>
   <v type="int" >       30 </v>
   <v type="int" >       31 </v>
   <v type="int" >       32 </v>
   <v type="int" >       33 </v>
   <v type="int" >       34 </v>
   <v type="int" >       35 </v>
   <v type="int" >       36 </v>
   <v type="int" >       37 </v>
   <v type="int" >       38 </v>
   <v type="int" >       39 </v>
   <v type="int" >       40 </v>
   <v type="int" >       41 </v>
   <v type="int" >       42 </v>
   <v type="int" >       43 </v>
   <v type="int" >       44 </v>
   <v type="int" >       45 </v>
   <v type="int" >       46 </v>
   <v type="int" >       47 </v>
   <v type="int" >       48 </v>
   <v type="int" >       49 </v>
   <v type="int" >       50 </v>
   <v type="int" >       51 </v>
   <v type="int" >       52 </v>
   <v type="int" >       53 </v>
   <v type="int" >       54 </v>
   <v type="int" >       55 </v>
   <v type="int" >       56 </v>
   <v type="int" >       57 </v>
   <v type="int" >       58 </v>
   <v type="int" >       59 </v>
   <v type="int" >       60 </v>
   <v type="int" >       61 </v>
   <v type="int" >       62 </v>
   <v type="int" >       63 </v>
   <v type="int" >       64 </v>
   <v type="int" >       65 </v>
   <v type="int" >       66 </v>
   <v type="int" >       67 </v>
   <v type="int" >       68 </v>
   <v type="int" >       69 </v>
   <v type="int" >       70 </v>
   <v type="int" >       71 </v>
   <v type="int" >       72 </v>
   <v type="int" >       73 </v>
   <v type="int" >       74 </v>
   <v type="int" >       75 </v>
   <v type="int" >       76 </v>
   <v type="int" >       77 </v>
   <v type="int" >       78 </v>
   <v type="int" >       79 </v>
   <v type="int" >       80 </v>
   <v type="int" >       81 </v>
   <v type="int" >       82 </v>
   <v type="int" >       83 </v>
   <v type="int" >       84 </v>
   <v type="int" >       85 </v>
   <v type="int" >       86 </v>
   <v type="int" >       87 </v>
   <v type="int" >       88 </v>
   <v type="int" >       89 </v>
   <v type="int" >       90 </v>
   <v type="int" >       91 </v>
   <v type="int" >       92 </v>
   <v type="int" >       93 </v>
   <v type="int" >       94 </v>
   <v type="int" >       95 </v>
   <v type="int" >       96 </v>
  </varray>
 </primitive_cell>
 <kpoints>
  <generation param="Gamma">
   <v type="int" name="divisions">       3        3        2 </v>
   <v name="usershift">      0.00000000       0.00000000       0.00000000 </v>
   <v name="genvec1">      0.33333333      -0.00000000       0.00000000 </v>
   <v name="genvec2">      0.00000000       0.33333333       0.00000000 </v>
   <v name="genvec3">      0.00000000       0.00000000       0.50000000 </v>
   <v name="shift">      0.00000000       0.00000000       0.00000000 </v>
  </generation>
  <varray name="kpointlist" >
   <v>       0.00000000       0.00000000       0.00000000 </v>
   <v>       0.33333333       0.00000000       0.00000000 </v>
   <v>       0.00000000      -0.33333333       0.00000000 </v>
   <v>       0.33333333       0.33333333       0.00000000 </v>
   <v>      -0.33333333       0.33333333       0.00000000 </v>
   <v>       0.00000000       0.00000000       0.50000000 </v>
   <v>       0.33333333       0.00000000       0.50000000 </v>
   <v>       0.00000000      -0.33333333       0.50000000 </v>
   <v>       0.33333333       0.33333333       0.50000000 </v>
   <v>      -0.33333333       0.33333333       0.50000000 </v>
  </varray>
  <varray name="weights" >
   <v>       0.05555556 </v>
   <v>       0.11111111 </v>
   <v>       0.11111111 </v>
   <v>       0.11111111 </v>
   <v>       0.11111111 </v>
   <v>       0.05555556 </v>
   <v>       0.11111111 </v>
   <v>       0.11111111 </v>
   <v>       0.11111111 </v>
   <v>       0.11111111 </v>
  </varray>
 </kpoints>
 <parameters>
  <separator name="general" >
   <i type="string" name="SYSTEM">Si and Ge interface calculation</i>
   <i type="logical" name="LCOMPAT"> F  </i>
  </separator>
  <separator name="electronic" >
   <i type="string" name="PREC">normal</i>
   <i name="ENMAX">    700.00000000</i>
   <i name="ENAUG">    900.00000000</i>
   <i name="EDIFF">      0.00000010</i>
   <i type="int" name="IALGO">    38</i>
   <i type="int" name="IWAVPR">    10</i>
   <i type="int" name="NBANDS">   232</i>
   <i type="int" name="NBANDSLOW">    -1</i>
   <i type="int" name="NBANDSHIGH">    -1</i>
   <i name="NELECT">    384.00000000</i>
   <i type="int" name="TURBO">     0</i>
   <i type="int" name="IRESTART">     0</i>
   <i type="int" name="NREBOOT">     0</i>
   <i type="int" name="NMIN">     0</i>
   <i name="EREF">      0.00000000</i>
   <separator name="electronic smearing" >
    <i type="int" name="ISMEAR">     0</i>
    <i name="SIGMA">      0.01000000</i>
    <i name="KSPACING">      0.50000000</i>
    <i type="logical" name="KGAMMA"> T  </i>
    <i type="logical" name="KBLOWUP"> T  </i>
   </separator>
   <separator name="electronic projectors" >
    <i type="logical" name="LREAL"> T  </i>
    <v name="ROPT">     -0.00050000</v>
    <i type="int" name="LMAXPAW">  -100</i>
    <i type="int" name="LMAXMIX">     6</i>
    <i type="logical" name="NLSPLINE"> F  </i>
   </separator>
   <separator name="electronic startup" >
    <i type="int" name="ISTART">     0</i>
    <i type="int" name="ICHARG">     2</i>
    <i type="int" name="INIWAV">     1</i>
   </separator>
   <separator name="electronic spin" >
    <i type="int" name="ISPIN">     2</i>
    <i type="logical" name="LNONCOLLINEAR"> F  </i>
    <v name="MAGMOM">      0.01041667      0.01041667      0.01041667      0.01041667      0.01041667      0.01041667      0.01041667      0.01041667      0.01041667      0.01041667      0.01041667      0.01041667      0.01041667      0.01041667      0.01041667      0.01041667      0.01041667      0.01041667      0.01041667      0.01041667
      0.01041667      0.01041667      0.01041667      0.01041667      0.01041667      0.01041667      0.01041667      0.01041667      0.01041667      0.01041667      0.01041667      0.01041667      0.01041667      0.01041667      0.01041667      0.01041667      0.01041667      0.01041667      0.01041667      0.01041667
      0.01041667      0.01041667      0.01041667      0.01041667      0.01041667      0.01041667      0.01041667      0.01041667      0.01041667      0.01041667      0.01041667      0.01041667      0.01041667      0.01041667      0.01041667      0.01041667      0.01041667      0.01041667      0.01041667      0.01041667
      0.01041667      0.01041667      0.01041667      0.01041667      0.01041667      0.01041667      0.01041667      0.01041667      0.01041667      0.01041667      0.01041667      0.01041667      0.01041667      0.01041667      0.01041667      0.01041667      0.01041667      0.01041667      0.01041667      0.01041667
      0.01041667      0.01041667      0.01041667      0.01041667      0.01041667      0.01041667      0.01041667      0.01041667      0.01041667      0.01041667      0.01041667      0.01041667      0.01041667      0.01041667      0.01041667      0.01041667</v>
    <i name="NUPDOWN">      1.00000000</i>
    <i type="logical" name="LSORBIT"> F  </i>
    <v name="SAXIS">      0.00000000      0.00000000      1.00000000</v>
    <i type="logical" name="LSPIRAL"> F  </i>
    <v name="QSPIRAL">      0.00000000      0.00000000      0.00000000</v>
    <i type="logical" name="LZEROZ"> F  </i>
   </separator>
   <separator name="electronic exchange-correlation" >
    <i type="logical" name="LASPH"> T  </i>
   </separator>
   <separator name="electronic convergence" >
    <i type="int" name="NELM">   100</i>
    <i type="int" name="NELMDL">    -5</i>
    <i type="int" name="NELMIN">     2</i>
    <i name="ENINI">    700.00000000</i>
    <separator name="electronic convergence detail" >
     <i type="logical" name="LDIAG"> T  </i>
     <i type="logical" name="LSUBROT"> F  </i>
     <i name="WEIMIN">      0.00000000</i>
     <i name="EBREAK">      0.00000000</i>
     <i name="DEPER">      0.30000000</i>
     <i type="int" name="NRMM">     4</i>
     <i name="TIME">      0.40000000</i>
    </separator>
   </separator>
   <separator name="electronic mixer" >
    <i name="AMIX">      0.60000000</i>
    <i name="BMIX">      1.00000000</i>
    <i name="AMIN">      0.10000000</i>
    <i name="AMIX_MAG">      2.40000000</i>
    <i name="BMIX_MAG">      1.00000000</i>
    <separator name="electronic mixer details" >
     <i type="int" name="IMIX">     4</i>
     <i type="logical" name="MIXFIRST"> F  </i>
     <i type="int" name="MAXMIX">   -45</i>
     <i name="WC">    100.00000000</i>
     <i type="int" name="INIMIX">     1</i>
     <i type="int" name="MIXPRE">     1</i>
     <i type="int" name="MREMOVE">     5</i>
    </separator>
   </separator>
   <separator name="electronic dipolcorrection" >
    <i type="logical" name="LDIPOL"> F  </i>
    <i type="logical" name="LMONO"> F  </i>
    <i type="int" name="IDIPOL">     0</i>
    <i name="EPSILON">      1.00000000</i>
    <v name="DIPOL">   -100.00000000   -100.00000000   -100.00000000</v>
    <i name="EFIELD">      0.00000000</i>
    <i type="logical" name="LVACPOTAV"> F  </i>
   </separator>
  </separator>
  <separator name="grids" >
   <i type="int" name="NGX">    84</i>
   <i type="int" name="NGY">    84</i>
   <i type="int" name="NGZ">    90</i>
   <i type="int" name="NGXF">   168</i>
   <i type="int" name="NGYF">   168</i>
   <i type="int" name="NGZF">   180</i>
   <i type="logical" name="ADDGRID"> T  </i>
  </separator>
  <separator name="ionic" >
   <i type="int" name="NSW">     0</i>
   <i type="int" name="IBRION">    -1</i>
   <i type="int" name="MDALGO">     0</i>
   <i type="int" name="ISIF">     2</i>
   <i name="PSTRESS">      0.00000000</i>
   <i name="EDIFFG">      0.00000100</i>
   <i type="int" name="NFREE">     0</i>
   <i name="POTIM">      0.50000000</i>
   <i name="SMASS">     -3.00000000</i>
   <i name="SCALEE">      1.00000000</i>
  </separator>
  <separator name="ionic md" >
   <i name="TEBEG">      0.00010000</i>
   <i name="TEEND">      0.00010000</i>
   <i type="int" name="NBLOCK">     1</i>
   <i type="int" name="KBLOCK">     1</i>
   <i type="int" name="NPACO">   256</i>
   <i name="APACO">     10.00000000</i>
  </separator>
  <separator name="symmetry" >
   <i type="int" name="ISYM">     2</i>
   <i name="SYMPREC">      0.00001000</i>
  </separator>
  <separator name="dos" >
   <i type="int" name="LORBIT">     0</i>
   <v name="RWIGS">     -1.00000000</v>
   <i type="int" name="NEDOS">   301</i>
   <i name="EMIN">     10.00000000</i>
   <i name="EMAX">    -10.00000000</i>
   <i name="EFERMI">      0.00000000</i>
  </separator>
  <separator name="writing" >
   <i type="int" name="NWRITE">     2</i>
   <i type="logical" name="LWAVE"> F  </i>
   <i type="logical" name="LDOWNSAMPLE"> F  </i>
   <i type="logical" name="LCHARG"> T  </i>
   <i type="logical" name="LPARD"> F  </i>
   <i type="logical" name="LVTOT"> F  </i>
   <i type="logical" name="LVHAR"> T  </i>
   <i type="logical" name="LELF"> F  </i>
   <i type="logical" name="LOPTICS"> F  </i>
   <v name="STM">      0.00000000      0.00000000      0.00000000      0.00000000      0.00000000      0.00000000      0.00000000</v>
  </separator>
  <separator name="performance" >
   <i type="int" name="NPAR">     4</i>
   <i type="int" name="NSIM">     4</i>
   <i type="int" name="NBLK">    -1</i>
   <i type="logical" name="LPLANE"> T  </i>
   <i type="logical" name="LSCALAPACK"> T  </i>
   <i type="logical" name="LSCAAWARE"> F  </i>
   <i type="logical" name="LSCALU"> F  </i>
   <i type="logical" name="LASYNC"> F  </i>
   <i type="logical" name="LORBITALREAL"> F  </i>
  </separator>
  <separator name="miscellaneous" >
   <i type="int" name="IDIOT">     3</i>
   <i type="int" name="PHON_NSTRUCT">    -1</i>
   <i type="logical" name="LMUSIC"> F  </i>
   <v name="POMASS">     72.61000000</v>
   <v name="DARWINR">      0.00000000</v>
   <v name="DARWINV">      1.00000000</v>
   <i type="logical" name="LCORR"> T  </i>
  </separator>
  <i type="logical" name="GGA_COMPAT"> T  </i>
  <i type="logical" name="LBERRY"> F  </i>
  <i type="int" name="ICORELEVEL">     0</i>
  <i type="logical" name="LDAU"> F  </i>
  <i type="int" name="I_CONSTRAINED_M">     0</i>
  <separator name="electronic exchange-correlation" >
   <i type="string" name="GGA    ">PE</i>
   <i type="string" name="XC_C">1</i>
   <i type="int" name="VOSKOWN">     0</i>
   <i type="logical" name="LHFCALC"> F  </i>
   <i type="string" name="PRECFOCK"></i>
   <i type="logical" name="LSYMGRAD"> F  </i>
   <i type="logical" name="LHFONE"> F  </i>
   <i type="logical" name="LRHFCALC"> F  </i>
   <i type="logical" name="LTHOMAS"> F  </i>
   <i type="logical" name="LMODELHF"> F  </i>
   <i type="logical" name="LFOCKACE"> F  </i>
   <i name="ENCUT4O">     -1.00000000</i>
   <i type="int" name="EXXOEP">     0</i>
   <i type="int" name="FOURORBIT">     0</i>
   <i name="AEXX">      0.00000000</i>
   <i name="HFALPHA">      0.00000000</i>
   <i name="MCALPHA">      0.00000000</i>
   <i name="ALDAX">      1.00000000</i>
   <i name="AGGAX">      1.00000000</i>
   <i name="AMGGAX">      1.00000000</i>
   <i name="ALDAC">      1.00000000</i>
   <i name="AGGAC">      1.00000000</i>
   <i name="AMGGAC">      1.00000000</i>
   <i type="int" name="NKREDX">     1</i>
   <i type="int" name="NKREDY">     1</i>
   <i type="int" name="NKREDZ">     1</i>
   <i type="logical" name="SHIFTRED"> F  </i>
   <i type="logical" name="ODDONLY"> F  </i>
   <i type="logical" name="EVENONLY"> F  </i>
   <i type="int" name="LMAXFOCK">     0</i>
   <i type="int" name="NMAXFOCKAE">     0</i>
   <i type="logical" name="LFOCKAEDFT"> F  </i>
   <i name="HFSCREEN">      0.00000000</i>
   <i name="HFSCREENC">      0.00000000</i>
   <i type="int" name="NBANDSGWLOW">     0</i>
  </separator>
  <separator name="vdW DFT" >
   <i type="logical" name="LUSE_VDW"> F  </i>
   <i type="int" name="IVDW_NL">    -1</i>
   <i type="logical" name="LSPIN_VDW"> F  </i>
   <i name="ZAB_VDW">     -0.84910000</i>
   <i name="GAMMA_VDW">      1.39626340</i>
   <i name="ALPHA_VDW">      0.00000000</i>
   <i name="PARAM1">      0.12340000</i>
   <i name="PARAM2">      1.00000000</i>
   <i name="BPARAM">      6.30000000</i>
   <i name="CPARAM">      0.00930000</i>
  </separator>
  <separator name="model GW" >
   <i type="int" name="MODEL_GW">     0</i>
   <i name="MODEL_EPS0">     13.65695604</i>
   <i name="MODEL_ALPHA">      1.00000000</i>
  </separator>
  <separator name="linear response parameters" >
   <i type="logical" name="LEPSILON"> F  </i>
   <i type="logical" name="LRPA"> F  </i>
   <i type="logical" name="LNABLA"> F  </i>
   <i type="logical" name="LVEL"> F  </i>
   <i name="CSHIFT">      0.10000000</i>
   <i name="OMEGAMAX">     -1.00000000</i>
   <i name="DEG_THRESHOLD">      0.00200000</i>
   <i name="RTIME">     -0.10000000</i>
   <i name="WPLASMAI">      0.00000000</i>
   <v name="DFIELD">      0.00000000      0.00000000      0.00000000</v>
   <v name="WPLASMA">      0.00000000      0.00000000      0.00000000      0.00000000      0.00000000      0.00000000      0.00000000      0.00000000      0.00000000</v>
  </separator>
  <separator name="orbital magnetization" >
   <i type="logical" name="NUCIND"> F  </i>
   <v name="MAGPOS">      0.00000000      0.00000000      0.00000000</v>
   <i type="logical" name="LNICSALL"> T  </i>
   <i type="logical" name="ORBITALMAG"> F  </i>
   <i type="logical" name="LMAGBLOCH"> F  </i>
   <i type="logical" name="LCHIMAG"> F  </i>
   <i type="logical" name="LGAUGE"> T  </i>
   <i type="int" name="MAGATOM">     0</i>
   <v name="MAGDIPOL">      0.00000000      0.00000000      0.00000000</v>
   <v name="AVECCONST">      0.00000000      0.00000000      0.00000000</v>
  </separator>
  <separator name="response functions" >
   <i type="logical" name="LALL_IN_ONE"> F  </i>
   <i type="int" name="IALL_IN_ONE">    -1</i>
   <i type="int" name="NBANDS_WAVE">    -1</i>
   <i type="logical" name="LFINITE_TEMPERATURE"> F  </i>
   <i type="logical" name="LADDER"> F  </i>
   <i type="logical" name="LRPAFORCE"> F  </i>
   <i type="logical" name="LFXC"> F  </i>
   <i type="logical" name="LHARTREE"> T  </i>
   <i type="int" name="IBSE">     0</i>
   <v type="int" name="KPOINT">    -1     0     0     0</v>
   <i type="logical" name="LTCTC"> F  </i>
   <i type="logical" name="LTCTE"> F  </i>
   <i type="logical" name="LTETE"> F  </i>
   <i type="logical" name="LTRIPLET"> F  </i>
   <i type="logical" name="LFXCEPS"> F  </i>
   <i type="logical" name="LFXHEG"> F  </i>
   <i type="int" name="NATURALO">     2</i>
   <i type="logical" name="LHOLEGF"> F  </i>
   <i type="logical" name="L2ORDER"> F  </i>
   <i type="logical" name="LDMP1"> F  </i>
   <i type="logical" name="LMP2LT"> F  </i>
   <i type="logical" name="LSMP2LT"> F  </i>
   <i type="logical" name="LGWLF"> F  </i>
   <i name="ENCUTGW">     -1.60000002</i>
   <i name="ENCUTGWSOFT">     -1.60000002</i>
   <i name="ENCUTLF">     -1.00000000</i>
   <i type="logical" name="ESF_SPLINES"> F  </i>
   <i name="ESF_CONV">      0.01000000</i>
   <i type="int" name="ESF_NINTER">    15</i>
   <i type="int" name="LMAXMP2">    -1</i>
   <i name="SCISSOR">      0.00000000</i>
   <i type="int" name="NOMEGA">     0</i>
   <i type="int" name="NOMEGAR">     0</i>
   <i type="int" name="NBANDSGW">    -1</i>
   <i type="int" name="NBANDSO">    -1</i>
   <i type="int" name="NBANDSV">    -1</i>
   <i type="int" name="NELMGW">     1</i>
   <i type="int" name="NELMHF">     1</i>
   <i type="int" name="DIM">     3</i>
   <i type="int" name="IESPILON">     4</i>
   <i type="int" name="ANTIRES">     0</i>
   <i name="OMEGAMAX">    -30.00000000</i>
   <i name="OMEGAMIN">    -30.00000000</i>
   <i name="OMEGATL">   -200.00000000</i>
   <i type="int" name="OMEGAGRID">     0</i>
   <i name="CSHIFT">     -0.10000000</i>
   <i type="logical" name="LSELFENERGY"> F  </i>
   <i type="logical" name="LSPECTRAL"> F  </i>
   <i type="logical" name="LSPECTRALGW"> F  </i>
   <i type="logical" name="LSINGLES"> F  </i>
   <i type="logical" name="LFERMIGW"> F  </i>
   <i type="logical" name="ODDONLYGW"> F  </i>
   <i type="logical" name="EVENONLYGW"> F  </i>
   <i type="int" name="NKREDLFX">     1</i>
   <i type="int" name="NKREDLFY">     1</i>
   <i type="int" name="NKREDLFZ">     1</i>
   <i type="int" name="MAXMEM">  2800</i>
   <i type="int" name="TELESCOPE">     0</i>
   <i type="int" name="NTAUPAR">    -1</i>
   <i type="int" name="NOMEGAPAR">    -1</i>
   <i name="DAMP_NEWTON">      0.80000001</i>
   <i name="LAMBDA">      1.00000000</i>
  </separator>
  <separator name="External order field" >
   <i name="OFIELD_KAPPA">      0.00000000</i>
   <v name="OFIELD_K">      0.00000000      0.00000000      0.00000000</v>
   <i name="OFIELD_Q6_NEAR">      0.00000000</i>
   <i name="OFIELD_Q6_FAR">      0.00000000</i>
   <i name="OFIELD_A">      0.00000000</i>
  </separator>
  <separator name="optional k-points parameters" >
   <i type="int" name="KPOINTS_OPT_MODE">     1</i>
   <i type="logical" name="LKPOINTS_OPT"> F  </i>
  </separator>
 </parameters>
 <atominfo>
  <atoms>      96 </atoms>
  <types>       1 </types>
  <array name="atoms" >
   <dimension dim="1">ion</dimension>
   <field type="string">element</field>
   <field type="int">atomtype</field>
   <set>
    <rc><c>Ge</c><c>   1</c></rc>
    <rc><c>Ge</c><c>   1</c></rc>
    <rc><c>Ge</c><c>   1</c></rc>
    <rc><c>Ge</c><c>   1</c></rc>
    <rc><c>Ge</c><c>   1</c></rc>
    <rc><c>Ge</c><c>   1</c></rc>
    <rc><c>Ge</c><c>   1</c></rc>
    <rc><c>Ge</c><c>   1</c></rc>
    <rc><c>Ge</c><c>   1</c></rc>
    <rc><c>Ge</c><c>   1</c></rc>
    <rc><c>Ge</c><c>   1</c></rc>
    <rc><c>Ge</c><c>   1</c></rc>
    <rc><c>Ge</c><c>   1</c></rc>
    <rc><c>Ge</c><c>   1</c></rc>
    <rc><c>Ge</c><c>   1</c></rc>
    <rc><c>Ge</c><c>   1</c></rc>
    <rc><c>Ge</c><c>   1</c></rc>
    <rc><c>Ge</c><c>   1</c></rc>
    <rc><c>Ge</c><c>   1</c></rc>
    <rc><c>Ge</c><c>   1</c></rc>
    <rc><c>Ge</c><c>   1</c></rc>
    <rc><c>Ge</c><c>   1</c></rc>
    <rc><c>Ge</c><c>   1</c></rc>
    <rc><c>Ge</c><c>   1</c></rc>
    <rc><c>Ge</c><c>   1</c></rc>
    <rc><c>Ge</c><c>   1</c></rc>
    <rc><c>Ge</c><c>   1</c></rc>
    <rc><c>Ge</c><c>   1</c></rc>
    <rc><c>Ge</c><c>   1</c></rc>
    <rc><c>Ge</c><c>   1</c></rc>
    <rc><c>Ge</c><c>   1</c></rc>
    <rc><c>Ge</c><c>   1</c></rc>
    <rc><c>Ge</c><c>   1</c></rc>
    <rc><c>Ge</c><c>   1</c></rc>
    <rc><c>Ge</c><c>   1</c></rc>
    <rc><c>Ge</c><c>   1</c></rc>
    <rc><c>Ge</c><c>   1</c></rc>
    <rc><c>Ge</c><c>   1</c></rc>
    <rc><c>Ge</c><c>   1</c></rc>
    <rc><c>Ge</c><c>   1</c></rc>
    <rc><c>Ge</c><c>   1</c></rc>
    <rc><c>Ge</c><c>   1</c></rc>
    <rc><c>Ge</c><c>   1</c></rc>
    <rc><c>Ge</c><c>   1</c></rc>
    <rc><c>Ge</c><c>   1</c></rc>
    <rc><c>Ge</c><c>   1</c></rc>
    <rc><c>Ge</c><c>   1</c></rc>
    <rc><c>Ge</c><c>   1</c></rc>
    <rc><c>Ge</c><c>   1</c></rc>
    <rc><c>Ge</c><c>   1</c></rc>
    <rc><c>Ge</c><c>   1</c></rc>
    <rc><c>Ge</c><c>   1</c></rc>
    <rc><c>Ge</c><c>   1</c></rc>
    <rc><c>Ge</c><c>   1</c></rc>
    <rc><c>Ge</c><c>   1</c></rc>
    <rc><c>Ge</c><c>   1</c></rc>
    <rc><c>Ge</c><c>   1</c></rc>
    <rc><c>Ge</c><c>   1</c></rc>
    <rc><c>Ge</c><c>   1</c></rc>
    <rc><c>Ge</c><c>   1</c></rc>
    <rc><c>Ge</c><c>   1</c></rc>
    <rc><c>Ge</c><c>   1</c></rc>
    <rc><c>Ge</c><c>   1</c></rc>
    <rc><c>Ge</c><c>   1</c></rc>
    <rc><c>Ge</c><c>   1</c></rc>
    <rc><c>Ge</c><c>   1</c></rc>
    <rc><c>Ge</c><c>   1</c></rc>
    <rc><c>Ge</c><c>   1</c></rc>
    <rc><c>Ge</c><c>   1</c></rc>
    <rc><c>Ge</c><c>   1</c></rc>
    <rc><c>Ge</c><c>   1</c></rc>
    <rc><c>Ge</c><c>   1</c></rc>
    <rc><c>Ge</c><c>   1</c></rc>
    <rc><c>Ge</c><c>   1</c></rc>
    <rc><c>Ge</c><c>   1</c></rc>
    <rc><c>Ge</c><c>   1</c></rc>
    <rc><c>Ge</c><c>   1</c></rc>
    <rc><c>Ge</c><c>   1</c></rc>
    <rc><c>Ge</c><c>   1</c></rc>
    <rc><c>Ge</c><c>   1</c></rc>
    <rc><c>Ge</c><c>   1</c></rc>
    <rc><c>Ge</c><c>   1</c></rc>
    <rc><c>Ge</c><c>   1</c></rc>
    <rc><c>Ge</c><c>   1</c></rc>
    <rc><c>Ge</c><c>   1</c></rc>
    <rc><c>Ge</c><c>   1</c></rc>
    <rc><c>Ge</c><c>   1</c></rc>
    <rc><c>Ge</c><c>   1</c></rc>
    <rc><c>Ge</c><c>   1</c></rc>
    <rc><c>Ge</c><c>   1</c></rc>
    <rc><c>Ge</c><c>   1</c></rc>
    <rc><c>Ge</c><c>   1</c></rc>
    <rc><c>Ge</c><c>   1</c></rc>
    <rc><c>Ge</c><c>   1</c></rc>
    <rc><c>Ge</c><c>   1</c></rc>
    <rc><c>Ge</c><c>   1</c></rc>
   </set>
  </array>
  <array name="atomtypes" >
   <dimension dim="1">type</dimension>
   <field type="int">atomspertype</field>
   <field type="string">element</field>
   <field>mass</field>
   <field>valence</field>
   <field type="string">pseudopotential</field>
   <set>
    <rc><c>  96</c><c>Ge</c><c>     72.61000000</c><c>      4.00000000</c><c>  PAW_PBE Ge 05Jan2001                  </c></rc>
   </set>
  </array>
 </atominfo>
 <structure name="initialpos" >
  <crystal>
   <varray name="basis" >
    <v>      12.65122604       0.00000000       0.00000000 </v>
    <v>       2.53024530      12.39562035       0.00000000 </v>
    <v>       0.00000000       0.00000000      13.93391037 </v>
   </varray>
   <i name="volume">   2185.11296711 </i>
   <varray name="rec_basis" >
    <v>       0.07904372      -0.01613473       0.00000000 </v>
    <v>       0.00000000       0.08067366       0.00000000 </v>
    <v>       0.00000000       0.00000000       0.07176736 </v>
   </varray>
  </crystal>
  <varray name="positions" >
   <v>       0.78425658       0.48979867       0.41441864 </v>
   <v>       0.99259037       0.94813251       0.00000002 </v>
   <v>       0.95092356       0.65646577       0.08288376 </v>
   <v>       0.90925682       0.36479890       0.16576751 </v>
   <v>       0.86759007       0.07313222       0.24865122 </v>
   <v>       0.82592332       0.78146553       0.33153489 </v>
   <v>       0.82710075       0.50251091       0.58288372 </v>
   <v>       0.49259037       0.44813251       0.00000003 </v>
   <v>       0.45092362       0.15646577       0.08288376 </v>
   <v>       0.40925688       0.86479896       0.16576751 </v>
   <v>       0.49376744       0.41917768       0.50000000 </v>
   <v>       0.32592338       0.28146553       0.33153492 </v>
   <v>       0.36876750       0.29417765       0.50000000 </v>
   <v>       0.36759040       0.82313263       0.00000001 </v>
   <v>       0.32592362       0.53146583       0.08288376 </v>
   <v>       0.28425688       0.23979901       0.16576754 </v>
   <v>       0.24259017       0.94813240       0.24865119 </v>
   <v>       0.91043395       0.33584419       0.66576755 </v>
   <v>       0.86876744       0.79417765       0.50000000 </v>
   <v>       0.86759049       0.32313258       0.00000001 </v>
   <v>       0.82592368       0.03146578       0.08288376 </v>
   <v>       0.78425688       0.73979890       0.16576751 </v>
   <v>       0.07710051       0.25251091       0.58288372 </v>
   <v>       0.70092338       0.15646553       0.33153489 </v>
   <v>       0.86876744       0.79417765       0.50000000 </v>
   <v>       0.24259035       0.69813263       0.00000000 </v>
   <v>       0.20092359       0.40646580       0.08288375 </v>
   <v>       0.15925685       0.11479896       0.16576751 </v>
   <v>       0.82710075       0.50251091       0.58288372 </v>
   <v>       0.07592334       0.53146553       0.33153489 </v>
   <v>       0.66043401       0.58584422       0.66576755 </v>
   <v>       0.74259043       0.19813251       0.00000002 </v>
   <v>       0.70092362       0.90646571       0.08288377 </v>
   <v>       0.65925688       0.61479890       0.16576751 </v>
   <v>       0.61759025       0.32313234       0.24865122 </v>
   <v>       0.57592344       0.03146547       0.33153489 </v>
   <v>       0.57710064       0.75251091       0.58288372 </v>
   <v>       0.11759036       0.07313251       0.00000002 </v>
   <v>       0.07592360       0.78146577       0.08288376 </v>
   <v>       0.03425685       0.48979896       0.16576751 </v>
   <v>       0.99259007       0.19813222       0.24865122 </v>
   <v>       0.28543401       0.71084422       0.66576755 </v>
   <v>       0.40925661       0.11479884       0.41441870 </v>
   <v>       0.61759049       0.57313258       0.00000001 </v>
   <v>       0.57592362       0.28146583       0.08288375 </v>
   <v>       0.53425694       0.98979902       0.16576754 </v>
   <v>       0.49259019       0.69813228       0.24865125 </v>
   <v>       0.11876750       0.54417765       0.50000000 </v>
   <v>       0.91043359       0.08584392       0.91441870 </v>
   <v>       0.15925664       0.36479878       0.41441870 </v>
   <v>       0.74259013       0.44813234       0.24865119 </v>
   <v>       0.78543389       0.21084416       0.66576755 </v>
   <v>       0.49376714       0.16917741       0.74865127 </v>
   <v>       0.20210051       0.12751067       0.83153498 </v>
   <v>       0.41043353       0.58584392       0.91441870 </v>
   <v>       0.65925658       0.86479867       0.41441864 </v>
   <v>       0.90925658       0.61479878       0.41441870 </v>
   <v>       0.95092338       0.90646553       0.33153492 </v>
   <v>       0.99376720       0.66917741       0.74865127 </v>
   <v>       0.70210040       0.62751067       0.83153498 </v>
   <v>       0.78543371       0.46084398       0.91441870 </v>
   <v>       0.24376750       0.66917771       0.50000000 </v>
   <v>       0.95210075       0.62751091       0.58288372 </v>
   <v>       0.53425670       0.73979867       0.41441870 </v>
   <v>       0.36876726       0.54417747       0.74865127 </v>
   <v>       0.07710051       0.50251073       0.83153498 </v>
   <v>       0.28543353       0.96084392       0.91441858 </v>
   <v>       0.20092338       0.65646565       0.33153492 </v>
   <v>       0.45210069       0.12751102       0.58288372 </v>
   <v>       0.16043401       0.08584416       0.66576755 </v>
   <v>       0.86876726       0.04417753       0.74865127 </v>
   <v>       0.57710046       0.00251067       0.83153498 </v>
   <v>       0.66043365       0.33584389       0.91441870 </v>
   <v>       0.45092344       0.40646553       0.33153495 </v>
   <v>       0.11759009       0.82313240       0.24865118 </v>
   <v>       0.53543395       0.46084416       0.66576755 </v>
   <v>       0.24376726       0.41917741       0.74865115 </v>
   <v>       0.95210046       0.37751067       0.83153486 </v>
   <v>       0.16043353       0.83584404       0.91441870 </v>
   <v>       0.61876744       0.04417777       0.50000000 </v>
   <v>       0.32710064       0.00251102       0.58288372 </v>
   <v>       0.03543389       0.96084416       0.66576755 </v>
   <v>       0.74376720       0.91917753       0.74865127 </v>
   <v>       0.45210040       0.87751079       0.83153498 </v>
   <v>       0.03543353       0.21084392       0.91441870 </v>
   <v>       0.36759013       0.57313228       0.24865122 </v>
   <v>       0.20210064       0.37751091       0.58288372 </v>
   <v>       0.20092338       0.65646565       0.33153492 </v>
   <v>       0.61876714       0.29417741       0.74865115 </v>
   <v>       0.32710051       0.25251067       0.83153498 </v>
   <v>       0.53543371       0.71084404       0.91441870 </v>
   <v>       0.15925664       0.36479878       0.41441870 </v>
   <v>       0.70210069       0.87751091       0.58288372 </v>
   <v>       0.41043401       0.83584428       0.66576755 </v>
   <v>       0.11876726       0.79417753       0.74865127 </v>
   <v>       0.82710046       0.75251079       0.83153498 </v>
  </varray>
 </structure>
 <calculation>
  <scstep>
   <time name="dav">   19.39   19.57</time>
   <time name="total">   21.06   21.24</time>
   <energy>
    <i name="alphaZ">    806.12556457 </i>
    <i name="ewald">  -9880.44294760 </i>
    <i name="hartreedc">  -1638.97462195 </i>
    <i name="XCdc">   -734.17395930 </i>
    <i name="pawpsdc">   8461.93788731 </i>
    <i name="pawaedc">  -7071.13096423 </i>
    <i name="eentropy">     -0.00098882 </i>
    <i name="bandstr">   1409.70781965 </i>
    <i name="atom">  10079.60734648 </i>
    <i name="e_fr_energy">   1432.65513612 </i>
    <i name="e_wo_entrp">   1432.65612494 </i>
    <i name="e_0_energy">   1432.65563053 </i>
   </energy>
  </scstep>
  <scstep>
   <time name="dav">   21.75   21.94</time>
   <time name="total">   21.76   21.94</time>
   <energy>
    <i name="e_fr_energy">   -715.51834725 </i>
    <i name="e_wo_entrp">   -715.51605704 </i>
    <i name="e_0_energy">   -715.51720214 </i>
   </energy>
  </scstep>
  <scstep>
   <time name="dav">   22.72   22.92</time>
   <time name="total">   22.72   22.92</time>
   <energy>
    <i name="e_fr_energy">   -944.76971033 </i>
    <i name="e_wo_entrp">   -944.76755993 </i>
    <i name="e_0_energy">   -944.76863513 </i>
   </energy>
  </scstep>
  <scstep>
   <time name="dav">   22.55   22.75</time>
   <time name="total">   22.55   22.75</time>
   <energy>
    <i name="e_fr_energy">   -956.06827379 </i>
    <i name="e_wo_entrp">   -956.06574492 </i>
    <i name="e_0_energy">   -956.06700935 </i>
   </energy>
  </scstep>
  <scstep>
   <time name="dav">   23.98   24.19</time>
   <time name="total">   25.09   25.31</time>
   <energy>
    <i name="e_fr_energy">   -956.61717494 </i>
    <i name="e_wo_entrp">   -956.61445545 </i>
    <i name="e_0_energy">   -956.61581519 </i>
   </energy>
  </scstep>
  <scstep>
   <time name="dav">   20.85   21.04</time>
   <time name="total">   23.56   23.76</time>
   <energy>
    <i name="e_fr_energy">   -965.91630854 </i>
    <i name="e_wo_entrp">   -965.91391058 </i>
    <i name="e_0_energy">   -965.91510956 </i>
   </energy>
  </scstep>
  <scstep>
   <time name="dav">   23.35   23.55</time>
   <time name="total">   26.07   26.29</time>
   <energy>
    <i name="e_fr_energy">   -929.07714218 </i>
    <i name="e_wo_entrp">   -929.07496551 </i>
    <i name="e_0_energy">   -929.07605385 </i>
   </energy>
  </scstep>
  <scstep>
   <time name="dav">   21.44   21.63</time>
   <time name="total">   24.15   24.35</time>
   <energy>
    <i name="e_fr_energy">   -929.35602794 </i>
    <i name="e_wo_entrp">   -929.35395827 </i>
    <i name="e_0_energy">   -929.35499311 </i>
   </energy>
  </scstep>
  <scstep>
   <time name="dav">   20.90   21.09</time>
   <time name="total">   23.61   23.81</time>
   <energy>
    <i name="e_fr_energy">   -924.95179520 </i>
    <i name="e_wo_entrp">   -924.94908787 </i>
    <i name="e_0_energy">   -924.95044154 </i>
   </energy>
  </scstep>
  <scstep>
   <time name="dav">   21.11   21.30</time>
   <time name="total">   23.83   24.03</time>
   <energy>
    <i name="e_fr_energy">   -925.02020146 </i>
    <i name="e_wo_entrp">   -925.01801441 </i>
    <i name="e_0_energy">   -925.01910794 </i>
   </energy>
  </scstep>
  <scstep>
   <time name="dav">   21.02   21.23</time>
   <time name="total">   23.73   23.96</time>
   <energy>
    <i name="e_fr_energy">   -924.79097730 </i>
    <i name="e_wo_entrp">   -924.78882875 </i>
    <i name="e_0_energy">   -924.78990303 </i>
   </energy>
  </scstep>
  <scstep>
   <time name="dav">   21.66   21.87</time>
   <time name="total">   24.37   24.59</time>
   <energy>
    <i name="e_fr_energy">   -924.77004722 </i>
    <i name="e_wo_entrp">   -924.76755082 </i>
    <i name="e_0_energy">   -924.76879902 </i>
   </energy>
  </scstep>
  <scstep>
   <time name="dav">   21.66   21.87</time>
   <time name="total">   24.36   24.59</time>
   <energy>
    <i name="e_fr_energy">   -924.75475925 </i>
    <i name="e_wo_entrp">   -924.75244367 </i>
    <i name="e_0_energy">   -924.75360146 </i>
   </energy>
  </scstep>
  <scstep>
   <time name="dav">   21.10   21.31</time>
   <time name="total">   23.83   24.05</time>
   <energy>
    <i name="e_fr_energy">   -924.75444941 </i>
    <i name="e_wo_entrp">   -924.75205212 </i>
    <i name="e_0_energy">   -924.75325076 </i>
   </energy>
  </scstep>
  <scstep>
   <time name="dav">   22.21   22.40</time>
   <time name="total">   24.91   25.12</time>
   <energy>
    <i name="e_fr_energy">   -924.75463194 </i>
    <i name="e_wo_entrp">   -924.75223944 </i>
    <i name="e_0_energy">   -924.75343569 </i>
   </energy>
  </scstep>
  <scstep>
   <time name="dav">   21.37   21.56</time>
   <time name="total">   24.08   24.28</time>
   <energy>
    <i name="e_fr_energy">   -924.75441323 </i>
    <i name="e_wo_entrp">   -924.75203124 </i>
    <i name="e_0_energy">   -924.75322223 </i>
   </energy>
  </scstep>
  <scstep>
   <time name="dav">   21.94   22.13</time>
   <time name="total">   24.64   24.84</time>
   <energy>
    <i name="e_fr_energy">   -924.75442176 </i>
    <i name="e_wo_entrp">   -924.75204082 </i>
    <i name="e_0_energy">   -924.75323129 </i>
   </energy>
  </scstep>
  <scstep>
   <time name="dav">   20.85   21.02</time>
   <time name="total">   23.57   23.76</time>
   <energy>
    <i name="e_fr_energy">   -924.75441635 </i>
    <i name="e_wo_entrp">   -924.75203475 </i>
    <i name="e_0_energy">   -924.75322555 </i>
   </energy>
  </scstep>
  <scstep>
   <time name="dav">   22.78   22.97</time>
   <time name="total">   25.49   25.70</time>
   <energy>
    <i name="e_fr_energy">   -924.75441552 </i>
    <i name="e_wo_entrp">   -924.75203488 </i>
    <i name="e_0_energy">   -924.75322520 </i>
   </energy>
  </scstep>
  <scstep>
   <time name="dav">   22.45   22.64</time>
   <time name="total">   25.17   25.38</time>
   <energy>
    <i name="e_fr_energy">   -924.75441676 </i>
    <i name="e_wo_entrp">   -924.75203684 </i>
    <i name="e_0_energy">   -924.75322680 </i>
   </energy>
  </scstep>
  <scstep>
   <time name="dav">   21.90   22.09</time>
   <time name="total">   24.63   24.83</time>
   <energy>
    <i name="e_fr_energy">   -924.75441673 </i>
    <i name="e_wo_entrp">   -924.75203672 </i>
    <i name="e_0_energy">   -924.75322673 </i>
   </energy>
  </scstep>
  <scstep>
   <time name="dav">   16.59   16.73</time>
   <time name="total">   19.31   19.46</time>
   <energy>
    <i name="e_fr_energy">   -924.75441697 </i>
    <i name="e_wo_entrp">   -924.75203689 </i>
    <i name="e_0_energy">   -924.75322693 </i>
   </energy>
  </scstep>
  <scstep>
   <time name="dav">   15.31   15.45</time>
   <time name="total">   18.03   18.18</time>
   <energy>
    <i name="e_fr_energy">   -924.75441727 </i>
    <i name="e_wo_entrp">   -924.75203728 </i>
    <i name="e_0_energy">   -924.75322727 </i>
   </energy>
  </scstep>
  <scstep>
   <time name="dav">   13.71   13.82</time>
   <time name="total">   15.33   15.45</time>
   <energy>
    <i name="alphaZ">    806.12556457 </i>
    <i name="ewald">  -9880.44294760 </i>
    <i name="hartreedc">  -1761.73679269 </i>
    <i name="XCdc">   -705.33424219 </i>
    <i name="pawpsdc">  33830.52764792 </i>
    <i name="pawaedc"> -32483.60400277 </i>
    <i name="eentropy">     -0.00237999 </i>
    <i name="bandstr">   -809.89461098 </i>
    <i name="atom">  10079.60734648 </i>
    <i name="e_fr_energy">   -924.75441725 </i>
    <i name="e_wo_entrp">   -924.75203725 </i>
    <i name="e_0_energy">   -924.75322725 </i>
   </energy>
  </scstep>
  <structure>
   <crystal>
    <varray name="basis" >
     <v>      12.65122604       0.00000000       0.00000000 </v>
     <v>       2.53024530      12.39562035       0.00000000 </v>
     <v>       0.00000000       0.00000000      13.93391037 </v>
    </varray>
    <i name="volume">   2185.11296711 </i>
    <varray name="rec_basis" >
     <v>       0.07904372      -0.01613473       0.00000000 </v>
     <v>       0.00000000       0.08067366       0.00000000 </v>
     <v>       0.00000000       0.00000000       0.07176736 </v>
    </varray>
   </crystal>
   <varray name="positions" >
    <v>       0.78425658       0.48979867       0.41441864 </v>
    <v>       0.99259037       0.94813251       0.00000002 </v>
    <v>       0.95092356       0.65646577       0.08288376 </v>
    <v>       0.90925682       0.36479890       0.16576751 </v>
    <v>       0.86759007       0.07313222       0.24865122 </v>
    <v>       0.82592332       0.78146553       0.33153489 </v>
    <v>       0.82710075       0.50251091       0.58288372 </v>
    <v>       0.49259037       0.44813251       0.00000003 </v>
    <v>       0.45092362       0.15646577       0.08288376 </v>
    <v>       0.40925688       0.86479896       0.16576751 </v>
    <v>       0.49376744       0.41917768       0.50000000 </v>
    <v>       0.32592338       0.28146553       0.33153492 </v>
    <v>       0.36876750       0.29417765       0.50000000 </v>
    <v>       0.36759040       0.82313263       0.00000001 </v>
    <v>       0.32592362       0.53146583       0.08288376 </v>
    <v>       0.28425688       0.23979901       0.16576754 </v>
    <v>       0.24259017       0.94813240       0.24865119 </v>
    <v>       0.91043395       0.33584419       0.66576755 </v>
    <v>       0.86876744       0.79417765       0.50000000 </v>
    <v>       0.86759049       0.32313258       0.00000001 </v>
    <v>       0.82592368       0.03146578       0.08288376 </v>
    <v>       0.78425688       0.73979890       0.16576751 </v>
    <v>       0.07710051       0.25251091       0.58288372 </v>
    <v>       0.70092338       0.15646553       0.33153489 </v>
    <v>       0.86876744       0.79417765       0.50000000 </v>
    <v>       0.24259035       0.69813263       0.00000000 </v>
    <v>       0.20092359       0.40646580       0.08288375 </v>
    <v>       0.15925685       0.11479896       0.16576751 </v>
    <v>       0.82710075       0.50251091       0.58288372 </v>
    <v>       0.07592334       0.53146553       0.33153489 </v>
    <v>       0.66043401       0.58584422       0.66576755 </v>
    <v>       0.74259043       0.19813251       0.00000002 </v>
    <v>       0.70092362       0.90646571       0.08288377 </v>
    <v>       0.65925688       0.61479890       0.16576751 </v>
    <v>       0.61759025       0.32313234       0.24865122 </v>
    <v>       0.57592344       0.03146547       0.33153489 </v>
    <v>       0.57710064       0.75251091       0.58288372 </v>
    <v>       0.11759036       0.07313251       0.00000002 </v>
    <v>       0.07592360       0.78146577       0.08288376 </v>
    <v>       0.03425685       0.48979896       0.16576751 </v>
    <v>       0.99259007       0.19813222       0.24865122 </v>
    <v>       0.28543401       0.71084422       0.66576755 </v>
    <v>       0.40925661       0.11479884       0.41441870 </v>
    <v>       0.61759049       0.57313258       0.00000001 </v>
    <v>       0.57592362       0.28146583       0.08288375 </v>
    <v>       0.53425694       0.98979902       0.16576754 </v>
    <v>       0.49259019       0.69813228       0.24865125 </v>
    <v>       0.11876750       0.54417765       0.50000000 </v>
    <v>       0.91043359       0.08584392       0.91441870 </v>
    <v>       0.15925664       0.36479878       0.41441870 </v>
    <v>       0.74259013       0.44813234       0.24865119 </v>
    <v>       0.78543389       0.21084416       0.66576755 </v>
    <v>       0.49376714       0.16917741       0.74865127 </v>
    <v>       0.20210051       0.12751067       0.83153498 </v>
    <v>       0.41043353       0.58584392       0.91441870 </v>
    <v>       0.65925658       0.86479867       0.41441864 </v>
    <v>       0.90925658       0.61479878       0.41441870 </v>
    <v>       0.95092338       0.90646553       0.33153492 </v>
    <v>       0.99376720       0.66917741       0.74865127 </v>
    <v>       0.70210040       0.62751067       0.83153498 </v>
    <v>       0.78543371       0.46084398       0.91441870 </v>
    <v>       0.24376750       0.66917771       0.50000000 </v>
    <v>       0.95210075       0.62751091       0.58288372 </v>
    <v>       0.53425670       0.73979867       0.41441870 </v>
    <v>       0.36876726       0.54417747       0.74865127 </v>
    <v>       0.07710051       0.50251073       0.83153498 </v>
    <v>       0.28543353       0.96084392       0.91441858 </v>
    <v>       0.20092338       0.65646565       0.33153492 </v>
    <v>       0.45210069       0.12751102       0.58288372 </v>
    <v>       0.16043401       0.08584416       0.66576755 </v>
    <v>       0.86876726       0.04417753       0.74865127 </v>
    <v>       0.57710046       0.00251067       0.83153498 </v>
    <v>       0.66043365       0.33584389       0.91441870 </v>
    <v>       0.45092344       0.40646553       0.33153495 </v>
    <v>       0.11759009       0.82313240       0.24865118 </v>
    <v>       0.53543395       0.46084416       0.66576755 </v>
    <v>       0.24376726       0.41917741       0.74865115 </v>
    <v>       0.95210046       0.37751067       0.83153486 </v>
    <v>       0.16043353       0.83584404       0.91441870 </v>
    <v>       0.61876744       0.04417777       0.50000000 </v>
    <v>       0.32710064       0.00251102       0.58288372 </v>
    <v>       0.03543389       0.96084416       0.66576755 </v>
    <v>       0.74376720       0.91917753       0.74865127 </v>
    <v>       0.45210040       0.87751079       0.83153498 </v>
    <v>       0.03543353       0.21084392       0.91441870 </v>
    <v>       0.36759013       0.57313228       0.24865122 </v>
    <v>       0.20210064       0.37751091       0.58288372 </v>
    <v>       0.20092338       0.65646565       0.33153492 </v>
    <v>       0.61876714       0.29417741       0.74865115 </v>
    <v>       0.32710051       0.25251067       0.83153498 </v>
    <v>       0.53543371       0.71084404       0.91441870 </v>
    <v>       0.15925664       0.36479878       0.41441870 </v>
    <v>       0.70210069       0.87751091       0.58288372 </v>
    <v>       0.41043401       0.83584428       0.66576755 </v>
    <v>       0.11876726       0.79417753       0.74865127 </v>
    <v>       0.82710046       0.75251079       0.83153498 </v>
   </varray>
  </structure>
  <varray name="forces" >
   <v>      -0.93796845      -0.28855988      -1.15312955 </v>
   <v>       0.93973593      -3.03846763       1.48577599 </v>
   <v>      -0.48251435      -0.41032738      -0.70444388 </v>
   <v>       0.24378407      -0.13502229       0.43761275 </v>
   <v>       0.09912954       0.10358816       0.26454564 </v>
   <v>      -0.58560180       0.13390727      -4.06936501 </v>
   <v>      -0.58450700      -0.56744102       0.37754771 </v>
   <v>       0.67686315      -2.84675166       1.50405934 </v>
   <v>      -0.52619603      -0.30380744      -0.83160566 </v>
   <v>      -0.03279601       0.26630078       0.35475849 </v>
   <v>       0.13287566       0.05505611       0.13404024 </v>
   <v>       0.72380844      -0.47531192      -2.18168786 </v>
   <v>       1.86748778       0.83468094       2.46932542 </v>
   <v>       1.47683885      -2.11282324       3.47594839 </v>
   <v>      -0.68931666      -0.15186078       1.26339948 </v>
   <v>       0.14948217       0.05527477      -0.58070555 </v>
   <v>       0.51591927       0.22901751       0.53161412 </v>
   <v>       0.26239398      -1.53743618       0.60782882 </v>
   <v>       1.56085479       1.58330556       1.60072913 </v>
   <v>       1.45215196      -2.06964234       3.36538884 </v>
   <v>      -0.81239168      -0.11421214       1.22752969 </v>
   <v>      -0.22018409       0.08447620      -0.55807502 </v>
   <v>      -0.41003247      -0.28211295      -0.75128900 </v>
   <v>       0.14161698       0.06216655       0.66281034 </v>
   <v>       1.56085479       1.58330557       1.60072913 </v>
   <v>       0.91187171      -3.01733123       1.39807414 </v>
   <v>      -0.55825612      -0.39092734      -0.88024998 </v>
   <v>      -0.06568135      -0.04400065       0.49690013 </v>
   <v>      -0.58450700      -0.56744102       0.37754771 </v>
   <v>      -2.03135175       0.19632157      -2.69545339 </v>
   <v>      -1.13347576       0.49154455       0.69580255 </v>
   <v>       0.72945572      -2.85772688       1.50110813 </v>
   <v>      -0.42861888      -0.36275265      -0.75179598 </v>
   <v>       0.21432559      -0.01547598       0.14339567 </v>
   <v>       0.12478052       0.04472812       0.16452394 </v>
   <v>       0.12854004       0.33431341      -1.94415730 </v>
   <v>      -0.48941789      -0.53100449       0.60183840 </v>
   <v>       1.42902485      -2.09511604       3.34108566 </v>
   <v>      -0.78966907      -0.10081469       1.11130957 </v>
   <v>       0.03927690       0.12148201      -0.75990099 </v>
   <v>       0.35294430       0.21758246       0.44150924 </v>
   <v>       0.16682532       0.02582237       0.44056659 </v>
   <v>      -1.53780432      -2.11858271      -1.46668888 </v>
   <v>       1.49642201      -2.09057181       3.57044522 </v>
   <v>      -0.62883205      -0.17398025       1.27944196 </v>
   <v>      -0.00499682      -0.03295969      -0.36494811 </v>
   <v>       0.06115212       0.05567812       0.08049281 </v>
   <v>       0.55276947       1.50339932       2.93353769 </v>
   <v>      -1.42902485       2.09511604      -3.34108566 </v>
   <v>      -1.56085479      -1.58330556      -1.60072913 </v>
   <v>      -0.16682532      -0.02582237      -0.44056659 </v>
   <v>      -0.51591927      -0.22901751      -0.53161412 </v>
   <v>       0.00499682       0.03295969       0.36494811 </v>
   <v>       0.81239168       0.11421214      -1.22752969 </v>
   <v>      -1.49642201       2.09057181      -3.57044522 </v>
   <v>      -1.86748778      -0.83468094      -2.46932542 </v>
   <v>      -0.55276947      -1.50339932      -2.93353769 </v>
   <v>       0.41003247       0.28211295       0.75128900 </v>
   <v>      -0.03927690      -0.12148201       0.75990099 </v>
   <v>       0.68931666       0.15186078      -1.26339948 </v>
   <v>      -0.91187171       3.01733123      -1.39807414 </v>
   <v>       0.93796845       0.28855988       1.15312955 </v>
   <v>       2.03135175      -0.19632157       2.69545339 </v>
   <v>      -0.13287566      -0.05505611      -0.13404024 </v>
   <v>      -0.21432559       0.01547598      -0.14339567 </v>
   <v>       0.48251435       0.41032738       0.70444388 </v>
   <v>      -0.72945572       2.85772688      -1.50110813 </v>
   <v>       0.58450700       0.56744102      -0.37754771 </v>
   <v>      -0.12854004      -0.33431341       1.94415730 </v>
   <v>      -0.09912954      -0.10358816      -0.26454564 </v>
   <v>       0.06568135       0.04400065      -0.49690013 </v>
   <v>       0.52619603       0.30380744       0.83160566 </v>
   <v>      -1.47683885       2.11282324      -3.47594839 </v>
   <v>       0.48941789       0.53100449      -0.60183840 </v>
   <v>      -0.26239398       1.53743618      -0.60782882 </v>
   <v>      -0.06115212      -0.05567812      -0.08049281 </v>
   <v>       0.22018409      -0.08447620       0.55807502 </v>
   <v>       0.78966907       0.10081469      -1.11130957 </v>
   <v>      -1.45215196       2.06964234      -3.36538884 </v>
   <v>       1.53780432       2.11858271       1.46668888 </v>
   <v>      -0.14161698      -0.06216655      -0.66281034 </v>
   <v>      -0.35294430      -0.21758246      -0.44150924 </v>
   <v>      -0.14948217      -0.05527477       0.58070555 </v>
   <v>       0.62883205       0.17398025      -1.27944196 </v>
   <v>      -0.93973593       3.03846763      -1.48577599 </v>
   <v>       1.13347576      -0.49154455      -0.69580255 </v>
   <v>       0.58560180      -0.13390727       4.06936501 </v>
   <v>       0.58450700       0.56744102      -0.37754771 </v>
   <v>       0.03279601      -0.26630078      -0.35475849 </v>
   <v>       0.42861888       0.36275265       0.75179598 </v>
   <v>      -0.67686315       2.84675166      -1.50405934 </v>
   <v>      -1.56085479      -1.58330557      -1.60072913 </v>
   <v>      -0.72380844       0.47531192       2.18168786 </v>
   <v>      -0.12478052      -0.04472812      -0.16452394 </v>
   <v>      -0.24378407       0.13502229      -0.43761275 </v>
   <v>       0.55825612       0.39092734       0.88024998 </v>
  </varray>
  <varray name="stress" >
   <v>      97.82590171     -18.29531872       9.54626938 </v>
   <v>     -18.29532034     115.00930498     -15.38947760 </v>
   <v>       9.54626656     -15.38946503     137.11225758 </v>
  </varray>
  <energy>
   <i name="e_fr_energy">   -924.75441725 </i>
   <i name="e_wo_entrp">   -924.75203725 </i>
   <i name="e_0_energy">   -924.75322725 </i>
  </energy>
  <time name="totalsc">  590.62  595.97</time>
  <eigenvalues>
   <array>
    <dimension dim="1">band</dimension>
    <dimension dim="2">kpoint</dimension>
    <dimension dim="3">spin</dimension>
    <field>eigene</field>
    <field>occ</field>
    <set>
     <set comment="spin 1">
      <set comment="kpoint 1">
       <r>  -10.8265    1.0000 </r>
       <r>  -10.1767    1.0000 </r>
       <r>  -10.1666    1.0000 </r>
       <r>   -9.8280    1.0000 </r>
       <r>   -9.6246    1.0000 </r>
       <r>   -9.6220    1.0000 </r>
       <r>   -9.2045    1.0000 </r>
       <r>   -8.8720    1.0000 </r>
       <r>   -8.5846    1.0000 </r>
       <r>   -8.5424    1.0000 </r>
       <r>   -8.4472    1.0000 </r>
       <r>   -8.3391    1.0000 </r>
       <r>   -8.1977    1.0000 </r>
       <r>   -8.1418    1.0000 </r>
       <r>   -8.0615    1.0000 </r>
       <r>   -8.0410    1.0000 </r>
       <r>   -7.8887    1.0000 </r>
       <r>   -7.6898    1.0000 </r>
       <r>   -7.6829    1.0000 </r>
       <r>   -7.6692    1.0000 </r>
       <r>   -7.6521    1.0000 </r>
       <r>   -7.4929    1.0000 </r>
       <r>   -7.3865    1.0000 </r>
       <r>   -7.3459    1.0000 </r>
       <r>   -7.2266    1.0000 </r>
       <r>   -7.0694    1.0000 </r>
       <r>   -7.0179    1.0000 </r>
       <r>   -6.9169    1.0000 </r>
       <r>   -6.8853    1.0000 </r>
       <r>   -6.8349    1.0000 </r>
       <r>   -6.8088    1.0000 </r>
       <r>   -6.7696    1.0000 </r>
       <r>   -6.6548    1.0000 </r>
       <r>   -6.5167    1.0000 </r>
       <r>   -6.2532    1.0000 </r>
       <r>   -6.2471    1.0000 </r>
       <r>   -6.2225    1.0000 </r>
       <r>   -6.1866    1.0000 </r>
       <r>   -6.0628    1.0000 </r>
       <r>   -5.9748    1.0000 </r>
       <r>   -5.9184    1.0000 </r>
       <r>   -5.9151    1.0000 </r>
       <r>   -5.8651    1.0000 </r>
       <r>   -5.7270    1.0000 </r>
       <r>   -5.6163    1.0000 </r>
       <r>   -5.5524    1.0000 </r>
       <r>   -5.3975    1.0000 </r>
       <r>   -5.3412    1.0000 </r>
       <r>   -5.1523    1.0000 </r>
       <r>   -5.1453    1.0000 </r>
       <r>   -5.0451    1.0000 </r>
       <r>   -5.0068    1.0000 </r>
       <r>   -4.9678    1.0000 </r>
       <r>   -4.8504    1.0000 </r>
       <r>   -4.7767    1.0000 </r>
       <r>   -4.7308    1.0000 </r>
       <r>   -4.7061    1.0000 </r>
       <r>   -4.6742    1.0000 </r>
       <r>   -4.6155    1.0000 </r>
       <r>   -4.5938    1.0000 </r>
       <r>   -4.4994    1.0000 </r>
       <r>   -4.4852    1.0000 </r>
       <r>   -4.2916    1.0000 </r>
       <r>   -4.2439    1.0000 </r>
       <r>   -4.1794    1.0000 </r>
       <r>   -3.9830    1.0000 </r>
       <r>   -3.9447    1.0000 </r>
       <r>   -3.7132    1.0000 </r>
       <r>   -3.7006    1.0000 </r>
       <r>   -3.5984    1.0000 </r>
       <r>   -3.5283    1.0000 </r>
       <r>   -3.4850    1.0000 </r>
       <r>   -3.4415    1.0000 </r>
       <r>   -3.4167    1.0000 </r>
       <r>   -3.3391    1.0000 </r>
       <r>   -3.2773    1.0000 </r>
       <r>   -3.1665    1.0000 </r>
       <r>   -3.0174    1.0000 </r>
       <r>   -2.9184    1.0000 </r>
       <r>   -2.8028    1.0000 </r>
       <r>   -2.7231    1.0000 </r>
       <r>   -2.6622    1.0000 </r>
       <r>   -2.6153    1.0000 </r>
       <r>   -2.4081    1.0000 </r>
       <r>   -2.3281    1.0000 </r>
       <r>   -2.2514    1.0000 </r>
       <r>   -2.2148    1.0000 </r>
       <r>   -2.1853    1.0000 </r>
       <r>   -2.0851    1.0000 </r>
       <r>   -1.9383    1.0000 </r>
       <r>   -1.8172    1.0000 </r>
       <r>   -1.7760    1.0000 </r>
       <r>   -1.7301    1.0000 </r>
       <r>   -1.6345    1.0000 </r>
       <r>   -1.5983    1.0000 </r>
       <r>   -1.4673    1.0000 </r>
       <r>   -1.4542    1.0000 </r>
       <r>   -1.4089    1.0000 </r>
       <r>   -1.3117    1.0000 </r>
       <r>   -1.2367    1.0000 </r>
       <r>   -1.0685    1.0000 </r>
       <r>   -0.9322    1.0000 </r>
       <r>   -0.8054    1.0000 </r>
       <r>   -0.6989    1.0000 </r>
       <r>   -0.6415    1.0000 </r>
       <r>   -0.6191    1.0000 </r>
       <r>   -0.5650    1.0000 </r>
       <r>   -0.5449    1.0000 </r>
       <r>   -0.4770    1.0000 </r>
       <r>   -0.4676    1.0000 </r>
       <r>   -0.3747    1.0000 </r>
       <r>   -0.3477    1.0000 </r>
       <r>   -0.2858    1.0000 </r>
       <r>   -0.2645    1.0000 </r>
       <r>   -0.1917    1.0000 </r>
       <r>   -0.1403    1.0000 </r>
       <r>   -0.0961    1.0000 </r>
       <r>   -0.0384    1.0000 </r>
       <r>   -0.0179    1.0000 </r>
       <r>    0.0490    1.0000 </r>
       <r>    0.1079    1.0000 </r>
       <r>    0.2019    1.0000 </r>
       <r>    0.2053    1.0000 </r>
       <r>    0.3111    1.0000 </r>
       <r>    0.3867    1.0000 </r>
       <r>    0.4096    1.0000 </r>
       <r>    0.4329    1.0000 </r>
       <r>    0.4582    1.0000 </r>
       <r>    0.5275    1.0000 </r>
       <r>    0.5911    1.0000 </r>
       <r>    0.5951    1.0000 </r>
       <r>    0.6967    1.0000 </r>
       <r>    0.7223    1.0000 </r>
       <r>    0.7354    1.0000 </r>
       <r>    0.7526    1.0000 </r>
       <r>    0.7980    1.0000 </r>
       <r>    0.8446    1.0000 </r>
       <r>    0.9103    1.0000 </r>
       <r>    0.9438    1.0000 </r>
       <r>    0.9743    1.0000 </r>
       <r>    1.0099    1.0000 </r>
       <r>    1.1398    1.0000 </r>
       <r>    1.1700    1.0000 </r>
       <r>    1.1936    1.0000 </r>
       <r>    1.2467    1.0000 </r>
       <r>    1.2578    1.0000 </r>
       <r>    1.3047    1.0000 </r>
       <r>    1.3403    1.0000 </r>
       <r>    1.3965    1.0000 </r>
       <r>    1.3991    1.0000 </r>
       <r>    1.4753    1.0000 </r>
       <r>    1.5714    1.0000 </r>
       <r>    1.5756    1.0000 </r>
       <r>    1.6096    1.0000 </r>
       <r>    1.6429    1.0000 </r>
       <r>    1.6474    1.0000 </r>
       <r>    1.7448    1.0000 </r>
       <r>    1.7905    1.0000 </r>
       <r>    1.8162    1.0000 </r>
       <r>    1.9561    1.0000 </r>
       <r>    1.9659    1.0000 </r>
       <r>    1.9773    1.0000 </r>
       <r>    2.0071    1.0000 </r>
       <r>    2.0935    1.0000 </r>
       <r>    2.1039    1.0000 </r>
       <r>    2.2287    1.0000 </r>
       <r>    2.2804    1.0000 </r>
       <r>    2.3221    1.0000 </r>
       <r>    2.3323    1.0000 </r>
       <r>    2.4133    1.0000 </r>
       <r>    2.5425    1.0000 </r>
       <r>    2.5499    1.0000 </r>
       <r>    2.6569    1.0000 </r>
       <r>    2.6707    1.0000 </r>
       <r>    2.6985    1.0000 </r>
       <r>    2.7477    1.0000 </r>
       <r>    2.7783    1.0000 </r>
       <r>    2.8385    1.0000 </r>
       <r>    2.9289    1.0000 </r>
       <r>    2.9660    1.0000 </r>
       <r>    2.9864    1.0000 </r>
       <r>    3.0651    1.0000 </r>
       <r>    3.1068    1.0000 </r>
       <r>    3.1818    1.0000 </r>
       <r>    3.2276    1.0000 </r>
       <r>    3.2333    1.0000 </r>
       <r>    3.2839    1.0000 </r>
       <r>    3.3295    1.0000 </r>
       <r>    3.3858    1.0000 </r>
       <r>    3.4035    1.0000 </r>
       <r>    3.4463    1.0000 </r>
       <r>    3.4866    1.0000 </r>
       <r>    3.5222    1.0000 </r>
       <r>    3.5780    1.0000 </r>
       <r>    3.6708    0.0000 </r>
       <r>    3.7096    0.0000 </r>
       <r>    3.8182    0.0000 </r>
       <r>    3.8494    0.0000 </r>
       <r>    4.0085    0.0000 </r>
       <r>    4.0127    0.0000 </r>
       <r>    4.0330    0.0000 </r>
       <r>    4.0359    0.0000 </r>
       <r>    4.0522    0.0000 </r>
       <r>    4.0903    0.0000 </r>
       <r>    4.1468    0.0000 </r>
       <r>    4.2628    0.0000 </r>
       <r>    4.3345    0.0000 </r>
       <r>    4.4134    0.0000 </r>
       <r>    4.4377    0.0000 </r>
       <r>    4.4701    0.0000 </r>
       <r>    4.4994    0.0000 </r>
       <r>    4.5983    0.0000 </r>
       <r>    4.6469    0.0000 </r>
       <r>    4.6668    0.0000 </r>
       <r>    4.6912    0.0000 </r>
       <r>    4.7308    0.0000 </r>
       <r>    4.7658    0.0000 </r>
       <r>    4.8201    0.0000 </r>
       <r>    4.8880    0.0000 </r>
       <r>    4.9748    0.0000 </r>
       <r>    5.0421    0.0000 </r>
       <r>    5.0842    0.0000 </r>
       <r>    5.0990    0.0000 </r>
       <r>    5.1709    0.0000 </r>
       <r>    5.1940    0.0000 </r>
       <r>    5.3061    0.0000 </r>
       <r>    5.3428    0.0000 </r>
       <r>    5.4237    0.0000 </r>
       <r>    5.4753    0.0000 </r>
       <r>    5.5141    0.0000 </r>
       <r>    5.5787    0.0000 </r>
       <r>    5.5826    0.0000 </r>
      </set>
      <set comment="kpoint 2">
       <r>  -10.8197    1.0000 </r>
       <r>  -10.2451    1.0000 </r>
       <r>  -10.0995    1.0000 </r>
       <r>   -9.9153    1.0000 </r>
       <r>   -9.6616    1.0000 </r>
       <r>   -9.3581    1.0000 </r>
       <r>   -9.2355    1.0000 </r>
       <r>   -8.8574    1.0000 </r>
       <r>   -8.8040    1.0000 </r>
       <r>   -8.6447    1.0000 </r>
       <r>   -8.4596    1.0000 </r>
       <r>   -8.3706    1.0000 </r>
       <r>   -8.2077    1.0000 </r>
       <r>   -8.0910    1.0000 </r>
       <r>   -8.0698    1.0000 </r>
       <r>   -7.9327    1.0000 </r>
       <r>   -7.8525    1.0000 </r>
       <r>   -7.7696    1.0000 </r>
       <r>   -7.6434    1.0000 </r>
       <r>   -7.5802    1.0000 </r>
       <r>   -7.5235    1.0000 </r>
       <r>   -7.3667    1.0000 </r>
       <r>   -7.3524    1.0000 </r>
       <r>   -7.3376    1.0000 </r>
       <r>   -7.2118    1.0000 </r>
       <r>   -7.1386    1.0000 </r>
       <r>   -7.1001    1.0000 </r>
       <r>   -6.9516    1.0000 </r>
       <r>   -6.8638    1.0000 </r>
       <r>   -6.7958    1.0000 </r>
       <r>   -6.7490    1.0000 </r>
       <r>   -6.6630    1.0000 </r>
       <r>   -6.5958    1.0000 </r>
       <r>   -6.5449    1.0000 </r>
       <r>   -6.4591    1.0000 </r>
       <r>   -6.3447    1.0000 </r>
       <r>   -6.3430    1.0000 </r>
       <r>   -6.2093    1.0000 </r>
       <r>   -6.1909    1.0000 </r>
       <r>   -6.1320    1.0000 </r>
       <r>   -5.9333    1.0000 </r>
       <r>   -5.9031    1.0000 </r>
       <r>   -5.7942    1.0000 </r>
       <r>   -5.7388    1.0000 </r>
       <r>   -5.6697    1.0000 </r>
       <r>   -5.4431    1.0000 </r>
       <r>   -5.3811    1.0000 </r>
       <r>   -5.3733    1.0000 </r>
       <r>   -5.1881    1.0000 </r>
       <r>   -5.1727    1.0000 </r>
       <r>   -4.9923    1.0000 </r>
       <r>   -4.9136    1.0000 </r>
       <r>   -4.8901    1.0000 </r>
       <r>   -4.8663    1.0000 </r>
       <r>   -4.8552    1.0000 </r>
       <r>   -4.8266    1.0000 </r>
       <r>   -4.7424    1.0000 </r>
       <r>   -4.6736    1.0000 </r>
       <r>   -4.6157    1.0000 </r>
       <r>   -4.5134    1.0000 </r>
       <r>   -4.3585    1.0000 </r>
       <r>   -4.2989    1.0000 </r>
       <r>   -4.2150    1.0000 </r>
       <r>   -4.1714    1.0000 </r>
       <r>   -4.0116    1.0000 </r>
       <r>   -3.9793    1.0000 </r>
       <r>   -3.8325    1.0000 </r>
       <r>   -3.7922    1.0000 </r>
       <r>   -3.7181    1.0000 </r>
       <r>   -3.6547    1.0000 </r>
       <r>   -3.5883    1.0000 </r>
       <r>   -3.5692    1.0000 </r>
       <r>   -3.4308    1.0000 </r>
       <r>   -3.3867    1.0000 </r>
       <r>   -3.2851    1.0000 </r>
       <r>   -3.1693    1.0000 </r>
       <r>   -3.1097    1.0000 </r>
       <r>   -3.0790    1.0000 </r>
       <r>   -3.0011    1.0000 </r>
       <r>   -2.9527    1.0000 </r>
       <r>   -2.8649    1.0000 </r>
       <r>   -2.7471    1.0000 </r>
       <r>   -2.5860    1.0000 </r>
       <r>   -2.5516    1.0000 </r>
       <r>   -2.4540    1.0000 </r>
       <r>   -2.3115    1.0000 </r>
       <r>   -2.2621    1.0000 </r>
       <r>   -2.1540    1.0000 </r>
       <r>   -2.0043    1.0000 </r>
       <r>   -1.9487    1.0000 </r>
       <r>   -1.8518    1.0000 </r>
       <r>   -1.7543    1.0000 </r>
       <r>   -1.7002    1.0000 </r>
       <r>   -1.6430    1.0000 </r>
       <r>   -1.5398    1.0000 </r>
       <r>   -1.4791    1.0000 </r>
       <r>   -1.4426    1.0000 </r>
       <r>   -1.2952    1.0000 </r>
       <r>   -1.1060    1.0000 </r>
       <r>   -1.0283    1.0000 </r>
       <r>   -1.0156    1.0000 </r>
       <r>   -0.8728    1.0000 </r>
       <r>   -0.7740    1.0000 </r>
       <r>   -0.7687    1.0000 </r>
       <r>   -0.7032    1.0000 </r>
       <r>   -0.6843    1.0000 </r>
       <r>   -0.6150    1.0000 </r>
       <r>   -0.5051    1.0000 </r>
       <r>   -0.4889    1.0000 </r>
       <r>   -0.4183    1.0000 </r>
       <r>   -0.3897    1.0000 </r>
       <r>   -0.3798    1.0000 </r>
       <r>   -0.3388    1.0000 </r>
       <r>   -0.2429    1.0000 </r>
       <r>   -0.2109    1.0000 </r>
       <r>   -0.1854    1.0000 </r>
       <r>   -0.1149    1.0000 </r>
       <r>   -0.0800    1.0000 </r>
       <r>    0.0090    1.0000 </r>
       <r>    0.0256    1.0000 </r>
       <r>    0.0681    1.0000 </r>
       <r>    0.1078    1.0000 </r>
       <r>    0.1885    1.0000 </r>
       <r>    0.2724    1.0000 </r>
       <r>    0.2802    1.0000 </r>
       <r>    0.3390    1.0000 </r>
       <r>    0.4113    1.0000 </r>
       <r>    0.4485    1.0000 </r>
       <r>    0.5388    1.0000 </r>
       <r>    0.5994    1.0000 </r>
       <r>    0.6277    1.0000 </r>
       <r>    0.6342    1.0000 </r>
       <r>    0.6933    1.0000 </r>
       <r>    0.7341    1.0000 </r>
       <r>    0.7854    1.0000 </r>
       <r>    0.8454    1.0000 </r>
       <r>    0.8752    1.0000 </r>
       <r>    0.9163    1.0000 </r>
       <r>    0.9442    1.0000 </r>
       <r>    0.9688    1.0000 </r>
       <r>    1.0246    1.0000 </r>
       <r>    1.0412    1.0000 </r>
       <r>    1.0858    1.0000 </r>
       <r>    1.1480    1.0000 </r>
       <r>    1.1984    1.0000 </r>
       <r>    1.2855    1.0000 </r>
       <r>    1.3382    1.0000 </r>
       <r>    1.3542    1.0000 </r>
       <r>    1.3942    1.0000 </r>
       <r>    1.4448    1.0000 </r>
       <r>    1.4626    1.0000 </r>
       <r>    1.5090    1.0000 </r>
       <r>    1.5397    1.0000 </r>
       <r>    1.6257    1.0000 </r>
       <r>    1.6866    1.0000 </r>
       <r>    1.7199    1.0000 </r>
       <r>    1.7711    1.0000 </r>
       <r>    1.8047    1.0000 </r>
       <r>    1.9015    1.0000 </r>
       <r>    1.9866    1.0000 </r>
       <r>    1.9935    1.0000 </r>
       <r>    2.0361    1.0000 </r>
       <r>    2.0746    1.0000 </r>
       <r>    2.0926    1.0000 </r>
       <r>    2.1595    1.0000 </r>
       <r>    2.2322    1.0000 </r>
       <r>    2.2932    1.0000 </r>
       <r>    2.3096    1.0000 </r>
       <r>    2.3445    1.0000 </r>
       <r>    2.3796    1.0000 </r>
       <r>    2.4533    1.0000 </r>
       <r>    2.5737    1.0000 </r>
       <r>    2.6267    1.0000 </r>
       <r>    2.6599    1.0000 </r>
       <r>    2.7453    1.0000 </r>
       <r>    2.8417    1.0000 </r>
       <r>    2.8745    1.0000 </r>
       <r>    2.9168    1.0000 </r>
       <r>    2.9358    1.0000 </r>
       <r>    2.9524    1.0000 </r>
       <r>    3.0302    1.0000 </r>
       <r>    3.0820    1.0000 </r>
       <r>    3.1521    1.0000 </r>
       <r>    3.1820    1.0000 </r>
       <r>    3.2208    1.0000 </r>
       <r>    3.2694    1.0000 </r>
       <r>    3.2954    1.0000 </r>
       <r>    3.3671    1.0000 </r>
       <r>    3.4172    1.0000 </r>
       <r>    3.4605    1.0000 </r>
       <r>    3.4716    1.0000 </r>
       <r>    3.5604    1.0000 </r>
       <r>    3.5772    1.0000 </r>
       <r>    3.6646    0.0000 </r>
       <r>    3.6942    0.0000 </r>
       <r>    3.7646    0.0000 </r>
       <r>    3.7785    0.0000 </r>
       <r>    3.8451    0.0000 </r>
       <r>    3.8776    0.0000 </r>
       <r>    3.9326    0.0000 </r>
       <r>    3.9701    0.0000 </r>
       <r>    4.0191    0.0000 </r>
       <r>    4.0604    0.0000 </r>
       <r>    4.1390    0.0000 </r>
       <r>    4.1510    0.0000 </r>
       <r>    4.2203    0.0000 </r>
       <r>    4.2236    0.0000 </r>
       <r>    4.2968    0.0000 </r>
       <r>    4.3592    0.0000 </r>
       <r>    4.4274    0.0000 </r>
       <r>    4.4600    0.0000 </r>
       <r>    4.4746    0.0000 </r>
       <r>    4.5432    0.0000 </r>
       <r>    4.5912    0.0000 </r>
       <r>    4.6625    0.0000 </r>
       <r>    4.7032    0.0000 </r>
       <r>    4.7685    0.0000 </r>
       <r>    4.8943    0.0000 </r>
       <r>    4.9625    0.0000 </r>
       <r>    5.0012    0.0000 </r>
       <r>    5.0488    0.0000 </r>
       <r>    5.0740    0.0000 </r>
       <r>    5.1536    0.0000 </r>
       <r>    5.1933    0.0000 </r>
       <r>    5.2576    0.0000 </r>
       <r>    5.3177    0.0000 </r>
       <r>    5.3899    0.0000 </r>
       <r>    5.4326    0.0000 </r>
       <r>    5.4370    0.0000 </r>
       <r>    5.4878    0.0000 </r>
       <r>    5.5784    0.0000 </r>
       <r>    5.6699    0.0000 </r>
      </set>
      <set comment="kpoint 3">
       <r>  -10.8208    1.0000 </r>
       <r>  -10.2384    1.0000 </r>
       <r>  -10.1020    1.0000 </r>
       <r>   -9.9173    1.0000 </r>
       <r>   -9.6639    1.0000 </r>
       <r>   -9.3595    1.0000 </r>
       <r>   -9.2341    1.0000 </r>
       <r>   -8.8734    1.0000 </r>
       <r>   -8.8013    1.0000 </r>
       <r>   -8.5732    1.0000 </r>
       <r>   -8.4975    1.0000 </r>
       <r>   -8.4083    1.0000 </r>
       <r>   -8.2146    1.0000 </r>
       <r>   -8.1091    1.0000 </r>
       <r>   -7.9515    1.0000 </r>
       <r>   -7.9433    1.0000 </r>
       <r>   -7.8598    1.0000 </r>
       <r>   -7.8297    1.0000 </r>
       <r>   -7.7029    1.0000 </r>
       <r>   -7.5965    1.0000 </r>
       <r>   -7.4957    1.0000 </r>
       <r>   -7.4089    1.0000 </r>
       <r>   -7.3122    1.0000 </r>
       <r>   -7.2797    1.0000 </r>
       <r>   -7.1950    1.0000 </r>
       <r>   -7.0943    1.0000 </r>
       <r>   -7.0760    1.0000 </r>
       <r>   -7.0206    1.0000 </r>
       <r>   -6.9594    1.0000 </r>
       <r>   -6.8298    1.0000 </r>
       <r>   -6.7619    1.0000 </r>
       <r>   -6.6630    1.0000 </r>
       <r>   -6.5686    1.0000 </r>
       <r>   -6.4126    1.0000 </r>
       <r>   -6.3925    1.0000 </r>
       <r>   -6.3503    1.0000 </r>
       <r>   -6.3038    1.0000 </r>
       <r>   -6.2576    1.0000 </r>
       <r>   -6.1146    1.0000 </r>
       <r>   -6.1005    1.0000 </r>
       <r>   -5.9752    1.0000 </r>
       <r>   -5.9014    1.0000 </r>
       <r>   -5.7976    1.0000 </r>
       <r>   -5.7040    1.0000 </r>
       <r>   -5.6626    1.0000 </r>
       <r>   -5.5951    1.0000 </r>
       <r>   -5.4257    1.0000 </r>
       <r>   -5.3556    1.0000 </r>
       <r>   -5.2756    1.0000 </r>
       <r>   -5.2087    1.0000 </r>
       <r>   -5.1149    1.0000 </r>
       <r>   -5.0699    1.0000 </r>
       <r>   -5.0222    1.0000 </r>
       <r>   -4.9403    1.0000 </r>
       <r>   -4.7965    1.0000 </r>
       <r>   -4.7615    1.0000 </r>
       <r>   -4.5990    1.0000 </r>
       <r>   -4.5546    1.0000 </r>
       <r>   -4.4837    1.0000 </r>
       <r>   -4.4005    1.0000 </r>
       <r>   -4.3646    1.0000 </r>
       <r>   -4.2406    1.0000 </r>
       <r>   -4.1886    1.0000 </r>
       <r>   -4.1168    1.0000 </r>
       <r>   -4.1127    1.0000 </r>
       <r>   -4.0043    1.0000 </r>
       <r>   -3.8515    1.0000 </r>
       <r>   -3.7721    1.0000 </r>
       <r>   -3.7057    1.0000 </r>
       <r>   -3.6514    1.0000 </r>
       <r>   -3.5976    1.0000 </r>
       <r>   -3.4705    1.0000 </r>
       <r>   -3.4025    1.0000 </r>
       <r>   -3.3712    1.0000 </r>
       <r>   -3.2500    1.0000 </r>
       <r>   -3.2247    1.0000 </r>
       <r>   -3.1624    1.0000 </r>
       <r>   -3.1335    1.0000 </r>
       <r>   -2.9872    1.0000 </r>
       <r>   -2.9114    1.0000 </r>
       <r>   -2.8058    1.0000 </r>
       <r>   -2.7731    1.0000 </r>
       <r>   -2.6655    1.0000 </r>
       <r>   -2.5333    1.0000 </r>
       <r>   -2.4939    1.0000 </r>
       <r>   -2.2894    1.0000 </r>
       <r>   -2.2794    1.0000 </r>
       <r>   -2.1992    1.0000 </r>
       <r>   -2.0642    1.0000 </r>
       <r>   -2.0004    1.0000 </r>
       <r>   -1.8668    1.0000 </r>
[...]
       <r>    -9.7753    10.5232     8.0000 </r>
       <r>    -9.7147     0.0000     8.0000 </r>
       <r>    -9.6542    12.3124     8.7454 </r>
       <r>    -9.5936    31.7095    10.6652 </r>
       <r>    -9.5331     0.0169    10.6667 </r>
       <r>    -9.4726     0.0000    10.6667 </r>
       <r>    -9.4120     0.0000    10.6667 </r>
       <r>    -9.3515     7.8228    11.1403 </r>
       <r>    -9.2909    14.2007    12.0000 </r>
       <r>    -9.2304     9.4908    12.5746 </r>
       <r>    -9.1699    23.5280    13.9990 </r>
       <r>    -9.1093     0.0000    14.0000 </r>
       <r>    -9.0488     0.0000    14.0000 </r>
       <r>    -8.9882     0.0000    14.0000 </r>
       <r>    -8.9277     0.0000    14.0000 </r>
       <r>    -8.8671     5.4815    14.3319 </r>
       <r>    -8.8066    22.1226    15.6712 </r>
       <r>    -8.7461    25.6779    17.2258 </r>
       <r>    -8.6855     4.1170    17.4750 </r>
       <r>    -8.6250    13.8914    18.3160 </r>
       <r>    -8.5644    14.8316    19.2140 </r>
       <r>    -8.5039    25.8459    20.7788 </r>
       <r>    -8.4434    17.9671    21.8668 </r>
       <r>    -8.3828     5.8223    22.2195 </r>
       <r>    -8.3223    23.9451    23.6692 </r>
       <r>    -8.2617     5.8041    24.0206 </r>
       <r>    -8.2012    23.0675    25.4171 </r>
       <r>    -8.1406    20.6170    26.6663 </r>
       <r>    -8.0801    20.8464    27.9284 </r>
       <r>    -8.0196    26.9989    29.5636 </r>
       <r>    -7.9590    10.7575    30.2153 </r>
       <r>    -7.8985    18.5211    31.3368 </r>
       <r>    -7.8379    28.5663    33.0663 </r>
       <r>    -7.7774    20.9771    34.3364 </r>
       <r>    -7.7169    18.2789    35.4430 </r>
       <r>    -7.6563    25.7233    37.0008 </r>
       <r>    -7.5958    27.1033    38.6420 </r>
       <r>    -7.5352    27.8009    40.3251 </r>
       <r>    -7.4747    31.0937    42.2076 </r>
       <r>    -7.4141    13.4471    43.0219 </r>
       <r>    -7.3536    33.8588    45.0723 </r>
       <r>    -7.2931    37.3675    47.3346 </r>
       <r>    -7.2325    21.1736    48.6165 </r>
       <r>    -7.1720    24.4124    50.0945 </r>
       <r>    -7.1114    13.2130    50.8944 </r>
       <r>    -7.0509    27.1370    52.5373 </r>
       <r>    -6.9904    30.8625    54.4058 </r>
       <r>    -6.9298    24.5440    55.8922 </r>
       <r>    -6.8693    20.0629    57.1074 </r>
       <r>    -6.8087    30.2280    58.9375 </r>
       <r>    -6.7482    36.0768    61.1217 </r>
       <r>    -6.6876     9.0048    61.6668 </r>
       <r>    -6.6271    28.3945    63.3859 </r>
       <r>    -6.5666    20.9160    64.6529 </r>
       <r>    -6.5060    35.8247    66.8222 </r>
       <r>    -6.4455    27.3658    68.4791 </r>
       <r>    -6.3849    26.8785    70.1065 </r>
       <r>    -6.3244    42.5298    72.6818 </r>
       <r>    -6.2639    26.2591    74.2723 </r>
       <r>    -6.2033    30.4514    76.1164 </r>
       <r>    -6.1428    30.8473    77.9841 </r>
       <r>    -6.0822    23.8418    79.4275 </r>
       <r>    -6.0217    17.4174    80.4821 </r>
       <r>    -5.9611    15.5531    81.4240 </r>
       <r>    -5.9006    24.6182    82.9145 </r>
       <r>    -5.8401    25.6810    84.4700 </r>
       <r>    -5.7795    15.1940    85.3900 </r>
       <r>    -5.7190    27.1439    87.0334 </r>
       <r>    -5.6584    24.1441    88.4953 </r>
       <r>    -5.5979    17.9344    89.5811 </r>
       <r>    -5.5374    20.3376    90.8124 </r>
       <r>    -5.4768    12.5217    91.5704 </r>
       <r>    -5.4163    22.6245    92.9402 </r>
       <r>    -5.3557    23.4146    94.3578 </r>
       <r>    -5.2952    26.3798    95.9550 </r>
       <r>    -5.2346    11.3221    96.6411 </r>
       <r>    -5.1741    28.6768    98.3772 </r>
       <r>    -5.1136    20.8046    99.6368 </r>
       <r>    -5.0530    31.7583   101.5597 </r>
       <r>    -4.9925    32.5067   103.5277 </r>
       <r>    -4.9319    26.3844   105.1254 </r>
       <r>    -4.8714    37.7643   107.4118 </r>
       <r>    -4.8109    24.1786   108.8757 </r>
       <r>    -4.7503    32.5311   110.8451 </r>
       <r>    -4.6898    31.2867   112.7394 </r>
       <r>    -4.6292    16.8656   113.7605 </r>
       <r>    -4.5687    40.8889   116.2362 </r>
       <r>    -4.5081    14.9844   117.1445 </r>
       <r>    -4.4476    32.8048   119.1306 </r>
       <r>    -4.3871    19.8610   120.3330 </r>
       <r>    -4.3265    31.8946   122.2640 </r>
       <r>    -4.2660    19.5965   123.4513 </r>
       <r>    -4.2054    18.7480   124.5864 </r>
       <r>    -4.1449    26.4456   126.1875 </r>
       <r>    -4.0844    20.3604   127.4204 </r>
       <r>    -4.0238    11.3893   128.1107 </r>
       <r>    -3.9633    41.7522   130.6384 </r>
       <r>    -3.9027    22.8155   132.0197 </r>
       <r>    -3.8422    28.8711   133.7680 </r>
       <r>    -3.7816    20.4179   135.0041 </r>
       <r>    -3.7211    24.1232   136.4646 </r>
       <r>    -3.6606    25.9718   138.0369 </r>
       <r>    -3.6000    28.2180   139.7453 </r>
       <r>    -3.5395    26.5600   141.3535 </r>
       <r>    -3.4789    16.8373   142.3731 </r>
       <r>    -3.4184    25.4003   143.9109 </r>
       <r>    -3.3579    36.8414   146.1419 </r>
       <r>    -3.2973    23.2773   147.5513 </r>
       <r>    -3.2368    35.8208   149.7199 </r>
       <r>    -3.1762    19.2938   150.8887 </r>
       <r>    -3.1157    37.2515   153.1440 </r>
       <r>    -3.0551    26.5714   154.7527 </r>
       <r>    -2.9946    23.4733   156.1743 </r>
       <r>    -2.9341    32.0115   158.1123 </r>
       <r>    -2.8735    30.5321   159.9610 </r>
       <r>    -2.8130    25.9595   161.5328 </r>
       <r>    -2.7524    30.7439   163.3944 </r>
       <r>    -2.6919    22.7711   164.7731 </r>
       <r>    -2.6314    20.7251   166.0279 </r>
       <r>    -2.5708    20.1984   167.2517 </r>
       <r>    -2.5103    29.6731   169.0481 </r>
       <r>    -2.4497    20.5481   170.2936 </r>
       <r>    -2.3892    18.1538   171.3926 </r>
       <r>    -2.3286    13.5746   172.2145 </r>
       <r>    -2.2681    19.8110   173.4142 </r>
       <r>    -2.2076    25.0869   174.9334 </r>
       <r>    -2.1470    14.4468   175.8082 </r>
       <r>    -2.0865    22.2475   177.1551 </r>
       <r>    -2.0259    23.9155   178.6030 </r>
       <r>    -1.9654    17.5911   179.6680 </r>
       <r>    -1.9049    20.2844   180.8961 </r>
       <r>    -1.8443    21.3690   182.1899 </r>
       <r>    -1.7838    12.1256   182.9242 </r>
       <r>    -1.7232    27.8997   184.6133 </r>
       <r>    -1.6627    28.1599   186.3184 </r>
       <r>    -1.6021    23.7106   187.7545 </r>
       <r>    -1.5416    19.4461   188.9319 </r>
       <r>    -1.4811    30.6238   190.7859 </r>
       <r>    -1.4205    23.1628   192.1882 </r>
       <r>    -1.3600    15.4842   193.1257 </r>
       <r>    -1.2994    13.4998   193.9430 </r>
       <r>    -1.2389    33.0711   195.9453 </r>
       <r>    -1.1784     9.5801   196.5257 </r>
       <r>    -1.1178    23.0535   197.9214 </r>
       <r>    -1.0573    16.9718   198.9489 </r>
       <r>    -0.9967    18.6915   200.0806 </r>
       <r>    -0.9362     5.9491   200.4410 </r>
       <r>    -0.8756    21.3606   201.7342 </r>
       <r>    -0.8151    17.4277   202.7898 </r>
       <r>    -0.7546    39.8370   205.2016 </r>
       <r>    -0.6940    32.3175   207.1583 </r>
       <r>    -0.6335    48.9913   210.1243 </r>
       <r>    -0.5729    54.9617   213.4519 </r>
       <r>    -0.5124    39.1295   215.8212 </r>
       <r>    -0.4519    34.9015   217.9346 </r>
       <r>    -0.3913    30.5619   219.7849 </r>
       <r>    -0.3308    48.8501   222.7424 </r>
       <r>    -0.2702    35.2103   224.8743 </r>
       <r>    -0.2097    39.3499   227.2567 </r>
       <r>    -0.1491    47.5175   230.1342 </r>
       <r>    -0.0886    40.0142   232.5569 </r>
       <r>    -0.0281    39.0665   234.9223 </r>
       <r>     0.0325    44.3849   237.6095 </r>
       <r>     0.0930    51.0312   240.6993 </r>
       <r>     0.1536    37.8443   242.9906 </r>
       <r>     0.2141    42.2867   245.5511 </r>
       <r>     0.2746    27.1173   247.1928 </r>
       <r>     0.3352    39.8654   249.6064 </r>
       <r>     0.3957    32.5724   251.5784 </r>
       <r>     0.4563    50.4474   254.6327 </r>
       <r>     0.5168    40.3961   257.0784 </r>
       <r>     0.5774    34.7209   259.1804 </r>
       <r>     0.6379    52.5138   262.3597 </r>
       <r>     0.6984    53.7495   265.6138 </r>
       <r>     0.7590    46.7460   268.4447 </r>
       <r>     0.8195    44.3197   271.1279 </r>
       <r>     0.8801    54.3142   274.4163 </r>
       <r>     0.9406    45.6410   277.1806 </r>
       <r>     1.0011    44.2831   279.8618 </r>
       <r>     1.0617    50.8576   282.9409 </r>
       <r>     1.1222    39.4334   285.3283 </r>
       <r>     1.1828    36.9531   287.5655 </r>
       <r>     1.2433    41.8444   290.0988 </r>
       <r>     1.3039    36.6694   292.3191 </r>
       <r>     1.3644    43.8631   294.9748 </r>
       <r>     1.4249    40.2057   297.4090 </r>
       <r>     1.4855    51.0207   300.4982 </r>
       <r>     1.5460    35.3590   302.6394 </r>
       <r>     1.6066    40.7485   305.1065 </r>
       <r>     1.6671    51.0156   308.1958 </r>
       <r>     1.7276    37.0339   310.4382 </r>
       <r>     1.7882    32.5890   312.4115 </r>
       <r>     1.8487    42.4183   314.9796 </r>
       <r>     1.9093    37.3944   317.2438 </r>
       <r>     1.9698    44.8528   319.9593 </r>
       <r>     2.0304    53.3044   323.1864 </r>
       <r>     2.0909    50.8680   326.2667 </r>
       <r>     2.1514    29.1680   328.0326 </r>
       <r>     2.2120    46.9916   330.8776 </r>
       <r>     2.2725    32.5820   332.8503 </r>
       <r>     2.3331    45.8915   335.6291 </r>
       <r>     2.3936    38.8967   337.9841 </r>
       <r>     2.4541    35.4035   340.1274 </r>
       <r>     2.5147    29.7420   341.9285 </r>
       <r>     2.5752    30.3607   343.7666 </r>
       <r>     2.6358    35.1335   345.8940 </r>
       <r>     2.6963    43.2807   348.5143 </r>
       <r>     2.7569    40.6696   350.9769 </r>
       <r>     2.8174    32.1665   352.9249 </r>
       <r>     2.8779    48.4554   355.8585 </r>
       <r>     2.9385    36.0885   358.0439 </r>
       <r>     2.9990    38.7940   360.3926 </r>
       <r>     3.0596    40.2892   362.8321 </r>
       <r>     3.1201    50.2957   365.8772 </r>
       <r>     3.1806    22.3472   367.2305 </r>
       <r>     3.2412    43.1699   369.8444 </r>
       <r>     3.3017    43.8372   372.4983 </r>
       <r>     3.3623    33.0590   374.5002 </r>
       <r>     3.4228    40.5501   376.9551 </r>
       <r>     3.4833    41.2565   379.4531 </r>
       <r>     3.5439    38.3868   381.7773 </r>
       <r>     3.6044    44.3243   384.4611 </r>
       <r>     3.6650    34.2184   386.5327 </r>
       <r>     3.7255    40.6909   388.9972 </r>
       <r>     3.7861    44.9999   391.7217 </r>
       <r>     3.8466    34.3290   393.8001 </r>
       <r>     3.9071    46.1038   396.5913 </r>
       <r>     3.9677    38.1287   398.8997 </r>
       <r>     4.0282    47.1207   401.7528 </r>
       <r>     4.0888    48.9255   404.7151 </r>
       <r>     4.1493    36.0418   406.8982 </r>
       <r>     4.2098    43.8435   409.5525 </r>
       <r>     4.2704    32.9125   411.5454 </r>
       <r>     4.3309    51.2782   414.6503 </r>
       <r>     4.3915    36.8504   416.8815 </r>
       <r>     4.4520    36.5770   419.0959 </r>
       <r>     4.5126    40.3356   421.5380 </r>
       <r>     4.5731    33.0977   423.5424 </r>
       <r>     4.6336    43.6367   426.1844 </r>
       <r>     4.6942    33.1835   428.1934 </r>
       <r>     4.7547    31.8168   430.1206 </r>
       <r>     4.8153    40.0156   432.5432 </r>
       <r>     4.8758    20.1475   433.7630 </r>
       <r>     4.9363    28.0781   435.4629 </r>
       <r>     4.9969    46.8568   438.2997 </r>
       <r>     5.0574    30.1432   440.1249 </r>
       <r>     5.1180    45.5880   442.8849 </r>
       <r>     5.1785    35.0784   445.0091 </r>
       <r>     5.2391    41.1088   447.4984 </r>
       <r>     5.2996    42.2498   450.0565 </r>
       <r>     5.3601    32.9097   452.0494 </r>
       <r>     5.4207    51.8975   455.1915 </r>
       <r>     5.4812    42.7220   457.7785 </r>
       <r>     5.5418    35.6645   459.9388 </r>
       <r>     5.6023    33.5097   461.9681 </r>
       <r>     5.6628    22.5104   463.3309 </r>
       <r>     5.7234    11.0512   464.0000 </r>
       <r>     5.7839     0.0000   464.0000 </r>
       <r>     5.8445     0.0000   464.0000 </r>
       <r>     5.9050     0.0000   464.0000 </r>
       <r>     5.9656     0.0000   464.0000 </r>
       <r>     6.0261     0.0000   464.0000 </r>
       <r>     6.0866     0.0000   464.0000 </r>
       <r>     6.1472     0.0000   464.0000 </r>
       <r>     6.2077     0.0000   464.0000 </r>
       <r>     6.2683     0.0000   464.0000 </r>
       <r>     6.3288     0.0000   464.0000 </r>
       <r>     6.3893     0.0000   464.0000 </r>
       <r>     6.4499     0.0000   464.0000 </r>
       <r>     6.5104     0.0000   464.0000 </r>
      </set>
     </set>
    </array>
   </total>
  </dos>
 </calculation>
 <structure name="finalpos" >
  <crystal>
   <varray name="basis" >
    <v>      12.65122604       0.00000000       0.00000000 </v>
    <v>       2.53024530      12.39562035       0.00000000 </v>
    <v>       0.00000000       0.00000000      13.93391037 </v>
   </varray>
   <i name="volume">   2185.11296711 </i>
   <varray name="rec_basis" >
    <v>       0.07904372      -0.01613473       0.00000000 </v>
    <v>       0.00000000       0.08067366       0.00000000 </v>
    <v>       0.00000000       0.00000000       0.07176736 </v>
   </varray>
  </crystal>
  <varray name="positions" >
   <v>       0.78425658       0.48979867       0.41441864 </v>
   <v>       0.99259037       0.94813251       0.00000002 </v>
   <v>       0.95092356       0.65646577       0.08288376 </v>
   <v>       0.90925682       0.36479890       0.16576751 </v>
   <v>       0.86759007       0.07313222       0.24865122 </v>
   <v>       0.82592332       0.78146553       0.33153489 </v>
   <v>       0.82710075       0.50251091       0.58288372 </v>
   <v>       0.49259037       0.44813251       0.00000003 </v>
   <v>       0.45092362       0.15646577       0.08288376 </v>
   <v>       0.40925688       0.86479896       0.16576751 </v>
   <v>       0.49376744       0.41917768       0.50000000 </v>
   <v>       0.32592338       0.28146553       0.33153492 </v>
   <v>       0.36876750       0.29417765       0.50000000 </v>
   <v>       0.36759040       0.82313263       0.00000001 </v>
   <v>       0.32592362       0.53146583       0.08288376 </v>
   <v>       0.28425688       0.23979901       0.16576754 </v>
   <v>       0.24259017       0.94813240       0.24865119 </v>
   <v>       0.91043395       0.33584419       0.66576755 </v>
   <v>       0.86876744       0.79417765       0.50000000 </v>
   <v>       0.86759049       0.32313258       0.00000001 </v>
   <v>       0.82592368       0.03146578       0.08288376 </v>
   <v>       0.78425688       0.73979890       0.16576751 </v>
   <v>       0.07710051       0.25251091       0.58288372 </v>
   <v>       0.70092338       0.15646553       0.33153489 </v>
   <v>       0.86876744       0.79417765       0.50000000 </v>
   <v>       0.24259035       0.69813263       0.00000000 </v>
   <v>       0.20092359       0.40646580       0.08288375 </v>
   <v>       0.15925685       0.11479896       0.16576751 </v>
   <v>       0.82710075       0.50251091       0.58288372 </v>
   <v>       0.07592334       0.53146553       0.33153489 </v>
   <v>       0.66043401       0.58584422       0.66576755 </v>
   <v>       0.74259043       0.19813251       0.00000002 </v>
   <v>       0.70092362       0.90646571       0.08288377 </v>
   <v>       0.65925688       0.61479890       0.16576751 </v>
   <v>       0.61759025       0.32313234       0.24865122 </v>
   <v>       0.57592344       0.03146547       0.33153489 </v>
   <v>       0.57710064       0.75251091       0.58288372 </v>
   <v>       0.11759036       0.07313251       0.00000002 </v>
   <v>       0.07592360       0.78146577       0.08288376 </v>
   <v>       0.03425685       0.48979896       0.16576751 </v>
   <v>       0.99259007       0.19813222       0.24865122 </v>
   <v>       0.28543401       0.71084422       0.66576755 </v>
   <v>       0.40925661       0.11479884       0.41441870 </v>
   <v>       0.61759049       0.57313258       0.00000001 </v>
   <v>       0.57592362       0.28146583       0.08288375 </v>
   <v>       0.53425694       0.98979902       0.16576754 </v>
   <v>       0.49259019       0.69813228       0.24865125 </v>
   <v>       0.11876750       0.54417765       0.50000000 </v>
   <v>       0.91043359       0.08584392       0.91441870 </v>
   <v>       0.15925664       0.36479878       0.41441870 </v>
   <v>       0.74259013       0.44813234       0.24865119 </v>
   <v>       0.78543389       0.21084416       0.66576755 </v>
   <v>       0.49376714       0.16917741       0.74865127 </v>
   <v>       0.20210051       0.12751067       0.83153498 </v>
   <v>       0.41043353       0.58584392       0.91441870 </v>
   <v>       0.65925658       0.86479867       0.41441864 </v>
   <v>       0.90925658       0.61479878       0.41441870 </v>
   <v>       0.95092338       0.90646553       0.33153492 </v>
   <v>       0.99376720       0.66917741       0.74865127 </v>
   <v>       0.70210040       0.62751067       0.83153498 </v>
   <v>       0.78543371       0.46084398       0.91441870 </v>
   <v>       0.24376750       0.66917771       0.50000000 </v>
   <v>       0.95210075       0.62751091       0.58288372 </v>
   <v>       0.53425670       0.73979867       0.41441870 </v>
   <v>       0.36876726       0.54417747       0.74865127 </v>
   <v>       0.07710051       0.50251073       0.83153498 </v>
   <v>       0.28543353       0.96084392       0.91441858 </v>
   <v>       0.20092338       0.65646565       0.33153492 </v>
   <v>       0.45210069       0.12751102       0.58288372 </v>
   <v>       0.16043401       0.08584416       0.66576755 </v>
   <v>       0.86876726       0.04417753       0.74865127 </v>
   <v>       0.57710046       0.00251067       0.83153498 </v>
   <v>       0.66043365       0.33584389       0.91441870 </v>
   <v>       0.45092344       0.40646553       0.33153495 </v>
   <v>       0.11759009       0.82313240       0.24865118 </v>
   <v>       0.53543395       0.46084416       0.66576755 </v>
   <v>       0.24376726       0.41917741       0.74865115 </v>
   <v>       0.95210046       0.37751067       0.83153486 </v>
   <v>       0.16043353       0.83584404       0.91441870 </v>
   <v>       0.61876744       0.04417777       0.50000000 </v>
   <v>       0.32710064       0.00251102       0.58288372 </v>
   <v>       0.03543389       0.96084416       0.66576755 </v>
   <v>       0.74376720       0.91917753       0.74865127 </v>
   <v>       0.45210040       0.87751079       0.83153498 </v>
   <v>       0.03543353       0.21084392       0.91441870 </v>
   <v>       0.36759013       0.57313228       0.24865122 </v>
   <v>       0.20210064       0.37751091       0.58288372 </v>
   <v>       0.20092338       0.65646565       0.33153492 </v>
   <v>       0.61876714       0.29417741       0.74865115 </v>
   <v>       0.32710051       0.25251067       0.83153498 </v>
   <v>       0.53543371       0.71084404       0.91441870 </v>
   <v>       0.15925664       0.36479878       0.41441870 </v>
   <v>       0.70210069       0.87751091       0.58288372 </v>
   <v>       0.41043401       0.83584428       0.66576755 </v>
   <v>       0.11876726       0.79417753       0.74865127 </v>
   <v>       0.82710046       0.75251079       0.83153498 </v>
  </varray>
 </structure>
</modeling>
