<?xml version="1.0" encoding="ISO-8859-1"?>
<modeling>
 <generator>
  <i name="program" type="string">vasp </i>
  <i name="version" type="string">6.4.3  </i>
  <i name="subversion" type="string">19Mar24 (build Oct 22 2024 11:23:12) complex                          parallel </i>
  <i name="platform" type="string">LinuxIFC </i>
  <i name="date" type="string">2025 04 30 </i>
  <i name="time" type="string">08:34:15 </i>
 </generator>
 <incar>
  <i type="string" name="SYSTEM">Si011 and Ge011 interface calculation</i>
  <i type="int" name="ISTART">     0</i>
  <i type="logical" name="ADDGRID"> T  </i>
  <i type="int" name="ISPIN">     2</i>
  <i name="AMIX">      0.60000000</i>
  <i type="int" name="ICHARG">     2</i>
  <i type="int" name="NELM">   100</i>
  <i name="EDIFF">      0.00000010</i>
  <i name="ENCUT">    700.00000000</i>
  <i name="ENAUG">    900.00000000</i>
  <i type="int" name="NBANDS">   346</i>
  <i name="NUPDOWN">      1.00000000</i>
  <i name="NELECT">    576.00000000</i>
  <i type="string" name="LREAL">AUTO</i>
  <i type="int" name="ISMEAR">     0</i>
  <i name="SIGMA">      0.01000000</i>
  <i type="int" name="LMAXMIX">     6</i>
  <i type="logical" name="LWAVE"> F  </i>
  <i type="logical" name="LVTOT"> F  </i>
  <i type="logical" name="LVHAR"> T  </i>
  <i type="logical" name="LASPH"> T  </i>
  <i type="logical" name="LMIXTAU"> T  </i>
 </incar>
 <primitive_cell>
  <structure name="primitive_cell" >
   <crystal>
    <varray name="basis" >
     <v>       9.49163842       0.00000000       0.00000000 </v>
     <v>       0.00000000      13.42320379       0.00000000 </v>
     <v>       0.00000000       0.00000000      24.09292386 </v>
    </varray>
    <i name="volume">   3069.63598605 </i>
    <varray name="rec_basis" >
     <v>       0.10535589       0.00000000       0.00000000 </v>
     <v>       0.00000000       0.07449786       0.00000000 </v>
     <v>       0.00000000       0.00000000       0.04150596 </v>
    </varray>
   </crystal>
   <varray name="positions" >
    <v>       0.00000000       0.00000000       0.00000000 </v>
    <v>       0.00000000       0.75000000       0.08041667 </v>
    <v>       0.00000000       0.50000000       0.16083333 </v>
    <v>       0.00000000       0.25000000       0.24124999 </v>
    <v>       0.00000000       0.00000000       0.32166666 </v>
    <v>       0.00000000       0.75000000       0.40208332 </v>
    <v>       0.33333333       0.33333333       0.00000000 </v>
    <v>       0.33333333       0.08333333       0.08041667 </v>
    <v>       0.33333333       0.83333333       0.16083333 </v>
    <v>       0.33333333       0.58333333       0.24124999 </v>
    <v>       0.33333333       0.33333333       0.32166666 </v>
    <v>       0.33333333       0.08333333       0.40208332 </v>
    <v>       0.12588652       0.06704261       0.90868688 </v>
    <v>       0.66666667       0.41666667       0.08041667 </v>
    <v>       0.66666667       0.16666667       0.16083333 </v>
    <v>       0.66666667       0.91666667       0.24124999 </v>
    <v>       0.66666667       0.66666667       0.32166666 </v>
    <v>       0.12588652       0.81704261       0.49339644 </v>
    <v>       0.37588652       0.06704261       0.90868688 </v>
    <v>       0.00000000       0.25000000       0.08041667 </v>
    <v>       0.00000000       0.00000000       0.16083333 </v>
    <v>       0.00000000       0.75000000       0.24124999 </v>
    <v>       0.00000000       0.50000000       0.32166666 </v>
    <v>       0.37588652       0.81704261       0.49339644 </v>
    <v>       0.79255319       0.15037594       0.82562879 </v>
    <v>       0.33333333       0.58333333       0.08041667 </v>
    <v>       0.33333333       0.33333333       0.16083333 </v>
    <v>       0.33333333       0.08333333       0.24124999 </v>
    <v>       0.33333333       0.83333333       0.32166666 </v>
    <v>       0.79255319       0.90037594       0.57645453 </v>
    <v>       0.79255319       0.40037594       0.90868688 </v>
    <v>       0.66666667       0.91666667       0.08041667 </v>
    <v>       0.66666667       0.66666667       0.16083333 </v>
    <v>       0.66666667       0.41666667       0.24124999 </v>
    <v>       0.66666667       0.16666667       0.32166666 </v>
    <v>       0.79255319       0.15037594       0.49339644 </v>
    <v>       0.08333333       0.33333333       0.00000000 </v>
    <v>       0.08333333       0.08333333       0.08041667 </v>
    <v>       0.08333333       0.83333333       0.16083333 </v>
    <v>       0.08333333       0.58333333       0.24124999 </v>
    <v>       0.08333333       0.33333333       0.32166666 </v>
    <v>       0.08333333       0.08333333       0.40208332 </v>
    <v>       0.41666667       0.66666667       0.00000000 </v>
    <v>       0.41666667       0.41666667       0.08041667 </v>
    <v>       0.41666667       0.16666667       0.16083333 </v>
    <v>       0.41666667       0.91666667       0.24124999 </v>
    <v>       0.04255319       0.15037594       0.49339644 </v>
    <v>       0.41666667       0.41666667       0.40208332 </v>
    <v>       0.75000000       0.00000000       0.00000000 </v>
    <v>       0.75000000       0.75000000       0.08041667 </v>
    <v>       0.75000000       0.50000000       0.16083333 </v>
    <v>       0.75000000       0.25000000       0.24124999 </v>
    <v>       0.75000000       0.00000000       0.32166666 </v>
    <v>       0.75000000       0.75000000       0.40208332 </v>
    <v>       0.08333333       0.83333333       0.00000000 </v>
    <v>       0.08333333       0.58333333       0.08041667 </v>
    <v>       0.12588652       0.56704261       0.90868688 </v>
    <v>       0.12588652       0.31704261       0.49339644 </v>
    <v>       0.08333333       0.83333333       0.32166666 </v>
    <v>       0.08333333       0.58333333       0.40208332 </v>
    <v>       0.41666667       0.16666667       0.00000000 </v>
    <v>       0.04255319       0.40037594       0.90868688 </v>
    <v>       0.41666667       0.66666667       0.16083333 </v>
    <v>       0.41666667       0.41666667       0.24124999 </v>
    <v>       0.41666667       0.16666667       0.32166666 </v>
    <v>       0.41666667       0.91666667       0.40208332 </v>
    <v>       0.75000000       0.50000000       0.00000000 </v>
    <v>       0.75000000       0.25000000       0.08041667 </v>
    <v>       0.75000000       0.00000000       0.16083333 </v>
    <v>       0.75000000       0.75000000       0.24124999 </v>
    <v>       0.75000000       0.50000000       0.32166666 </v>
    <v>       0.75000000       0.25000000       0.40208332 </v>
    <v>       0.41666667       0.66666667       0.32166666 </v>
    <v>       0.04255319       0.40037594       0.57645453 </v>
    <v>       0.04255319       0.65037594       0.65951262 </v>
    <v>       0.04255319       0.90037594       0.74257071 </v>
    <v>       0.04255319       0.15037594       0.82562879 </v>
    <v>       0.41666667       0.91666667       0.08041667 </v>
    <v>       0.00000000       0.25000000       0.40208332 </v>
    <v>       0.37588652       0.06704261       0.57645453 </v>
    <v>       0.37588652       0.31704261       0.65951262 </v>
    <v>       0.37588652       0.56704261       0.74257071 </v>
    <v>       0.37588652       0.81704261       0.82562879 </v>
    <v>       0.00000000       0.50000000       0.00000000 </v>
    <v>       0.70921986       0.48370927       0.49339644 </v>
    <v>       0.70921986       0.73370927       0.57645453 </v>
    <v>       0.70921986       0.98370927       0.65951262 </v>
    <v>       0.70921986       0.23370927       0.74257071 </v>
    <v>       0.70921986       0.48370927       0.82562879 </v>
    <v>       0.70921986       0.73370927       0.90868688 </v>
    <v>       0.04255319       0.65037594       0.49339644 </v>
    <v>       0.04255319       0.90037594       0.57645453 </v>
    <v>       0.04255319       0.15037594       0.65951262 </v>
    <v>       0.04255319       0.40037594       0.74257071 </v>
    <v>       0.04255319       0.65037594       0.82562879 </v>
    <v>       0.04255319       0.90037594       0.90868688 </v>
    <v>       0.37588652       0.31704261       0.49339644 </v>
    <v>       0.37588652       0.56704261       0.57645453 </v>
    <v>       0.37588652       0.81704261       0.65951262 </v>
    <v>       0.37588652       0.06704261       0.74257071 </v>
    <v>       0.37588652       0.31704261       0.82562879 </v>
    <v>       0.37588652       0.56704261       0.90868688 </v>
    <v>       0.70921986       0.98370927       0.49339644 </v>
    <v>       0.70921986       0.23370927       0.57645453 </v>
    <v>       0.70921986       0.48370927       0.65951262 </v>
    <v>       0.70921986       0.73370927       0.74257071 </v>
    <v>       0.70921986       0.98370927       0.82562879 </v>
    <v>       0.70921986       0.23370927       0.90868688 </v>
    <v>       0.66666667       0.41666667       0.40208332 </v>
    <v>       0.12588652       0.06704261       0.57645453 </v>
    <v>       0.12588652       0.31704261       0.65951262 </v>
    <v>       0.12588652       0.56704261       0.74257071 </v>
    <v>       0.12588652       0.81704261       0.82562879 </v>
    <v>       0.66666667       0.66666667       0.00000000 </v>
    <v>       0.45921986       0.48370927       0.49339644 </v>
    <v>       0.45921986       0.73370927       0.57645453 </v>
    <v>       0.45921986       0.98370927       0.65951262 </v>
    <v>       0.45921986       0.23370927       0.74257071 </v>
    <v>       0.45921986       0.48370927       0.82562879 </v>
    <v>       0.45921986       0.73370927       0.90868688 </v>
    <v>       0.66666667       0.91666667       0.40208332 </v>
    <v>       0.79255319       0.40037594       0.57645453 </v>
    <v>       0.79255319       0.65037594       0.65951262 </v>
    <v>       0.79255319       0.90037594       0.74257071 </v>
    <v>       0.33333333       0.83333333       0.00000000 </v>
    <v>       0.66666667       0.16666667       0.00000000 </v>
    <v>       0.08333333       0.08333333       0.24124999 </v>
    <v>       0.12588652       0.56704261       0.57645453 </v>
    <v>       0.12588652       0.81704261       0.65951262 </v>
    <v>       0.12588652       0.06704261       0.74257071 </v>
    <v>       0.12588652       0.31704261       0.82562879 </v>
    <v>       0.08333333       0.33333333       0.16083333 </v>
    <v>       0.45921986       0.98370927       0.49339644 </v>
    <v>       0.45921986       0.23370927       0.57645453 </v>
    <v>       0.45921986       0.48370927       0.65951262 </v>
    <v>       0.45921986       0.73370927       0.74257071 </v>
    <v>       0.45921986       0.98370927       0.82562879 </v>
    <v>       0.45921986       0.23370927       0.90868688 </v>
    <v>       0.79255319       0.65037594       0.49339644 </v>
    <v>       0.33333333       0.58333333       0.40208332 </v>
    <v>       0.79255319       0.15037594       0.65951262 </v>
    <v>       0.79255319       0.40037594       0.74257071 </v>
    <v>       0.79255319       0.65037594       0.82562879 </v>
    <v>       0.79255319       0.90037594       0.90868688 </v>
   </varray>
  </structure>
  <varray name="primitive_index" >
   <v type="int" >        1 </v>
   <v type="int" >        2 </v>
   <v type="int" >        3 </v>
   <v type="int" >        4 </v>
   <v type="int" >        5 </v>
   <v type="int" >        6 </v>
   <v type="int" >        7 </v>
   <v type="int" >        8 </v>
   <v type="int" >        9 </v>
   <v type="int" >       10 </v>
   <v type="int" >       11 </v>
   <v type="int" >       12 </v>
   <v type="int" >       13 </v>
   <v type="int" >       14 </v>
   <v type="int" >       15 </v>
   <v type="int" >       16 </v>
   <v type="int" >       17 </v>
   <v type="int" >       18 </v>
   <v type="int" >       19 </v>
   <v type="int" >       20 </v>
   <v type="int" >       21 </v>
   <v type="int" >       22 </v>
   <v type="int" >       23 </v>
   <v type="int" >       24 </v>
   <v type="int" >       25 </v>
   <v type="int" >       26 </v>
   <v type="int" >       27 </v>
   <v type="int" >       28 </v>
   <v type="int" >       29 </v>
   <v type="int" >       30 </v>
   <v type="int" >       31 </v>
   <v type="int" >       32 </v>
   <v type="int" >       33 </v>
   <v type="int" >       34 </v>
   <v type="int" >       35 </v>
   <v type="int" >       36 </v>
   <v type="int" >       37 </v>
   <v type="int" >       38 </v>
   <v type="int" >       39 </v>
   <v type="int" >       40 </v>
   <v type="int" >       41 </v>
   <v type="int" >       42 </v>
   <v type="int" >       43 </v>
   <v type="int" >       44 </v>
   <v type="int" >       45 </v>
   <v type="int" >       46 </v>
   <v type="int" >       47 </v>
   <v type="int" >       48 </v>
   <v type="int" >       49 </v>
   <v type="int" >       50 </v>
   <v type="int" >       51 </v>
   <v type="int" >       52 </v>
   <v type="int" >       53 </v>
   <v type="int" >       54 </v>
   <v type="int" >       55 </v>
   <v type="int" >       56 </v>
   <v type="int" >       57 </v>
   <v type="int" >       58 </v>
   <v type="int" >       59 </v>
   <v type="int" >       60 </v>
   <v type="int" >       61 </v>
   <v type="int" >       62 </v>
   <v type="int" >       63 </v>
   <v type="int" >       64 </v>
   <v type="int" >       65 </v>
   <v type="int" >       66 </v>
   <v type="int" >       67 </v>
   <v type="int" >       68 </v>
   <v type="int" >       69 </v>
   <v type="int" >       70 </v>
   <v type="int" >       71 </v>
   <v type="int" >       72 </v>
   <v type="int" >       73 </v>
   <v type="int" >       74 </v>
   <v type="int" >       75 </v>
   <v type="int" >       76 </v>
   <v type="int" >       77 </v>
   <v type="int" >       78 </v>
   <v type="int" >       79 </v>
   <v type="int" >       80 </v>
   <v type="int" >       81 </v>
   <v type="int" >       82 </v>
   <v type="int" >       83 </v>
   <v type="int" >       84 </v>
   <v type="int" >       85 </v>
   <v type="int" >       86 </v>
   <v type="int" >       87 </v>
   <v type="int" >       88 </v>
   <v type="int" >       89 </v>
   <v type="int" >       90 </v>
   <v type="int" >       91 </v>
   <v type="int" >       92 </v>
   <v type="int" >       93 </v>
   <v type="int" >       94 </v>
   <v type="int" >       95 </v>
   <v type="int" >       96 </v>
   <v type="int" >       97 </v>
   <v type="int" >       98 </v>
   <v type="int" >       99 </v>
   <v type="int" >      100 </v>
   <v type="int" >      101 </v>
   <v type="int" >      102 </v>
   <v type="int" >      103 </v>
   <v type="int" >      104 </v>
   <v type="int" >      105 </v>
   <v type="int" >      106 </v>
   <v type="int" >      107 </v>
   <v type="int" >      108 </v>
   <v type="int" >      109 </v>
   <v type="int" >      110 </v>
   <v type="int" >      111 </v>
   <v type="int" >      112 </v>
   <v type="int" >      113 </v>
   <v type="int" >      114 </v>
   <v type="int" >      115 </v>
   <v type="int" >      116 </v>
   <v type="int" >      117 </v>
   <v type="int" >      118 </v>
   <v type="int" >      119 </v>
   <v type="int" >      120 </v>
   <v type="int" >      121 </v>
   <v type="int" >      122 </v>
   <v type="int" >      123 </v>
   <v type="int" >      124 </v>
   <v type="int" >      125 </v>
   <v type="int" >      126 </v>
   <v type="int" >      127 </v>
   <v type="int" >      128 </v>
   <v type="int" >      129 </v>
   <v type="int" >      130 </v>
   <v type="int" >      131 </v>
   <v type="int" >      132 </v>
   <v type="int" >      133 </v>
   <v type="int" >      134 </v>
   <v type="int" >      135 </v>
   <v type="int" >      136 </v>
   <v type="int" >      137 </v>
   <v type="int" >      138 </v>
   <v type="int" >      139 </v>
   <v type="int" >      140 </v>
   <v type="int" >      141 </v>
   <v type="int" >      142 </v>
   <v type="int" >      143 </v>
   <v type="int" >      144 </v>
  </varray>
 </primitive_cell>
 <kpoints>
  <generation param="Gamma">
   <v type="int" name="divisions">       3        2        1 </v>
   <v name="usershift">      0.00000000       0.00000000       0.00000000 </v>
   <v name="genvec1">      0.33333333       0.00000000       0.00000000 </v>
   <v name="genvec2">      0.00000000       0.50000000       0.00000000 </v>
   <v name="genvec3">      0.00000000       0.00000000       1.00000000 </v>
   <v name="shift">      0.00000000       0.00000000       0.00000000 </v>
  </generation>
  <varray name="kpointlist" >
   <v>       0.00000000       0.00000000       0.00000000 </v>
   <v>       0.33333333       0.00000000       0.00000000 </v>
   <v>       0.00000000       0.50000000       0.00000000 </v>
   <v>       0.33333333       0.50000000       0.00000000 </v>
  </varray>
  <varray name="weights" >
   <v>       0.16666667 </v>
   <v>       0.33333333 </v>
   <v>       0.16666667 </v>
   <v>       0.33333333 </v>
  </varray>
 </kpoints>
 <parameters>
  <separator name="general" >
   <i type="string" name="SYSTEM">Si011 and Ge011 interface calculation</i>
   <i type="logical" name="LCOMPAT"> F  </i>
  </separator>
  <separator name="electronic" >
   <i type="string" name="PREC">normal</i>
   <i name="ENMAX">    700.00000000</i>
   <i name="ENAUG">    900.00000000</i>
   <i name="EDIFF">      0.00000010</i>
   <i type="int" name="IALGO">    38</i>
   <i type="int" name="IWAVPR">    10</i>
   <i type="int" name="NBANDS">   346</i>
   <i type="int" name="NBANDSLOW">    -1</i>
   <i type="int" name="NBANDSHIGH">    -1</i>
   <i name="NELECT">    576.00000000</i>
   <i type="int" name="TURBO">     0</i>
   <i type="int" name="IRESTART">     0</i>
   <i type="int" name="NREBOOT">     0</i>
   <i type="int" name="NMIN">     0</i>
   <i name="EREF">      0.00000000</i>
   <separator name="electronic smearing" >
    <i type="int" name="ISMEAR">     0</i>
    <i name="SIGMA">      0.01000000</i>
    <i name="KSPACING">      0.50000000</i>
    <i type="logical" name="KGAMMA"> T  </i>
    <i type="logical" name="KBLOWUP"> T  </i>
   </separator>
   <separator name="electronic projectors" >
    <i type="logical" name="LREAL"> T  </i>
    <v name="ROPT">     -0.00050000     -0.00050000</v>
    <i type="int" name="LMAXPAW">  -100</i>
    <i type="int" name="LMAXMIX">     6</i>
    <i type="logical" name="NLSPLINE"> F  </i>
   </separator>
   <separator name="electronic startup" >
    <i type="int" name="ISTART">     0</i>
    <i type="int" name="ICHARG">     2</i>
    <i type="int" name="INIWAV">     1</i>
   </separator>
   <separator name="electronic spin" >
    <i type="int" name="ISPIN">     2</i>
    <i type="logical" name="LNONCOLLINEAR"> F  </i>
    <v name="MAGMOM">      0.00694444      0.00694444      0.00694444      0.00694444      0.00694444      0.00694444      0.00694444      0.00694444      0.00694444      0.00694444      0.00694444      0.00694444      0.00694444      0.00694444      0.00694444      0.00694444      0.00694444      0.00694444      0.00694444      0.00694444
      0.00694444      0.00694444      0.00694444      0.00694444      0.00694444      0.00694444      0.00694444      0.00694444      0.00694444      0.00694444      0.00694444      0.00694444      0.00694444      0.00694444      0.00694444      0.00694444      0.00694444      0.00694444      0.00694444      0.00694444
      0.00694444      0.00694444      0.00694444      0.00694444      0.00694444      0.00694444      0.00694444      0.00694444      0.00694444      0.00694444      0.00694444      0.00694444      0.00694444      0.00694444      0.00694444      0.00694444      0.00694444      0.00694444      0.00694444      0.00694444
      0.00694444      0.00694444      0.00694444      0.00694444      0.00694444      0.00694444      0.00694444      0.00694444      0.00694444      0.00694444      0.00694444      0.00694444      0.00694444      0.00694444      0.00694444      0.00694444      0.00694444      0.00694444      0.00694444      0.00694444
      0.00694444      0.00694444      0.00694444      0.00694444      0.00694444      0.00694444      0.00694444      0.00694444      0.00694444      0.00694444      0.00694444      0.00694444      0.00694444      0.00694444      0.00694444      0.00694444      0.00694444      0.00694444      0.00694444      0.00694444
      0.00694444      0.00694444      0.00694444      0.00694444      0.00694444      0.00694444      0.00694444      0.00694444      0.00694444      0.00694444      0.00694444      0.00694444      0.00694444      0.00694444      0.00694444      0.00694444      0.00694444      0.00694444      0.00694444      0.00694444
      0.00694444      0.00694444      0.00694444      0.00694444      0.00694444      0.00694444      0.00694444      0.00694444      0.00694444      0.00694444      0.00694444      0.00694444      0.00694444      0.00694444      0.00694444      0.00694444      0.00694444      0.00694444      0.00694444      0.00694444
      0.00694444      0.00694444      0.00694444      0.00694444</v>
    <i name="NUPDOWN">      1.00000000</i>
    <i type="logical" name="LSORBIT"> F  </i>
    <v name="SAXIS">      0.00000000      0.00000000      1.00000000</v>
    <i type="logical" name="LSPIRAL"> F  </i>
    <v name="QSPIRAL">      0.00000000      0.00000000      0.00000000</v>
    <i type="logical" name="LZEROZ"> F  </i>
   </separator>
   <separator name="electronic exchange-correlation" >
    <i type="logical" name="LASPH"> T  </i>
   </separator>
   <separator name="electronic convergence" >
    <i type="int" name="NELM">   100</i>
    <i type="int" name="NELMDL">    -5</i>
    <i type="int" name="NELMIN">     2</i>
    <i name="ENINI">    700.00000000</i>
    <separator name="electronic convergence detail" >
     <i type="logical" name="LDIAG"> T  </i>
     <i type="logical" name="LSUBROT"> F  </i>
     <i name="WEIMIN">      0.00000000</i>
     <i name="EBREAK">      0.00000000</i>
     <i name="DEPER">      0.30000000</i>
     <i type="int" name="NRMM">     4</i>
     <i name="TIME">      0.40000000</i>
    </separator>
   </separator>
   <separator name="electronic mixer" >
    <i name="AMIX">      0.60000000</i>
    <i name="BMIX">      1.00000000</i>
    <i name="AMIN">      0.10000000</i>
    <i name="AMIX_MAG">      2.40000000</i>
    <i name="BMIX_MAG">      1.00000000</i>
    <separator name="electronic mixer details" >
     <i type="int" name="IMIX">     4</i>
     <i type="logical" name="MIXFIRST"> F  </i>
     <i type="int" name="MAXMIX">   -45</i>
     <i name="WC">    100.00000000</i>
     <i type="int" name="INIMIX">     1</i>
     <i type="int" name="MIXPRE">     1</i>
     <i type="int" name="MREMOVE">     5</i>
    </separator>
   </separator>
   <separator name="electronic dipolcorrection" >
    <i type="logical" name="LDIPOL"> F  </i>
    <i type="logical" name="LMONO"> F  </i>
    <i type="int" name="IDIPOL">     0</i>
    <i name="EPSILON">      1.00000000</i>
    <v name="DIPOL">   -100.00000000   -100.00000000   -100.00000000</v>
    <i name="EFIELD">      0.00000000</i>
    <i type="logical" name="LVACPOTAV"> F  </i>
   </separator>
  </separator>
  <separator name="grids" >
   <i type="int" name="NGX">    64</i>
   <i type="int" name="NGY">    90</i>
   <i type="int" name="NGZ">   160</i>
   <i type="int" name="NGXF">   128</i>
   <i type="int" name="NGYF">   180</i>
   <i type="int" name="NGZF">   320</i>
   <i type="logical" name="ADDGRID"> T  </i>
  </separator>
  <separator name="ionic" >
   <i type="int" name="NSW">     0</i>
   <i type="int" name="IBRION">    -1</i>
   <i type="int" name="MDALGO">     0</i>
   <i type="int" name="ISIF">     2</i>
   <i name="PSTRESS">      0.00000000</i>
   <i name="EDIFFG">      0.00000100</i>
   <i type="int" name="NFREE">     0</i>
   <i name="POTIM">      0.50000000</i>
   <i name="SMASS">     -3.00000000</i>
   <i name="SCALEE">      1.00000000</i>
  </separator>
  <separator name="ionic md" >
   <i name="TEBEG">      0.00010000</i>
   <i name="TEEND">      0.00010000</i>
   <i type="int" name="NBLOCK">     1</i>
   <i type="int" name="KBLOCK">     1</i>
   <i type="int" name="NPACO">   256</i>
   <i name="APACO">     10.00000000</i>
  </separator>
  <separator name="symmetry" >
   <i type="int" name="ISYM">     2</i>
   <i name="SYMPREC">      0.00001000</i>
  </separator>
  <separator name="dos" >
   <i type="int" name="LORBIT">     0</i>
   <v name="RWIGS">     -1.00000000     -1.00000000</v>
   <i type="int" name="NEDOS">   301</i>
   <i name="EMIN">     10.00000000</i>
   <i name="EMAX">    -10.00000000</i>
   <i name="EFERMI">      0.00000000</i>
  </separator>
  <separator name="writing" >
   <i type="int" name="NWRITE">     2</i>
   <i type="logical" name="LWAVE"> F  </i>
   <i type="logical" name="LDOWNSAMPLE"> F  </i>
   <i type="logical" name="LCHARG"> T  </i>
   <i type="logical" name="LPARD"> F  </i>
   <i type="logical" name="LVTOT"> F  </i>
   <i type="logical" name="LVHAR"> T  </i>
   <i type="logical" name="LELF"> F  </i>
   <i type="logical" name="LOPTICS"> F  </i>
   <v name="STM">      0.00000000      0.00000000      0.00000000      0.00000000      0.00000000      0.00000000      0.00000000</v>
  </separator>
  <separator name="performance" >
   <i type="int" name="NPAR">     1</i>
   <i type="int" name="NSIM">     4</i>
   <i type="int" name="NBLK">    -1</i>
   <i type="logical" name="LPLANE"> T  </i>
   <i type="logical" name="LSCALAPACK"> T  </i>
   <i type="logical" name="LSCAAWARE"> F  </i>
   <i type="logical" name="LSCALU"> F  </i>
   <i type="logical" name="LASYNC"> F  </i>
   <i type="logical" name="LORBITALREAL"> F  </i>
  </separator>
  <separator name="miscellaneous" >
   <i type="int" name="IDIOT">     3</i>
   <i type="int" name="PHON_NSTRUCT">    -1</i>
   <i type="logical" name="LMUSIC"> F  </i>
   <v name="POMASS">     28.08500000     72.61000000</v>
   <v name="DARWINR">      0.00000000      0.00000000</v>
   <v name="DARWINV">      1.00000000      1.00000000</v>
   <i type="logical" name="LCORR"> T  </i>
  </separator>
  <i type="logical" name="GGA_COMPAT"> T  </i>
  <i type="logical" name="LBERRY"> F  </i>
  <i type="int" name="ICORELEVEL">     0</i>
  <i type="logical" name="LDAU"> F  </i>
  <i type="int" name="I_CONSTRAINED_M">     0</i>
  <separator name="electronic exchange-correlation" >
   <i type="string" name="GGA    ">PE</i>
   <i type="string" name="XC_C">1</i>
   <i type="int" name="VOSKOWN">     0</i>
   <i type="logical" name="LHFCALC"> F  </i>
   <i type="string" name="PRECFOCK"></i>
   <i type="logical" name="LSYMGRAD"> F  </i>
   <i type="logical" name="LHFONE"> F  </i>
   <i type="logical" name="LRHFCALC"> F  </i>
   <i type="logical" name="LTHOMAS"> F  </i>
   <i type="logical" name="LMODELHF"> F  </i>
   <i type="logical" name="LFOCKACE"> F  </i>
   <i name="ENCUT4O">     -1.00000000</i>
   <i type="int" name="EXXOEP">     0</i>
   <i type="int" name="FOURORBIT">     0</i>
   <i name="AEXX">      0.00000000</i>
   <i name="HFALPHA">      0.00000000</i>
   <i name="MCALPHA">      0.00000000</i>
   <i name="ALDAX">      1.00000000</i>
   <i name="AGGAX">      1.00000000</i>
   <i name="AMGGAX">      1.00000000</i>
   <i name="ALDAC">      1.00000000</i>
   <i name="AGGAC">      1.00000000</i>
   <i name="AMGGAC">      1.00000000</i>
   <i type="int" name="NKREDX">     1</i>
   <i type="int" name="NKREDY">     1</i>
   <i type="int" name="NKREDZ">     1</i>
   <i type="logical" name="SHIFTRED"> F  </i>
   <i type="logical" name="ODDONLY"> F  </i>
   <i type="logical" name="EVENONLY"> F  </i>
   <i type="int" name="LMAXFOCK">     0</i>
   <i type="int" name="NMAXFOCKAE">     0</i>
   <i type="logical" name="LFOCKAEDFT"> F  </i>
   <i name="HFSCREEN">      0.00000000</i>
   <i name="HFSCREENC">      0.00000000</i>
   <i type="int" name="NBANDSGWLOW">     0</i>
  </separator>
  <separator name="vdW DFT" >
   <i type="logical" name="LUSE_VDW"> F  </i>
   <i type="int" name="IVDW_NL">    -1</i>
   <i type="logical" name="LSPIN_VDW"> F  </i>
   <i name="ZAB_VDW">     -0.84910000</i>
   <i name="GAMMA_VDW">      1.39626340</i>
   <i name="ALPHA_VDW">      0.00000000</i>
   <i name="PARAM1">      0.12340000</i>
   <i name="PARAM2">      1.00000000</i>
   <i name="BPARAM">      6.30000000</i>
   <i name="CPARAM">      0.00930000</i>
  </separator>
  <separator name="model GW" >
   <i type="int" name="MODEL_GW">     0</i>
   <i name="MODEL_EPS0">     12.79014994</i>
   <i name="MODEL_ALPHA">      1.00000000</i>
  </separator>
  <separator name="linear response parameters" >
   <i type="logical" name="LEPSILON"> F  </i>
   <i type="logical" name="LRPA"> F  </i>
   <i type="logical" name="LNABLA"> F  </i>
   <i type="logical" name="LVEL"> F  </i>
   <i name="CSHIFT">      0.10000000</i>
   <i name="OMEGAMAX">     -1.00000000</i>
   <i name="DEG_THRESHOLD">      0.00200000</i>
   <i name="RTIME">     -0.10000000</i>
   <i name="WPLASMAI">      0.00000000</i>
   <v name="DFIELD">      0.00000000      0.00000000      0.00000000</v>
   <v name="WPLASMA">      0.00000000      0.00000000      0.00000000      0.00000000      0.00000000      0.00000000      0.00000000      0.00000000      0.00000000</v>
  </separator>
  <separator name="orbital magnetization" >
   <i type="logical" name="NUCIND"> F  </i>
   <v name="MAGPOS">      0.00000000      0.00000000      0.00000000</v>
   <i type="logical" name="LNICSALL"> T  </i>
   <i type="logical" name="ORBITALMAG"> F  </i>
   <i type="logical" name="LMAGBLOCH"> F  </i>
   <i type="logical" name="LCHIMAG"> F  </i>
   <i type="logical" name="LGAUGE"> T  </i>
   <i type="int" name="MAGATOM">     0</i>
   <v name="MAGDIPOL">      0.00000000      0.00000000      0.00000000</v>
   <v name="AVECCONST">      0.00000000      0.00000000      0.00000000</v>
  </separator>
  <separator name="response functions" >
   <i type="logical" name="LALL_IN_ONE"> F  </i>
   <i type="int" name="IALL_IN_ONE">    -1</i>
   <i type="int" name="NBANDS_WAVE">    -1</i>
   <i type="logical" name="LFINITE_TEMPERATURE"> F  </i>
   <i type="logical" name="LADDER"> F  </i>
   <i type="logical" name="LRPAFORCE"> F  </i>
   <i type="logical" name="LFXC"> F  </i>
   <i type="logical" name="LHARTREE"> T  </i>
   <i type="int" name="IBSE">     0</i>
   <v type="int" name="KPOINT">    -1     0     0     0</v>
   <i type="logical" name="LTCTC"> F  </i>
   <i type="logical" name="LTCTE"> F  </i>
   <i type="logical" name="LTETE"> F  </i>
   <i type="logical" name="LTRIPLET"> F  </i>
   <i type="logical" name="LFXCEPS"> F  </i>
   <i type="logical" name="LFXHEG"> F  </i>
   <i type="int" name="NATURALO">     2</i>
   <i type="logical" name="LHOLEGF"> F  </i>
   <i type="logical" name="L2ORDER"> F  </i>
   <i type="logical" name="LDMP1"> F  </i>
   <i type="logical" name="LMP2LT"> F  </i>
   <i type="logical" name="LSMP2LT"> F  </i>
   <i type="logical" name="LGWLF"> F  </i>
   <i name="ENCUTGW">     -1.60000002</i>
   <i name="ENCUTGWSOFT">     -1.60000002</i>
   <i name="ENCUTLF">     -1.00000000</i>
   <i type="logical" name="ESF_SPLINES"> F  </i>
   <i name="ESF_CONV">      0.01000000</i>
   <i type="int" name="ESF_NINTER">    15</i>
   <i type="int" name="LMAXMP2">    -1</i>
   <i name="SCISSOR">      0.00000000</i>
   <i type="int" name="NOMEGA">     0</i>
   <i type="int" name="NOMEGAR">     0</i>
   <i type="int" name="NBANDSGW">    -1</i>
   <i type="int" name="NBANDSO">    -1</i>
   <i type="int" name="NBANDSV">    -1</i>
   <i type="int" name="NELMGW">     1</i>
   <i type="int" name="NELMHF">     1</i>
   <i type="int" name="DIM">     3</i>
   <i type="int" name="IESPILON">     4</i>
   <i type="int" name="ANTIRES">     0</i>
   <i name="OMEGAMAX">    -30.00000000</i>
   <i name="OMEGAMIN">    -30.00000000</i>
   <i name="OMEGATL">   -200.00000000</i>
   <i type="int" name="OMEGAGRID">     0</i>
   <i name="CSHIFT">     -0.10000000</i>
   <i type="logical" name="LSELFENERGY"> F  </i>
   <i type="logical" name="LSPECTRAL"> F  </i>
   <i type="logical" name="LSPECTRALGW"> F  </i>
   <i type="logical" name="LSINGLES"> F  </i>
   <i type="logical" name="LFERMIGW"> F  </i>
   <i type="logical" name="ODDONLYGW"> F  </i>
   <i type="logical" name="EVENONLYGW"> F  </i>
   <i type="int" name="NKREDLFX">     1</i>
   <i type="int" name="NKREDLFY">     1</i>
   <i type="int" name="NKREDLFZ">     1</i>
   <i type="int" name="MAXMEM">  2800</i>
   <i type="int" name="TELESCOPE">     0</i>
   <i type="int" name="NTAUPAR">    -1</i>
   <i type="int" name="NOMEGAPAR">    -1</i>
   <i name="DAMP_NEWTON">      0.80000001</i>
   <i name="LAMBDA">      1.00000000</i>
  </separator>
  <separator name="External order field" >
   <i name="OFIELD_KAPPA">      0.00000000</i>
   <v name="OFIELD_K">      0.00000000      0.00000000      0.00000000</v>
   <i name="OFIELD_Q6_NEAR">      0.00000000</i>
   <i name="OFIELD_Q6_FAR">      0.00000000</i>
   <i name="OFIELD_A">      0.00000000</i>
  </separator>
  <separator name="optional k-points parameters" >
   <i type="int" name="KPOINTS_OPT_MODE">     1</i>
   <i type="logical" name="LKPOINTS_OPT"> F  </i>
  </separator>
 </parameters>
 <atominfo>
  <atoms>     144 </atoms>
  <types>       2 </types>
  <array name="atoms" >
   <dimension dim="1">ion</dimension>
   <field type="string">element</field>
   <field type="int">atomtype</field>
   <set>
    <rc><c>Si</c><c>   1</c></rc>
    <rc><c>Si</c><c>   1</c></rc>
    <rc><c>Si</c><c>   1</c></rc>
    <rc><c>Si</c><c>   1</c></rc>
    <rc><c>Si</c><c>   1</c></rc>
    <rc><c>Si</c><c>   1</c></rc>
    <rc><c>Si</c><c>   1</c></rc>
    <rc><c>Si</c><c>   1</c></rc>
    <rc><c>Si</c><c>   1</c></rc>
    <rc><c>Si</c><c>   1</c></rc>
    <rc><c>Si</c><c>   1</c></rc>
    <rc><c>Si</c><c>   1</c></rc>
    <rc><c>Si</c><c>   1</c></rc>
    <rc><c>Si</c><c>   1</c></rc>
    <rc><c>Si</c><c>   1</c></rc>
    <rc><c>Si</c><c>   1</c></rc>
    <rc><c>Si</c><c>   1</c></rc>
    <rc><c>Si</c><c>   1</c></rc>
    <rc><c>Si</c><c>   1</c></rc>
    <rc><c>Si</c><c>   1</c></rc>
    <rc><c>Si</c><c>   1</c></rc>
    <rc><c>Si</c><c>   1</c></rc>
    <rc><c>Si</c><c>   1</c></rc>
    <rc><c>Si</c><c>   1</c></rc>
    <rc><c>Si</c><c>   1</c></rc>
    <rc><c>Si</c><c>   1</c></rc>
    <rc><c>Si</c><c>   1</c></rc>
    <rc><c>Si</c><c>   1</c></rc>
    <rc><c>Si</c><c>   1</c></rc>
    <rc><c>Si</c><c>   1</c></rc>
    <rc><c>Si</c><c>   1</c></rc>
    <rc><c>Si</c><c>   1</c></rc>
    <rc><c>Si</c><c>   1</c></rc>
    <rc><c>Si</c><c>   1</c></rc>
    <rc><c>Si</c><c>   1</c></rc>
    <rc><c>Si</c><c>   1</c></rc>
    <rc><c>Si</c><c>   1</c></rc>
    <rc><c>Si</c><c>   1</c></rc>
    <rc><c>Si</c><c>   1</c></rc>
    <rc><c>Si</c><c>   1</c></rc>
    <rc><c>Si</c><c>   1</c></rc>
    <rc><c>Si</c><c>   1</c></rc>
    <rc><c>Si</c><c>   1</c></rc>
    <rc><c>Si</c><c>   1</c></rc>
    <rc><c>Si</c><c>   1</c></rc>
    <rc><c>Si</c><c>   1</c></rc>
    <rc><c>Si</c><c>   1</c></rc>
    <rc><c>Si</c><c>   1</c></rc>
    <rc><c>Si</c><c>   1</c></rc>
    <rc><c>Si</c><c>   1</c></rc>
    <rc><c>Si</c><c>   1</c></rc>
    <rc><c>Si</c><c>   1</c></rc>
    <rc><c>Si</c><c>   1</c></rc>
    <rc><c>Si</c><c>   1</c></rc>
    <rc><c>Si</c><c>   1</c></rc>
    <rc><c>Si</c><c>   1</c></rc>
    <rc><c>Si</c><c>   1</c></rc>
    <rc><c>Si</c><c>   1</c></rc>
    <rc><c>Si</c><c>   1</c></rc>
    <rc><c>Si</c><c>   1</c></rc>
    <rc><c>Si</c><c>   1</c></rc>
    <rc><c>Si</c><c>   1</c></rc>
    <rc><c>Si</c><c>   1</c></rc>
    <rc><c>Si</c><c>   1</c></rc>
    <rc><c>Si</c><c>   1</c></rc>
    <rc><c>Si</c><c>   1</c></rc>
    <rc><c>Si</c><c>   1</c></rc>
    <rc><c>Si</c><c>   1</c></rc>
    <rc><c>Si</c><c>   1</c></rc>
    <rc><c>Si</c><c>   1</c></rc>
    <rc><c>Si</c><c>   1</c></rc>
    <rc><c>Si</c><c>   1</c></rc>
    <rc><c>Ge</c><c>   2</c></rc>
    <rc><c>Ge</c><c>   2</c></rc>
    <rc><c>Ge</c><c>   2</c></rc>
    <rc><c>Ge</c><c>   2</c></rc>
    <rc><c>Ge</c><c>   2</c></rc>
    <rc><c>Ge</c><c>   2</c></rc>
    <rc><c>Ge</c><c>   2</c></rc>
    <rc><c>Ge</c><c>   2</c></rc>
    <rc><c>Ge</c><c>   2</c></rc>
    <rc><c>Ge</c><c>   2</c></rc>
    <rc><c>Ge</c><c>   2</c></rc>
    <rc><c>Ge</c><c>   2</c></rc>
    <rc><c>Ge</c><c>   2</c></rc>
    <rc><c>Ge</c><c>   2</c></rc>
    <rc><c>Ge</c><c>   2</c></rc>
    <rc><c>Ge</c><c>   2</c></rc>
    <rc><c>Ge</c><c>   2</c></rc>
    <rc><c>Ge</c><c>   2</c></rc>
    <rc><c>Ge</c><c>   2</c></rc>
    <rc><c>Ge</c><c>   2</c></rc>
    <rc><c>Ge</c><c>   2</c></rc>
    <rc><c>Ge</c><c>   2</c></rc>
    <rc><c>Ge</c><c>   2</c></rc>
    <rc><c>Ge</c><c>   2</c></rc>
    <rc><c>Ge</c><c>   2</c></rc>
    <rc><c>Ge</c><c>   2</c></rc>
    <rc><c>Ge</c><c>   2</c></rc>
    <rc><c>Ge</c><c>   2</c></rc>
    <rc><c>Ge</c><c>   2</c></rc>
    <rc><c>Ge</c><c>   2</c></rc>
    <rc><c>Ge</c><c>   2</c></rc>
    <rc><c>Ge</c><c>   2</c></rc>
    <rc><c>Ge</c><c>   2</c></rc>
    <rc><c>Ge</c><c>   2</c></rc>
    <rc><c>Ge</c><c>   2</c></rc>
    <rc><c>Ge</c><c>   2</c></rc>
    <rc><c>Ge</c><c>   2</c></rc>
    <rc><c>Ge</c><c>   2</c></rc>
    <rc><c>Ge</c><c>   2</c></rc>
    <rc><c>Ge</c><c>   2</c></rc>
    <rc><c>Ge</c><c>   2</c></rc>
    <rc><c>Ge</c><c>   2</c></rc>
    <rc><c>Ge</c><c>   2</c></rc>
    <rc><c>Ge</c><c>   2</c></rc>
    <rc><c>Ge</c><c>   2</c></rc>
    <rc><c>Ge</c><c>   2</c></rc>
    <rc><c>Ge</c><c>   2</c></rc>
    <rc><c>Ge</c><c>   2</c></rc>
    <rc><c>Ge</c><c>   2</c></rc>
    <rc><c>Ge</c><c>   2</c></rc>
    <rc><c>Ge</c><c>   2</c></rc>
    <rc><c>Ge</c><c>   2</c></rc>
    <rc><c>Ge</c><c>   2</c></rc>
    <rc><c>Ge</c><c>   2</c></rc>
    <rc><c>Ge</c><c>   2</c></rc>
    <rc><c>Ge</c><c>   2</c></rc>
    <rc><c>Ge</c><c>   2</c></rc>
    <rc><c>Ge</c><c>   2</c></rc>
    <rc><c>Ge</c><c>   2</c></rc>
    <rc><c>Ge</c><c>   2</c></rc>
    <rc><c>Ge</c><c>   2</c></rc>
    <rc><c>Ge</c><c>   2</c></rc>
    <rc><c>Ge</c><c>   2</c></rc>
    <rc><c>Ge</c><c>   2</c></rc>
    <rc><c>Ge</c><c>   2</c></rc>
    <rc><c>Ge</c><c>   2</c></rc>
    <rc><c>Ge</c><c>   2</c></rc>
    <rc><c>Ge</c><c>   2</c></rc>
    <rc><c>Ge</c><c>   2</c></rc>
    <rc><c>Ge</c><c>   2</c></rc>
    <rc><c>Ge</c><c>   2</c></rc>
    <rc><c>Ge</c><c>   2</c></rc>
   </set>
  </array>
  <array name="atomtypes" >
   <dimension dim="1">type</dimension>
   <field type="int">atomspertype</field>
   <field type="string">element</field>
   <field>mass</field>
   <field>valence</field>
   <field type="string">pseudopotential</field>
   <set>
    <rc><c>  72</c><c>Si</c><c>     28.08500000</c><c>      4.00000000</c><c>  PAW_PBE Si 05Jan2001                  </c></rc>
    <rc><c>  72</c><c>Ge</c><c>     72.61000000</c><c>      4.00000000</c><c>  PAW_PBE Ge 05Jan2001                  </c></rc>
   </set>
  </array>
 </atominfo>
 <structure name="initialpos" >
  <crystal>
   <varray name="basis" >
    <v>       9.49163842       0.00000000       0.00000000 </v>
    <v>       0.00000000      13.42320379       0.00000000 </v>
    <v>       0.00000000       0.00000000      24.09292386 </v>
   </varray>
   <i name="volume">   3069.63598605 </i>
   <varray name="rec_basis" >
    <v>       0.10535589       0.00000000       0.00000000 </v>
    <v>       0.00000000       0.07449786       0.00000000 </v>
    <v>       0.00000000       0.00000000       0.04150596 </v>
   </varray>
  </crystal>
  <varray name="positions" >
   <v>       0.00000000       0.00000000       0.00000000 </v>
   <v>       0.00000000       0.75000000       0.08041667 </v>
   <v>       0.00000000       0.50000000       0.16083333 </v>
   <v>       0.00000000       0.25000000       0.24124999 </v>
   <v>       0.00000000       0.00000000       0.32166666 </v>
   <v>       0.00000000       0.75000000       0.40208332 </v>
   <v>       0.33333333       0.33333333       0.00000000 </v>
   <v>       0.33333333       0.08333333       0.08041667 </v>
   <v>       0.33333333       0.83333333       0.16083333 </v>
   <v>       0.33333333       0.58333333       0.24124999 </v>
   <v>       0.33333333       0.33333333       0.32166666 </v>
   <v>       0.33333333       0.08333333       0.40208332 </v>
   <v>       0.12588652       0.06704261       0.90868688 </v>
   <v>       0.66666667       0.41666667       0.08041667 </v>
   <v>       0.66666667       0.16666667       0.16083333 </v>
   <v>       0.66666667       0.91666667       0.24124999 </v>
   <v>       0.66666667       0.66666667       0.32166666 </v>
   <v>       0.12588652       0.81704261       0.49339644 </v>
   <v>       0.37588652       0.06704261       0.90868688 </v>
   <v>       0.00000000       0.25000000       0.08041667 </v>
   <v>       0.00000000       0.00000000       0.16083333 </v>
   <v>       0.00000000       0.75000000       0.24124999 </v>
   <v>       0.00000000       0.50000000       0.32166666 </v>
   <v>       0.37588652       0.81704261       0.49339644 </v>
   <v>       0.79255319       0.15037594       0.82562879 </v>
   <v>       0.33333333       0.58333333       0.08041667 </v>
   <v>       0.33333333       0.33333333       0.16083333 </v>
   <v>       0.33333333       0.08333333       0.24124999 </v>
   <v>       0.33333333       0.83333333       0.32166666 </v>
   <v>       0.79255319       0.90037594       0.57645453 </v>
   <v>       0.79255319       0.40037594       0.90868688 </v>
   <v>       0.66666667       0.91666667       0.08041667 </v>
   <v>       0.66666667       0.66666667       0.16083333 </v>
   <v>       0.66666667       0.41666667       0.24124999 </v>
   <v>       0.66666667       0.16666667       0.32166666 </v>
   <v>       0.79255319       0.15037594       0.49339644 </v>
   <v>       0.08333333       0.33333333       0.00000000 </v>
   <v>       0.08333333       0.08333333       0.08041667 </v>
   <v>       0.08333333       0.83333333       0.16083333 </v>
   <v>       0.08333333       0.58333333       0.24124999 </v>
   <v>       0.08333333       0.33333333       0.32166666 </v>
   <v>       0.08333333       0.08333333       0.40208332 </v>
   <v>       0.41666667       0.66666667       0.00000000 </v>
   <v>       0.41666667       0.41666667       0.08041667 </v>
   <v>       0.41666667       0.16666667       0.16083333 </v>
   <v>       0.41666667       0.91666667       0.24124999 </v>
   <v>       0.04255319       0.15037594       0.49339644 </v>
   <v>       0.41666667       0.41666667       0.40208332 </v>
   <v>       0.75000000       0.00000000       0.00000000 </v>
   <v>       0.75000000       0.75000000       0.08041667 </v>
   <v>       0.75000000       0.50000000       0.16083333 </v>
   <v>       0.75000000       0.25000000       0.24124999 </v>
   <v>       0.75000000       0.00000000       0.32166666 </v>
   <v>       0.75000000       0.75000000       0.40208332 </v>
   <v>       0.08333333       0.83333333       0.00000000 </v>
   <v>       0.08333333       0.58333333       0.08041667 </v>
   <v>       0.12588652       0.56704261       0.90868688 </v>
   <v>       0.12588652       0.31704261       0.49339644 </v>
   <v>       0.08333333       0.83333333       0.32166666 </v>
   <v>       0.08333333       0.58333333       0.40208332 </v>
   <v>       0.41666667       0.16666667       0.00000000 </v>
   <v>       0.04255319       0.40037594       0.90868688 </v>
   <v>       0.41666667       0.66666667       0.16083333 </v>
   <v>       0.41666667       0.41666667       0.24124999 </v>
   <v>       0.41666667       0.16666667       0.32166666 </v>
   <v>       0.41666667       0.91666667       0.40208332 </v>
   <v>       0.75000000       0.50000000       0.00000000 </v>
   <v>       0.75000000       0.25000000       0.08041667 </v>
   <v>       0.75000000       0.00000000       0.16083333 </v>
   <v>       0.75000000       0.75000000       0.24124999 </v>
   <v>       0.75000000       0.50000000       0.32166666 </v>
   <v>       0.75000000       0.25000000       0.40208332 </v>
   <v>       0.41666667       0.66666667       0.32166666 </v>
   <v>       0.04255319       0.40037594       0.57645453 </v>
   <v>       0.04255319       0.65037594       0.65951262 </v>
   <v>       0.04255319       0.90037594       0.74257071 </v>
   <v>       0.04255319       0.15037594       0.82562879 </v>
   <v>       0.41666667       0.91666667       0.08041667 </v>
   <v>       0.00000000       0.25000000       0.40208332 </v>
   <v>       0.37588652       0.06704261       0.57645453 </v>
   <v>       0.37588652       0.31704261       0.65951262 </v>
   <v>       0.37588652       0.56704261       0.74257071 </v>
   <v>       0.37588652       0.81704261       0.82562879 </v>
   <v>       0.00000000       0.50000000       0.00000000 </v>
   <v>       0.70921986       0.48370927       0.49339644 </v>
   <v>       0.70921986       0.73370927       0.57645453 </v>
   <v>       0.70921986       0.98370927       0.65951262 </v>
   <v>       0.70921986       0.23370927       0.74257071 </v>
   <v>       0.70921986       0.48370927       0.82562879 </v>
   <v>       0.70921986       0.73370927       0.90868688 </v>
   <v>       0.04255319       0.65037594       0.49339644 </v>
   <v>       0.04255319       0.90037594       0.57645453 </v>
   <v>       0.04255319       0.15037594       0.65951262 </v>
   <v>       0.04255319       0.40037594       0.74257071 </v>
   <v>       0.04255319       0.65037594       0.82562879 </v>
   <v>       0.04255319       0.90037594       0.90868688 </v>
   <v>       0.37588652       0.31704261       0.49339644 </v>
   <v>       0.37588652       0.56704261       0.57645453 </v>
   <v>       0.37588652       0.81704261       0.65951262 </v>
   <v>       0.37588652       0.06704261       0.74257071 </v>
   <v>       0.37588652       0.31704261       0.82562879 </v>
   <v>       0.37588652       0.56704261       0.90868688 </v>
   <v>       0.70921986       0.98370927       0.49339644 </v>
   <v>       0.70921986       0.23370927       0.57645453 </v>
   <v>       0.70921986       0.48370927       0.65951262 </v>
   <v>       0.70921986       0.73370927       0.74257071 </v>
   <v>       0.70921986       0.98370927       0.82562879 </v>
   <v>       0.70921986       0.23370927       0.90868688 </v>
   <v>       0.66666667       0.41666667       0.40208332 </v>
   <v>       0.12588652       0.06704261       0.57645453 </v>
   <v>       0.12588652       0.31704261       0.65951262 </v>
   <v>       0.12588652       0.56704261       0.74257071 </v>
   <v>       0.12588652       0.81704261       0.82562879 </v>
   <v>       0.66666667       0.66666667       0.00000000 </v>
   <v>       0.45921986       0.48370927       0.49339644 </v>
   <v>       0.45921986       0.73370927       0.57645453 </v>
   <v>       0.45921986       0.98370927       0.65951262 </v>
   <v>       0.45921986       0.23370927       0.74257071 </v>
   <v>       0.45921986       0.48370927       0.82562879 </v>
   <v>       0.45921986       0.73370927       0.90868688 </v>
   <v>       0.66666667       0.91666667       0.40208332 </v>
   <v>       0.79255319       0.40037594       0.57645453 </v>
   <v>       0.79255319       0.65037594       0.65951262 </v>
   <v>       0.79255319       0.90037594       0.74257071 </v>
   <v>       0.33333333       0.83333333       0.00000000 </v>
   <v>       0.66666667       0.16666667       0.00000000 </v>
   <v>       0.08333333       0.08333333       0.24124999 </v>
   <v>       0.12588652       0.56704261       0.57645453 </v>
   <v>       0.12588652       0.81704261       0.65951262 </v>
   <v>       0.12588652       0.06704261       0.74257071 </v>
   <v>       0.12588652       0.31704261       0.82562879 </v>
   <v>       0.08333333       0.33333333       0.16083333 </v>
   <v>       0.45921986       0.98370927       0.49339644 </v>
   <v>       0.45921986       0.23370927       0.57645453 </v>
   <v>       0.45921986       0.48370927       0.65951262 </v>
   <v>       0.45921986       0.73370927       0.74257071 </v>
   <v>       0.45921986       0.98370927       0.82562879 </v>
   <v>       0.45921986       0.23370927       0.90868688 </v>
   <v>       0.79255319       0.65037594       0.49339644 </v>
   <v>       0.33333333       0.58333333       0.40208332 </v>
   <v>       0.79255319       0.15037594       0.65951262 </v>
   <v>       0.79255319       0.40037594       0.74257071 </v>
   <v>       0.79255319       0.65037594       0.82562879 </v>
   <v>       0.79255319       0.90037594       0.90868688 </v>
  </varray>
 </structure>
 <calculation>
  <scstep>
   <time name="dav">   60.91   61.43</time>
   <time name="total">   66.12   66.67</time>
   <energy>
    <i name="alphaZ">    759.26891756 </i>
    <i name="ewald"> -15880.22937473 </i>
    <i name="hartreedc">  -1041.86877295 </i>
    <i name="XCdc">  -1209.00548200 </i>
    <i name="pawpsdc">  12691.36703575 </i>
    <i name="pawaedc"> -10381.54560829 </i>
    <i name="eentropy">     -0.00275887 </i>
    <i name="bandstr">   2536.97631176 </i>
    <i name="atom">  14980.50241411 </i>
    <i name="e_fr_energy">   2455.46268234 </i>
    <i name="e_wo_entrp">   2455.46544120 </i>
    <i name="e_0_energy">   2455.46406177 </i>
   </energy>
  </scstep>
  <scstep>
   <time name="dav">   68.84   69.45</time>
   <time name="total">   68.84   69.45</time>
   <energy>
    <i name="e_fr_energy">   -415.11444905 </i>
    <i name="e_wo_entrp">   -415.11186873 </i>
    <i name="e_0_energy">   -415.11315889 </i>
   </energy>
  </scstep>
  <scstep>
   <time name="dav">   71.58   72.17</time>
   <time name="total">   71.58   72.17</time>
   <energy>
    <i name="e_fr_energy">   -687.77597943 </i>
    <i name="e_wo_entrp">   -687.77394069 </i>
    <i name="e_0_energy">   -687.77496006 </i>
   </energy>
  </scstep>
  <scstep>
   <time name="dav">   69.28   69.85</time>
   <time name="total">   69.29   69.86</time>
   <energy>
    <i name="e_fr_energy">   -697.05077779 </i>
    <i name="e_wo_entrp">   -697.04926328 </i>
    <i name="e_0_energy">   -697.05002053 </i>
   </energy>
  </scstep>
  <scstep>
   <time name="dav">   76.53   77.31</time>
   <time name="total">   79.77   80.57</time>
   <energy>
    <i name="e_fr_energy">   -697.40524409 </i>
    <i name="e_wo_entrp">   -697.40343995 </i>
    <i name="e_0_energy">   -697.40434202 </i>
   </energy>
  </scstep>
  <scstep>
   <time name="dav">   68.85   69.53</time>
   <time name="total">   77.29   78.04</time>
   <energy>
    <i name="e_fr_energy">   -687.72504802 </i>
    <i name="e_wo_entrp">   -687.72261115 </i>
    <i name="e_0_energy">   -687.72382958 </i>
   </energy>
  </scstep>
  <scstep>
   <time name="dav">   68.90   69.60</time>
   <time name="total">   77.37   78.13</time>
   <energy>
    <i name="e_fr_energy">   -687.05067318 </i>
    <i name="e_wo_entrp">   -687.04847825 </i>
    <i name="e_0_energy">   -687.04957572 </i>
   </energy>
  </scstep>
  <scstep>
   <time name="dav">   69.69   70.43</time>
   <time name="total">   78.20   79.00</time>
   <energy>
    <i name="e_fr_energy">   -687.02420111 </i>
    <i name="e_wo_entrp">   -687.02208174 </i>
    <i name="e_0_energy">   -687.02314142 </i>
   </energy>
  </scstep>
  <scstep>
   <time name="dav">   67.98   68.65</time>
   <time name="total">   76.44   77.17</time>
   <energy>
    <i name="e_fr_energy">   -687.01327779 </i>
    <i name="e_wo_entrp">   -687.01097530 </i>
    <i name="e_0_energy">   -687.01212655 </i>
   </energy>
  </scstep>
  <scstep>
   <time name="dav">   69.13   69.75</time>
   <time name="total">   77.61   78.30</time>
   <energy>
    <i name="e_fr_energy">   -687.01860226 </i>
    <i name="e_wo_entrp">   -687.01599435 </i>
    <i name="e_0_energy">   -687.01729830 </i>
   </energy>
  </scstep>
  <scstep>
   <time name="dav">   69.47   70.19</time>
   <time name="total">   77.94   78.72</time>
   <energy>
    <i name="e_fr_energy">   -687.01987694 </i>
    <i name="e_wo_entrp">   -687.01740096 </i>
    <i name="e_0_energy">   -687.01863895 </i>
   </energy>
  </scstep>
  <scstep>
   <time name="dav">   69.59   70.27</time>
   <time name="total">   78.05   78.80</time>
   <energy>
    <i name="e_fr_energy">   -687.01957294 </i>
    <i name="e_wo_entrp">   -687.01733747 </i>
    <i name="e_0_energy">   -687.01845521 </i>
   </energy>
  </scstep>
  <scstep>
   <time name="dav">   68.61   69.32</time>
   <time name="total">   77.07   77.84</time>
   <energy>
    <i name="e_fr_energy">   -687.01979727 </i>
    <i name="e_wo_entrp">   -687.01751867 </i>
    <i name="e_0_energy">   -687.01865797 </i>
   </energy>
  </scstep>
  <scstep>
   <time name="dav">   70.87   71.61</time>
   <time name="total">   79.34   80.15</time>
   <energy>
    <i name="e_fr_energy">   -687.01992806 </i>
    <i name="e_wo_entrp">   -687.01760597 </i>
    <i name="e_0_energy">   -687.01876702 </i>
   </energy>
  </scstep>
  <scstep>
   <time name="dav">   71.43   72.07</time>
   <time name="total">   79.91   80.62</time>
   <energy>
    <i name="e_fr_energy">   -687.01992836 </i>
    <i name="e_wo_entrp">   -687.01764059 </i>
    <i name="e_0_energy">   -687.01878447 </i>
   </energy>
  </scstep>
  <scstep>
   <time name="dav">   69.69   70.29</time>
   <time name="total">   78.18   78.84</time>
   <energy>
    <i name="e_fr_energy">   -687.01993234 </i>
    <i name="e_wo_entrp">   -687.01764421 </i>
    <i name="e_0_energy">   -687.01878827 </i>
   </energy>
  </scstep>
  <scstep>
   <time name="dav">   68.66   69.30</time>
   <time name="total">   77.14   77.84</time>
   <energy>
    <i name="e_fr_energy">   -687.01993609 </i>
    <i name="e_wo_entrp">   -687.01764709 </i>
    <i name="e_0_energy">   -687.01879159 </i>
   </energy>
  </scstep>
  <scstep>
   <time name="dav">   69.00   69.57</time>
   <time name="total">   77.49   78.11</time>
   <energy>
    <i name="e_fr_energy">   -687.01993713 </i>
    <i name="e_wo_entrp">   -687.01764536 </i>
    <i name="e_0_energy">   -687.01879124 </i>
   </energy>
  </scstep>
  <scstep>
   <time name="dav">   68.79   69.37</time>
   <time name="total">   77.27   77.91</time>
   <energy>
    <i name="e_fr_energy">   -687.01993769 </i>
    <i name="e_wo_entrp">   -687.01764481 </i>
    <i name="e_0_energy">   -687.01879125 </i>
   </energy>
  </scstep>
  <scstep>
   <time name="dav">   58.28   58.79</time>
   <time name="total">   66.77   67.34</time>
   <energy>
    <i name="e_fr_energy">   -687.01993818 </i>
    <i name="e_wo_entrp">   -687.01764607 </i>
    <i name="e_0_energy">   -687.01879212 </i>
   </energy>
  </scstep>
  <scstep>
   <time name="dav">   44.21   44.62</time>
   <time name="total">   52.73   53.20</time>
   <energy>
    <i name="e_fr_energy">   -687.01993844 </i>
    <i name="e_wo_entrp">   -687.01764660 </i>
    <i name="e_0_energy">   -687.01879252 </i>
   </energy>
  </scstep>
  <scstep>
   <time name="dav">   42.49   42.85</time>
   <time name="total">   47.70   48.08</time>
   <energy>
    <i name="alphaZ">    759.26891756 </i>
    <i name="ewald"> -15880.22937473 </i>
    <i name="hartreedc">  -1282.92988372 </i>
    <i name="XCdc">  -1167.07982312 </i>
    <i name="pawpsdc">  45909.03366720 </i>
    <i name="pawaedc"> -43619.81187420 </i>
    <i name="eentropy">     -0.00229215 </i>
    <i name="bandstr">   -385.77168946 </i>
    <i name="atom">  14980.50241411 </i>
    <i name="e_fr_energy">   -687.01993852 </i>
    <i name="e_wo_entrp">   -687.01764637 </i>
    <i name="e_0_energy">   -687.01879245 </i>
   </energy>
  </scstep>
  <structure>
   <crystal>
    <varray name="basis" >
     <v>       9.49163842       0.00000000       0.00000000 </v>
     <v>       0.00000000      13.42320379       0.00000000 </v>
     <v>       0.00000000       0.00000000      24.09292386 </v>
    </varray>
    <i name="volume">   3069.63598605 </i>
    <varray name="rec_basis" >
     <v>       0.10535589       0.00000000       0.00000000 </v>
     <v>       0.00000000       0.07449786       0.00000000 </v>
     <v>       0.00000000       0.00000000       0.04150596 </v>
    </varray>
   </crystal>
   <varray name="positions" >
    <v>       0.00000000       0.00000000       0.00000000 </v>
    <v>       0.00000000       0.75000000       0.08041667 </v>
    <v>       0.00000000       0.50000000       0.16083333 </v>
    <v>       0.00000000       0.25000000       0.24124999 </v>
    <v>       0.00000000       0.00000000       0.32166666 </v>
    <v>       0.00000000       0.75000000       0.40208332 </v>
    <v>       0.33333333       0.33333333       0.00000000 </v>
    <v>       0.33333333       0.08333333       0.08041667 </v>
    <v>       0.33333333       0.83333333       0.16083333 </v>
    <v>       0.33333333       0.58333333       0.24124999 </v>
    <v>       0.33333333       0.33333333       0.32166666 </v>
    <v>       0.33333333       0.08333333       0.40208332 </v>
    <v>       0.12588652       0.06704261       0.90868688 </v>
    <v>       0.66666667       0.41666667       0.08041667 </v>
    <v>       0.66666667       0.16666667       0.16083333 </v>
    <v>       0.66666667       0.91666667       0.24124999 </v>
    <v>       0.66666667       0.66666667       0.32166666 </v>
    <v>       0.12588652       0.81704261       0.49339644 </v>
    <v>       0.37588652       0.06704261       0.90868688 </v>
    <v>       0.00000000       0.25000000       0.08041667 </v>
    <v>       0.00000000       0.00000000       0.16083333 </v>
    <v>       0.00000000       0.75000000       0.24124999 </v>
    <v>       0.00000000       0.50000000       0.32166666 </v>
    <v>       0.37588652       0.81704261       0.49339644 </v>
    <v>       0.79255319       0.15037594       0.82562879 </v>
    <v>       0.33333333       0.58333333       0.08041667 </v>
    <v>       0.33333333       0.33333333       0.16083333 </v>
    <v>       0.33333333       0.08333333       0.24124999 </v>
    <v>       0.33333333       0.83333333       0.32166666 </v>
    <v>       0.79255319       0.90037594       0.57645453 </v>
    <v>       0.79255319       0.40037594       0.90868688 </v>
    <v>       0.66666667       0.91666667       0.08041667 </v>
    <v>       0.66666667       0.66666667       0.16083333 </v>
    <v>       0.66666667       0.41666667       0.24124999 </v>
    <v>       0.66666667       0.16666667       0.32166666 </v>
    <v>       0.79255319       0.15037594       0.49339644 </v>
    <v>       0.08333333       0.33333333       0.00000000 </v>
    <v>       0.08333333       0.08333333       0.08041667 </v>
    <v>       0.08333333       0.83333333       0.16083333 </v>
    <v>       0.08333333       0.58333333       0.24124999 </v>
    <v>       0.08333333       0.33333333       0.32166666 </v>
    <v>       0.08333333       0.08333333       0.40208332 </v>
    <v>       0.41666667       0.66666667       0.00000000 </v>
    <v>       0.41666667       0.41666667       0.08041667 </v>
    <v>       0.41666667       0.16666667       0.16083333 </v>
    <v>       0.41666667       0.91666667       0.24124999 </v>
    <v>       0.04255319       0.15037594       0.49339644 </v>
    <v>       0.41666667       0.41666667       0.40208332 </v>
    <v>       0.75000000       0.00000000       0.00000000 </v>
    <v>       0.75000000       0.75000000       0.08041667 </v>
    <v>       0.75000000       0.50000000       0.16083333 </v>
    <v>       0.75000000       0.25000000       0.24124999 </v>
    <v>       0.75000000       0.00000000       0.32166666 </v>
    <v>       0.75000000       0.75000000       0.40208332 </v>
    <v>       0.08333333       0.83333333       0.00000000 </v>
    <v>       0.08333333       0.58333333       0.08041667 </v>
    <v>       0.12588652       0.56704261       0.90868688 </v>
    <v>       0.12588652       0.31704261       0.49339644 </v>
    <v>       0.08333333       0.83333333       0.32166666 </v>
    <v>       0.08333333       0.58333333       0.40208332 </v>
    <v>       0.41666667       0.16666667       0.00000000 </v>
    <v>       0.04255319       0.40037594       0.90868688 </v>
    <v>       0.41666667       0.66666667       0.16083333 </v>
    <v>       0.41666667       0.41666667       0.24124999 </v>
    <v>       0.41666667       0.16666667       0.32166666 </v>
    <v>       0.41666667       0.91666667       0.40208332 </v>
    <v>       0.75000000       0.50000000       0.00000000 </v>
    <v>       0.75000000       0.25000000       0.08041667 </v>
    <v>       0.75000000       0.00000000       0.16083333 </v>
    <v>       0.75000000       0.75000000       0.24124999 </v>
    <v>       0.75000000       0.50000000       0.32166666 </v>
    <v>       0.75000000       0.25000000       0.40208332 </v>
    <v>       0.41666667       0.66666667       0.32166666 </v>
    <v>       0.04255319       0.40037594       0.57645453 </v>
    <v>       0.04255319       0.65037594       0.65951262 </v>
    <v>       0.04255319       0.90037594       0.74257071 </v>
    <v>       0.04255319       0.15037594       0.82562879 </v>
    <v>       0.41666667       0.91666667       0.08041667 </v>
    <v>       0.00000000       0.25000000       0.40208332 </v>
    <v>       0.37588652       0.06704261       0.57645453 </v>
    <v>       0.37588652       0.31704261       0.65951262 </v>
    <v>       0.37588652       0.56704261       0.74257071 </v>
    <v>       0.37588652       0.81704261       0.82562879 </v>
    <v>       0.00000000       0.50000000       0.00000000 </v>
    <v>       0.70921986       0.48370927       0.49339644 </v>
    <v>       0.70921986       0.73370927       0.57645453 </v>
    <v>       0.70921986       0.98370927       0.65951262 </v>
    <v>       0.70921986       0.23370927       0.74257071 </v>
    <v>       0.70921986       0.48370927       0.82562879 </v>
    <v>       0.70921986       0.73370927       0.90868688 </v>
    <v>       0.04255319       0.65037594       0.49339644 </v>
    <v>       0.04255319       0.90037594       0.57645453 </v>
    <v>       0.04255319       0.15037594       0.65951262 </v>
    <v>       0.04255319       0.40037594       0.74257071 </v>
    <v>       0.04255319       0.65037594       0.82562879 </v>
    <v>       0.04255319       0.90037594       0.90868688 </v>
    <v>       0.37588652       0.31704261       0.49339644 </v>
    <v>       0.37588652       0.56704261       0.57645453 </v>
    <v>       0.37588652       0.81704261       0.65951262 </v>
    <v>       0.37588652       0.06704261       0.74257071 </v>
    <v>       0.37588652       0.31704261       0.82562879 </v>
    <v>       0.37588652       0.56704261       0.90868688 </v>
    <v>       0.70921986       0.98370927       0.49339644 </v>
    <v>       0.70921986       0.23370927       0.57645453 </v>
    <v>       0.70921986       0.48370927       0.65951262 </v>
    <v>       0.70921986       0.73370927       0.74257071 </v>
    <v>       0.70921986       0.98370927       0.82562879 </v>
    <v>       0.70921986       0.23370927       0.90868688 </v>
    <v>       0.66666667       0.41666667       0.40208332 </v>
    <v>       0.12588652       0.06704261       0.57645453 </v>
    <v>       0.12588652       0.31704261       0.65951262 </v>
    <v>       0.12588652       0.56704261       0.74257071 </v>
    <v>       0.12588652       0.81704261       0.82562879 </v>
    <v>       0.66666667       0.66666667       0.00000000 </v>
    <v>       0.45921986       0.48370927       0.49339644 </v>
    <v>       0.45921986       0.73370927       0.57645453 </v>
    <v>       0.45921986       0.98370927       0.65951262 </v>
    <v>       0.45921986       0.23370927       0.74257071 </v>
    <v>       0.45921986       0.48370927       0.82562879 </v>
    <v>       0.45921986       0.73370927       0.90868688 </v>
    <v>       0.66666667       0.91666667       0.40208332 </v>
    <v>       0.79255319       0.40037594       0.57645453 </v>
    <v>       0.79255319       0.65037594       0.65951262 </v>
    <v>       0.79255319       0.90037594       0.74257071 </v>
    <v>       0.33333333       0.83333333       0.00000000 </v>
    <v>       0.66666667       0.16666667       0.00000000 </v>
    <v>       0.08333333       0.08333333       0.24124999 </v>
    <v>       0.12588652       0.56704261       0.57645453 </v>
    <v>       0.12588652       0.81704261       0.65951262 </v>
    <v>       0.12588652       0.06704261       0.74257071 </v>
    <v>       0.12588652       0.31704261       0.82562879 </v>
    <v>       0.08333333       0.33333333       0.16083333 </v>
    <v>       0.45921986       0.98370927       0.49339644 </v>
    <v>       0.45921986       0.23370927       0.57645453 </v>
    <v>       0.45921986       0.48370927       0.65951262 </v>
    <v>       0.45921986       0.73370927       0.74257071 </v>
    <v>       0.45921986       0.98370927       0.82562879 </v>
    <v>       0.45921986       0.23370927       0.90868688 </v>
    <v>       0.79255319       0.65037594       0.49339644 </v>
    <v>       0.33333333       0.58333333       0.40208332 </v>
    <v>       0.79255319       0.15037594       0.65951262 </v>
    <v>       0.79255319       0.40037594       0.74257071 </v>
    <v>       0.79255319       0.65037594       0.82562879 </v>
    <v>       0.79255319       0.90037594       0.90868688 </v>
   </varray>
  </structure>
  <varray name="forces" >
   <v>       0.53379944       1.46268986       1.01546744 </v>
   <v>      -0.22587601      -0.20477208      -0.03623022 </v>
   <v>      -0.20836624       0.52396355       0.00288029 </v>
   <v>      -0.38967209       0.26322356       0.43812314 </v>
   <v>      -0.41334887      -0.43830953       0.46665539 </v>
   <v>       0.53180003       1.46065956      -1.01544189 </v>
   <v>       0.05054673      -0.40009268      -0.48405433 </v>
   <v>      -0.17258865       0.28088400       0.00360438 </v>
   <v>      -0.19780556      -0.37884424       0.39116940 </v>
   <v>      -0.19282549      -0.38506179      -0.39780040 </v>
   <v>      -0.00404651      -0.26929137      -0.01626309 </v>
   <v>       0.05257677      -0.40590808       0.48622435 </v>
   <v>       0.03735479       0.01214740       1.03945238 </v>
   <v>       0.00475963      -0.14201703      -0.07103604 </v>
   <v>      -0.04960851      -0.05770636      -0.00581225 </v>
   <v>      -0.05153288      -0.05777194      -0.00718296 </v>
   <v>       0.55400847      -0.13326401       0.07556807 </v>
   <v>       0.03815497       0.00817508      -1.04334544 </v>
   <v>      -0.76963174      -0.06020140       1.36263654 </v>
   <v>      -0.41371609      -0.43667334      -0.46805825 </v>
   <v>      -0.21060556      -0.25457132      -0.43677198 </v>
   <v>      -0.02876143       0.00362788      -0.02134080 </v>
   <v>      -0.22601172      -0.20254592       0.03475874 </v>
   <v>      -0.76437799      -0.06738549      -1.36311304 </v>
   <v>      -0.14665320       0.10076364       0.03478817 </v>
   <v>      -0.00495727      -0.26712012       0.01354647 </v>
   <v>       0.53484230      -0.10927234      -0.07102277 </v>
   <v>       0.53776384      -0.10373752       0.05942608 </v>
   <v>      -0.17288126       0.27855952       0.00829338 </v>
   <v>      -0.14627124       0.10554718      -0.03821666 </v>
   <v>      -0.23290986       0.91946650       0.59690880 </v>
   <v>       0.55416230      -0.13476901      -0.07198464 </v>
   <v>      -0.04991557      -0.05164145       0.00046802 </v>
   <v>      -0.05468155      -0.05141595      -0.00903875 </v>
   <v>       0.00491404      -0.14315118       0.07660552 </v>
   <v>      -0.23252878       0.91444061      -0.59636644 </v>
   <v>       0.90062550      -0.19564039      -0.66140853 </v>
   <v>       0.07735693       0.10615793      -0.10242011 </v>
   <v>       0.08321659       0.14470266      -0.14047864 </v>
   <v>       0.08662656       0.14515263       0.11893908 </v>
   <v>       0.30255409       0.38755774      -0.41560390 </v>
   <v>       0.89921409      -0.19326262       0.66383104 </v>
   <v>      -0.57044769      -1.53888209       1.71469944 </v>
   <v>       0.22535027       0.01697170      -0.02203823 </v>
   <v>       0.05402867       0.01870934      -0.01417507 </v>
   <v>       0.04857365       0.01519115       0.00621517 </v>
   <v>      -0.05148363      -0.94826344       0.98498689 </v>
   <v>      -0.55638230      -1.53762784      -1.70239987 </v>
   <v>       0.49573125      -0.83701905      -0.58368721 </v>
   <v>       0.31004403       0.31059544       0.41897609 </v>
   <v>       0.06714249       0.05865622      -0.02630522 </v>
   <v>       0.07161051       0.05886735       0.02367041 </v>
   <v>       0.30821097       0.30943608      -0.40067962 </v>
   <v>       0.49607160      -0.83604671       0.58402252 </v>
   <v>       0.20206553       0.26858683      -0.06108352 </v>
   <v>       0.30989515       0.39593258       0.41701531 </v>
   <v>      -0.63273990      -0.55450451       0.68280745 </v>
   <v>      -0.63050412      -0.55837743      -0.68846153 </v>
   <v>       0.08429841       0.11333685       0.10931060 </v>
   <v>       0.19963844       0.26712768       0.06405039 </v>
   <v>      -0.83889685      -1.23748480       1.53171832 </v>
   <v>      -0.05323126      -0.94598632      -0.98441120 </v>
   <v>       0.04659718       0.01578527      -0.01607938 </v>
   <v>       0.04731271       0.02170825       0.00077308 </v>
   <v>       0.22403073       0.01754095       0.02774809 </v>
   <v>      -0.84443047      -1.23198331      -1.53245549 </v>
   <v>      -0.05577262      -1.01815542      -0.89669377 </v>
   <v>       0.31108742       0.31007742       0.40239146 </v>
   <v>       0.07120160       0.04113634      -0.03540257 </v>
   <v>       0.06639558       0.04442663       0.02012031 </v>
   <v>       0.31089823       0.30968050      -0.42327314 </v>
   <v>      -0.05604902      -1.01790984       0.89570516 </v>
   <v>       0.43090009       0.33369556      -0.46547623 </v>
   <v>       0.19810972      -0.58612140      -0.44110760 </v>
   <v>       0.25617707      -0.35563518      -0.01522963 </v>
   <v>       0.22997380      -0.35169967       0.02516493 </v>
   <v>      -0.38754552      -0.61997763       0.42654308 </v>
   <v>       0.45757976       0.33069689       0.50060486 </v>
   <v>       0.51368391       1.70318911      -0.82337654 </v>
   <v>       0.05983453      -0.28506702      -0.07397364 </v>
   <v>       0.16189736      -0.22784973      -0.10619746 </v>
   <v>       0.16235752      -0.24536123       0.13213301 </v>
   <v>       0.10310767      -0.27955846       0.05807242 </v>
   <v>       0.52331995       1.69749692       0.83204782 </v>
   <v>       0.40802778      -0.01462550       0.00689414 </v>
   <v>       0.38818136       0.23583787      -0.07701468 </v>
   <v>       0.33217596      -0.51145284      -0.46843554 </v>
   <v>       0.33451392      -0.50995750       0.45809259 </v>
   <v>       0.34878961      -0.58740025       0.50267086 </v>
   <v>       0.41383865      -0.01964150       0.02217887 </v>
   <v>       0.60989479      -1.17624073       1.19345032 </v>
   <v>      -0.39516323      -0.60697687      -0.43321679 </v>
   <v>       0.25737578      -0.36253621      -0.02382229 </v>
   <v>       0.23468524      -0.35270427       0.03586393 </v>
   <v>       0.20043438      -0.59820762       0.44238354 </v>
   <v>       0.63157916      -1.17812249      -1.20314824 </v>
   <v>      -0.55312232      -0.70924777      -1.50804586 </v>
   <v>       0.08111894      -0.28432389      -0.07088386 </v>
   <v>       0.14691197      -0.22915274      -0.10734433 </v>
   <v>       0.15236014      -0.24355527       0.11513901 </v>
   <v>       0.08922068      -0.26608598       0.06440082 </v>
   <v>      -0.55412766      -0.70438514       1.52123309 </v>
   <v>       0.80617733       0.28387992       0.43534089 </v>
   <v>       0.36478646      -0.57179793      -0.51651365 </v>
   <v>       0.15682809      -0.26423440      -0.03659093 </v>
   <v>       0.15892048      -0.26300940       0.04256639 </v>
   <v>       0.37728721       0.21846167       0.06050363 </v>
   <v>       0.81517485       0.28214056      -0.41191966 </v>
   <v>       0.46420703      -0.44000936      -0.48905395 </v>
   <v>      -0.50003129       0.44039613      -0.41672004 </v>
   <v>      -0.24996501       0.23392696      -0.06691729 </v>
   <v>      -0.26573716       0.20952492       0.07168249 </v>
   <v>      -0.27969229       0.18342687      -0.06605061 </v>
   <v>       0.48904458      -0.43689072       0.48062054 </v>
   <v>      -0.69462630       2.26467137       1.83134393 </v>
   <v>      -0.21631412       0.49995575      -0.25228586 </v>
   <v>      -0.20359415       0.39030073      -0.00136210 </v>
   <v>      -0.20329866       0.39487269       0.00435920 </v>
   <v>      -0.08718942       0.21910069      -0.22512329 </v>
   <v>      -0.68067005       2.25473234      -1.80349606 </v>
   <v>       0.46990198      -0.42926516      -0.49956655 </v>
   <v>      -0.17621024       0.19199133      -0.01222655 </v>
   <v>      -0.21767616       0.32775227       0.05372937 </v>
   <v>      -0.22090809       0.33791643      -0.04040669 </v>
   <v>      -0.03219532      -0.27538271      -1.23845135 </v>
   <v>       0.49438458      -0.42948717       0.48815763 </v>
   <v>       0.06865766       0.14192033       0.14698366 </v>
   <v>      -0.31112374       0.16623440       0.05612007 </v>
   <v>      -0.25070078       0.23887662      -0.06498192 </v>
   <v>      -0.27325880       0.21414757       0.07575759 </v>
   <v>      -0.46985855       0.45719926       0.40930289 </v>
   <v>       0.07915362       0.14057179      -0.13746302 </v>
   <v>      -0.98776940       1.76545168       1.78900438 </v>
   <v>      -0.06820935       0.22910650       0.19341576 </v>
   <v>      -0.20634301       0.40083067      -0.00224782 </v>
   <v>      -0.20425647       0.40053165      -0.00256754 </v>
   <v>      -0.22985403       0.48831364       0.22865842 </v>
   <v>      -0.97937567       1.75571095      -1.76734073 </v>
   <v>      -1.02056326       1.05913013      -0.73825705 </v>
   <v>      -0.01744295      -0.26776244       1.23376640 </v>
   <v>      -0.21369185       0.32252440       0.05830742 </v>
   <v>      -0.22301303       0.33105798      -0.04357649 </v>
   <v>      -0.17613130       0.18066726       0.01201278 </v>
   <v>      -1.00586397       1.05266639       0.72846467 </v>
  </varray>
  <varray name="stress" >
   <v>      58.35945867       6.47403226      -0.03825071 </v>
   <v>       6.47403313      56.33162587      -0.01360636 </v>
   <v>      -0.03825076      -0.01360650      31.00600817 </v>
  </varray>
  <energy>
   <i name="e_fr_energy">   -687.01993852 </i>
   <i name="e_wo_entrp">   -687.01764637 </i>
   <i name="e_0_energy">   -687.01879245 </i>
  </energy>
  <time name="totalsc"> 1709.24 1725.78</time>
  <eigenvalues>
   <array>
    <dimension dim="1">band</dimension>
    <dimension dim="2">kpoint</dimension>
    <dimension dim="3">spin</dimension>
    <field>eigene</field>
    <field>occ</field>
    <set>
     <set comment="spin 1">
      <set comment="kpoint 1">
       <r>   -8.1671    1.0000 </r>
       <r>   -7.8430    1.0000 </r>
       <r>   -7.6010    1.0000 </r>
       <r>   -7.4916    1.0000 </r>
       <r>   -7.4879    1.0000 </r>
       <r>   -7.2847    1.0000 </r>
       <r>   -7.2843    1.0000 </r>
       <r>   -7.0784    1.0000 </r>
       <r>   -7.0304    1.0000 </r>
       <r>   -6.9784    1.0000 </r>
       <r>   -6.9581    1.0000 </r>
       <r>   -6.8306    1.0000 </r>
       <r>   -6.7741    1.0000 </r>
       <r>   -6.7298    1.0000 </r>
       <r>   -6.5568    1.0000 </r>
       <r>   -6.5066    1.0000 </r>
       <r>   -6.4700    1.0000 </r>
       <r>   -6.4272    1.0000 </r>
       <r>   -6.4031    1.0000 </r>
       <r>   -6.2723    1.0000 </r>
       <r>   -6.1473    1.0000 </r>
       <r>   -6.0878    1.0000 </r>
       <r>   -6.0655    1.0000 </r>
       <r>   -6.0521    1.0000 </r>
       <r>   -6.0147    1.0000 </r>
       <r>   -6.0046    1.0000 </r>
       <r>   -5.9849    1.0000 </r>
       <r>   -5.9136    1.0000 </r>
       <r>   -5.8931    1.0000 </r>
       <r>   -5.8440    1.0000 </r>
       <r>   -5.8321    1.0000 </r>
       <r>   -5.7763    1.0000 </r>
       <r>   -5.7142    1.0000 </r>
       <r>   -5.6488    1.0000 </r>
       <r>   -5.6228    1.0000 </r>
       <r>   -5.6071    1.0000 </r>
       <r>   -5.5487    1.0000 </r>
       <r>   -5.5233    1.0000 </r>
       <r>   -5.4600    1.0000 </r>
       <r>   -5.3469    1.0000 </r>
       <r>   -5.3195    1.0000 </r>
       <r>   -5.3051    1.0000 </r>
       <r>   -5.2535    1.0000 </r>
       <r>   -5.2298    1.0000 </r>
       <r>   -5.1769    1.0000 </r>
       <r>   -5.0998    1.0000 </r>
       <r>   -5.0762    1.0000 </r>
       <r>   -5.0220    1.0000 </r>
       <r>   -4.9694    1.0000 </r>
       <r>   -4.9420    1.0000 </r>
       <r>   -4.9240    1.0000 </r>
       <r>   -4.9025    1.0000 </r>
       <r>   -4.8899    1.0000 </r>
       <r>   -4.8388    1.0000 </r>
       <r>   -4.8185    1.0000 </r>
       <r>   -4.7184    1.0000 </r>
       <r>   -4.6993    1.0000 </r>
       <r>   -4.6669    1.0000 </r>
       <r>   -4.5644    1.0000 </r>
       <r>   -4.5368    1.0000 </r>
       <r>   -4.4491    1.0000 </r>
       <r>   -4.3227    1.0000 </r>
       <r>   -4.2983    1.0000 </r>
       <r>   -4.2130    1.0000 </r>
       <r>   -4.1929    1.0000 </r>
       <r>   -4.1216    1.0000 </r>
       <r>   -4.0997    1.0000 </r>
       <r>   -3.8523    1.0000 </r>
       <r>   -3.8418    1.0000 </r>
       <r>   -3.7742    1.0000 </r>
       <r>   -3.7091    1.0000 </r>
       <r>   -3.6845    1.0000 </r>
       <r>   -3.5110    1.0000 </r>
       <r>   -3.4646    1.0000 </r>
       <r>   -3.4367    1.0000 </r>
       <r>   -3.4052    1.0000 </r>
       <r>   -3.3780    1.0000 </r>
       <r>   -3.1463    1.0000 </r>
       <r>   -3.1275    1.0000 </r>
       <r>   -3.0399    1.0000 </r>
       <r>   -2.9557    1.0000 </r>
       <r>   -2.9268    1.0000 </r>
       <r>   -2.9035    1.0000 </r>
       <r>   -2.8495    1.0000 </r>
       <r>   -2.7991    1.0000 </r>
       <r>   -2.7601    1.0000 </r>
       <r>   -2.6630    1.0000 </r>
       <r>   -2.6408    1.0000 </r>
       <r>   -2.5648    1.0000 </r>
       <r>   -2.5163    1.0000 </r>
       <r>   -2.4777    1.0000 </r>
       <r>   -2.4535    1.0000 </r>
       <r>   -2.4056    1.0000 </r>
       <r>   -2.3745    1.0000 </r>
       <r>   -2.3072    1.0000 </r>
       <r>   -2.1921    1.0000 </r>
       <r>   -2.1791    1.0000 </r>
       <r>   -2.1594    1.0000 </r>
       <r>   -2.1134    1.0000 </r>
       <r>   -2.1002    1.0000 </r>
       <r>   -2.0746    1.0000 </r>
       <r>   -2.0537    1.0000 </r>
       <r>   -2.0384    1.0000 </r>
       <r>   -1.9373    1.0000 </r>
       <r>   -1.9248    1.0000 </r>
       <r>   -1.8830    1.0000 </r>
       <r>   -1.8624    1.0000 </r>
       <r>   -1.8254    1.0000 </r>
       <r>   -1.7663    1.0000 </r>
       <r>   -1.6872    1.0000 </r>
       <r>   -1.6601    1.0000 </r>
       <r>   -1.6413    1.0000 </r>
       <r>   -1.5957    1.0000 </r>
       <r>   -1.5863    1.0000 </r>
       <r>   -1.5332    1.0000 </r>
       <r>   -1.3457    1.0000 </r>
       <r>   -1.3287    1.0000 </r>
       <r>   -1.3176    1.0000 </r>
       <r>   -1.2707    1.0000 </r>
       <r>   -1.1747    1.0000 </r>
       <r>   -1.1517    1.0000 </r>
       <r>   -1.1378    1.0000 </r>
       <r>   -1.0902    1.0000 </r>
       <r>   -1.0064    1.0000 </r>
       <r>   -0.9919    1.0000 </r>
       <r>   -0.8844    1.0000 </r>
       <r>   -0.8656    1.0000 </r>
       <r>   -0.8414    1.0000 </r>
       <r>   -0.7707    1.0000 </r>
       <r>   -0.7452    1.0000 </r>
       <r>   -0.2236    1.0000 </r>
       <r>   -0.1737    1.0000 </r>
       <r>   -0.1335    1.0000 </r>
[...]
       <r>    -3.7098    22.4108   140.9440 </r>
       <r>    -3.6536    32.5938   142.7745 </r>
       <r>    -3.5975    33.2209   144.6404 </r>
       <r>    -3.5413    32.7743   146.4812 </r>
       <r>    -3.4851    10.1400   147.0507 </r>
       <r>    -3.4290    48.1374   149.7543 </r>
       <r>    -3.3728    33.0235   151.6090 </r>
       <r>    -3.3167    31.4446   153.3751 </r>
       <r>    -3.2605    11.0181   153.9939 </r>
       <r>    -3.2043    30.2044   155.6903 </r>
       <r>    -3.1482    24.0907   157.0434 </r>
       <r>    -3.0920    23.5208   158.3644 </r>
       <r>    -3.0358    47.8754   161.0532 </r>
       <r>    -2.9797    16.8725   162.0009 </r>
       <r>    -2.9235    55.5509   165.1208 </r>
       <r>    -2.8674    45.3098   167.6656 </r>
       <r>    -2.8112    60.7494   171.0775 </r>
       <r>    -2.7550    64.3922   174.6940 </r>
       <r>    -2.6989    34.7168   176.6440 </r>
       <r>    -2.6427    34.3213   178.5716 </r>
       <r>    -2.5865    39.5465   180.7927 </r>
       <r>    -2.5304    34.4156   182.7256 </r>
       <r>    -2.4742    45.0868   185.2578 </r>
       <r>    -2.4180    54.7904   188.3351 </r>
       <r>    -2.3619    29.4470   189.9889 </r>
       <r>    -2.3057    65.7909   193.6840 </r>
       <r>    -2.2496    50.8005   196.5373 </r>
       <r>    -2.1934    34.4890   198.4743 </r>
       <r>    -2.1372    52.1511   201.4033 </r>
       <r>    -2.0811    72.6182   205.4818 </r>
       <r>    -2.0249    39.3907   207.6942 </r>
       <r>    -1.9687    56.1453   210.8475 </r>
       <r>    -1.9126    48.6436   213.5794 </r>
       <r>    -1.8564    55.3065   216.6856 </r>
       <r>    -1.8003    35.8033   218.6965 </r>
       <r>    -1.7441    27.1419   220.2208 </r>
       <r>    -1.6879    52.4425   223.1662 </r>
       <r>    -1.6318    36.4049   225.2109 </r>
       <r>    -1.5756    25.6662   226.6524 </r>
       <r>    -1.5194    40.0717   228.9029 </r>
       <r>    -1.4633    37.3364   230.9999 </r>
       <r>    -1.4071    15.9633   231.8966 </r>
       <r>    -1.3509    22.3916   233.1541 </r>
       <r>    -1.2948    51.9540   236.0720 </r>
       <r>    -1.2386    46.1808   238.6657 </r>
       <r>    -1.1825    18.6200   239.7115 </r>
       <r>    -1.1263    51.4228   242.5998 </r>
       <r>    -1.0701    32.4187   244.4207 </r>
       <r>    -1.0140    10.3837   245.0039 </r>
       <r>    -0.9578    26.3639   246.4846 </r>
       <r>    -0.9016    15.3028   247.3442 </r>
       <r>    -0.8455    41.7996   249.6919 </r>
       <r>    -0.7893    14.9853   250.5335 </r>
       <r>    -0.7331    43.7331   252.9897 </r>
       <r>    -0.6770    23.0397   254.2838 </r>
       <r>    -0.6208     6.8179   254.6667 </r>
       <r>    -0.5647    14.8564   255.5011 </r>
       <r>    -0.5085    24.3531   256.8689 </r>
       <r>    -0.4523    31.6575   258.6468 </r>
       <r>    -0.3962    20.7753   259.8137 </r>
       <r>    -0.3400    44.9294   262.3370 </r>
       <r>    -0.2838    29.5703   263.9978 </r>
       <r>    -0.2277     0.3506   264.0175 </r>
       <r>    -0.1715     6.9392   264.4072 </r>
       <r>    -0.1154    21.9243   265.6386 </r>
       <r>    -0.0592    32.4880   267.4632 </r>
       <r>    -0.0030    20.7629   268.6296 </r>
       <r>     0.0531     9.8797   269.1845 </r>
       <r>     0.1093    20.2168   270.3200 </r>
       <r>     0.1655    23.8806   271.6612 </r>
       <r>     0.2216    43.1287   274.0834 </r>
       <r>     0.2778    51.3411   276.9669 </r>
       <r>     0.3340    30.2640   278.6667 </r>
       <r>     0.3901    39.3613   280.8773 </r>
       <r>     0.4463    68.0549   284.6996 </r>
       <r>     0.5024    39.3156   286.9077 </r>
       <r>     0.5586    69.8619   290.8315 </r>
       <r>     0.6148    97.9212   296.3312 </r>
       <r>     0.6709    71.8924   300.3689 </r>
       <r>     0.7271    93.7588   305.6347 </r>
       <r>     0.7833    95.6342   311.0058 </r>
       <r>     0.8394    84.7598   315.7662 </r>
       <r>     0.8956    55.3108   318.8727 </r>
       <r>     0.9518    61.8395   322.3458 </r>
       <r>     1.0079    71.1109   326.3396 </r>
       <r>     1.0641   104.2703   332.1959 </r>
       <r>     1.1202    98.3362   337.7189 </r>
       <r>     1.1764   100.9958   343.3913 </r>
       <r>     1.2326    78.7050   347.8118 </r>
       <r>     1.2887    99.6733   353.4098 </r>
       <r>     1.3449    82.5001   358.0434 </r>
       <r>     1.4011    45.9917   360.6267 </r>
       <r>     1.4572    50.0450   363.4374 </r>
       <r>     1.5134    65.6795   367.1262 </r>
       <r>     1.5695    70.9928   371.1134 </r>
       <r>     1.6257   107.3810   377.1443 </r>
       <r>     1.6819    77.8422   381.5163 </r>
       <r>     1.7380    62.3417   385.0176 </r>
       <r>     1.7942   111.8837   391.3016 </r>
       <r>     1.8504    87.5168   396.2168 </r>
       <r>     1.9065   128.8754   403.4549 </r>
       <r>     1.9627    71.9424   407.4957 </r>
       <r>     2.0189   105.7657   413.4358 </r>
       <r>     2.0750    86.2636   418.2807 </r>
       <r>     2.1312   137.1286   425.9823 </r>
       <r>     2.1873    87.2374   430.8820 </r>
       <r>     2.2435    85.4065   435.6788 </r>
       <r>     2.2997   122.7384   442.5722 </r>
       <r>     2.3558    41.8489   444.9226 </r>
       <r>     2.4120    75.4934   449.1626 </r>
       <r>     2.4682    76.9802   453.4860 </r>
       <r>     2.5243   105.3465   459.4027 </r>
       <r>     2.5805   106.8512   465.4039 </r>
       <r>     2.6366    39.2892   467.6106 </r>
       <r>     2.6928    91.8102   472.7669 </r>
       <r>     2.7490   109.3564   478.9088 </r>
       <r>     2.8051    69.0059   482.7844 </r>
       <r>     2.8613    53.9322   485.8134 </r>
       <r>     2.9175    91.6507   490.9610 </r>
       <r>     2.9736    85.0487   495.7376 </r>
       <r>     3.0298    65.6540   499.4250 </r>
       <r>     3.0860    98.7697   504.9722 </r>
       <r>     3.1421    55.1431   508.0694 </r>
       <r>     3.1983    60.1672   511.4486 </r>
       <r>     3.2544    73.0674   515.5523 </r>
       <r>     3.3106    64.5952   519.1802 </r>
       <r>     3.3668    52.0057   522.1010 </r>
       <r>     3.4229    23.5280   523.4224 </r>
       <r>     3.4791    78.8658   527.8517 </r>
       <r>     3.5353    76.4486   532.1455 </r>
       <r>     3.5914    74.3043   536.3187 </r>
       <r>     3.6476    79.2050   540.7673 </r>
       <r>     3.7038    38.3770   542.9229 </r>
       <r>     3.7599    41.5423   545.2561 </r>
       <r>     3.8161    55.3720   548.3659 </r>
       <r>     3.8722    59.4655   551.7058 </r>
       <r>     3.9284    42.4562   554.0903 </r>
       <r>     3.9846    34.8875   556.0497 </r>
       <r>     4.0407    45.7333   558.6182 </r>
       <r>     4.0969    49.0519   561.3732 </r>
       <r>     4.1531    33.9358   563.2792 </r>
       <r>     4.2092    12.3685   563.9738 </r>
       <r>     4.2654    23.6119   565.3000 </r>
       <r>     4.3215    12.4884   566.0014 </r>
       <r>     4.3777    22.0645   567.2406 </r>
       <r>     4.4339    39.6755   569.4689 </r>
       <r>     4.4900    27.2527   570.9995 </r>
       <r>     4.5462     0.0093   571.0000 </r>
       <r>     4.6024     5.9341   571.3333 </r>
       <r>     4.6585    33.1525   573.1954 </r>
       <r>     4.7147     7.4373   573.6131 </r>
       <r>     4.7709    24.6944   575.0000 </r>
       <r>     4.8270     0.0000   575.0000 </r>
       <r>     4.8832     0.0000   575.0000 </r>
       <r>     4.9393     0.0000   575.0000 </r>
       <r>     4.9955     0.0000   575.0000 </r>
       <r>     5.0517     0.8465   575.0475 </r>
       <r>     5.1078    59.0268   578.3627 </r>
       <r>     5.1640    43.6990   580.8171 </r>
       <r>     5.2202    10.4338   581.4031 </r>
       <r>     5.2763    22.9504   582.6920 </r>
       <r>     5.3325    26.2320   584.1653 </r>
       <r>     5.3886    52.7410   587.1275 </r>
       <r>     5.4448    24.5477   588.5061 </r>
       <r>     5.5010    17.3153   589.4786 </r>
       <r>     5.5571    33.8361   591.3790 </r>
       <r>     5.6133    60.1604   594.7578 </r>
       <r>     5.6695    57.3146   597.9770 </r>
       <r>     5.7256    70.8632   601.9569 </r>
       <r>     5.7818    29.9245   603.6376 </r>
       <r>     5.8380    36.1208   605.6662 </r>
       <r>     5.8941    47.8192   608.3519 </r>
       <r>     5.9503    52.6137   611.3069 </r>
       <r>     6.0064    51.4591   614.1972 </r>
       <r>     6.0626    42.1045   616.5619 </r>
       <r>     6.1188    26.4111   618.0452 </r>
       <r>     6.1749    41.5689   620.3799 </r>
       <r>     6.2311    81.1101   624.9354 </r>
       <r>     6.2873    79.7729   629.4157 </r>
       <r>     6.3434    88.7506   634.4004 </r>
       <r>     6.3996    49.9779   637.2073 </r>
       <r>     6.4558    58.4147   640.4880 </r>
       <r>     6.5119    62.7502   644.0123 </r>
       <r>     6.5681    79.0046   648.4495 </r>
       <r>     6.6242    79.7771   652.9300 </r>
       <r>     6.6804    77.9575   657.3084 </r>
       <r>     6.7366    61.0841   660.7391 </r>
       <r>     6.7927    86.4677   665.5954 </r>
       <r>     6.8489   100.2674   671.2267 </r>
       <r>     6.9051    68.0547   675.0489 </r>
       <r>     6.9612   102.3479   680.7972 </r>
       <r>     7.0174    86.3463   685.6470 </r>
       <r>     7.0735    81.3849   690.2178 </r>
       <r>     7.1297    25.0861   691.6267 </r>
       <r>     7.1859     6.6464   692.0000 </r>
       <r>     7.2420     0.0000   692.0000 </r>
       <r>     7.2982     0.0000   692.0000 </r>
       <r>     7.3544     0.0000   692.0000 </r>
       <r>     7.4105     0.0000   692.0000 </r>
       <r>     7.4667     0.0000   692.0000 </r>
       <r>     7.5229     0.0000   692.0000 </r>
       <r>     7.5790     0.0000   692.0000 </r>
       <r>     7.6352     0.0000   692.0000 </r>
       <r>     7.6913     0.0000   692.0000 </r>
       <r>     7.7475     0.0000   692.0000 </r>
       <r>     7.8037     0.0000   692.0000 </r>
       <r>     7.8598     0.0000   692.0000 </r>
       <r>     7.9160     0.0000   692.0000 </r>
      </set>
     </set>
    </array>
   </total>
  </dos>
 </calculation>
 <structure name="finalpos" >
  <crystal>
   <varray name="basis" >
    <v>       9.49163842       0.00000000       0.00000000 </v>
    <v>       0.00000000      13.42320379       0.00000000 </v>
    <v>       0.00000000       0.00000000      24.09292386 </v>
   </varray>
   <i name="volume">   3069.63598605 </i>
   <varray name="rec_basis" >
    <v>       0.10535589       0.00000000       0.00000000 </v>
    <v>       0.00000000       0.07449786       0.00000000 </v>
    <v>       0.00000000       0.00000000       0.04150596 </v>
   </varray>
  </crystal>
  <varray name="positions" >
   <v>       0.00000000       0.00000000       0.00000000 </v>
   <v>       0.00000000       0.75000000       0.08041667 </v>
   <v>       0.00000000       0.50000000       0.16083333 </v>
   <v>       0.00000000       0.25000000       0.24124999 </v>
   <v>       0.00000000       0.00000000       0.32166666 </v>
   <v>       0.00000000       0.75000000       0.40208332 </v>
   <v>       0.33333333       0.33333333       0.00000000 </v>
   <v>       0.33333333       0.08333333       0.08041667 </v>
   <v>       0.33333333       0.83333333       0.16083333 </v>
   <v>       0.33333333       0.58333333       0.24124999 </v>
   <v>       0.33333333       0.33333333       0.32166666 </v>
   <v>       0.33333333       0.08333333       0.40208332 </v>
   <v>       0.12588652       0.06704261       0.90868688 </v>
   <v>       0.66666667       0.41666667       0.08041667 </v>
   <v>       0.66666667       0.16666667       0.16083333 </v>
   <v>       0.66666667       0.91666667       0.24124999 </v>
   <v>       0.66666667       0.66666667       0.32166666 </v>
   <v>       0.12588652       0.81704261       0.49339644 </v>
   <v>       0.37588652       0.06704261       0.90868688 </v>
   <v>       0.00000000       0.25000000       0.08041667 </v>
   <v>       0.00000000       0.00000000       0.16083333 </v>
   <v>       0.00000000       0.75000000       0.24124999 </v>
   <v>       0.00000000       0.50000000       0.32166666 </v>
   <v>       0.37588652       0.81704261       0.49339644 </v>
   <v>       0.79255319       0.15037594       0.82562879 </v>
   <v>       0.33333333       0.58333333       0.08041667 </v>
   <v>       0.33333333       0.33333333       0.16083333 </v>
   <v>       0.33333333       0.08333333       0.24124999 </v>
   <v>       0.33333333       0.83333333       0.32166666 </v>
   <v>       0.79255319       0.90037594       0.57645453 </v>
   <v>       0.79255319       0.40037594       0.90868688 </v>
   <v>       0.66666667       0.91666667       0.08041667 </v>
   <v>       0.66666667       0.66666667       0.16083333 </v>
   <v>       0.66666667       0.41666667       0.24124999 </v>
   <v>       0.66666667       0.16666667       0.32166666 </v>
   <v>       0.79255319       0.15037594       0.49339644 </v>
   <v>       0.08333333       0.33333333       0.00000000 </v>
   <v>       0.08333333       0.08333333       0.08041667 </v>
   <v>       0.08333333       0.83333333       0.16083333 </v>
   <v>       0.08333333       0.58333333       0.24124999 </v>
   <v>       0.08333333       0.33333333       0.32166666 </v>
   <v>       0.08333333       0.08333333       0.40208332 </v>
   <v>       0.41666667       0.66666667       0.00000000 </v>
   <v>       0.41666667       0.41666667       0.08041667 </v>
   <v>       0.41666667       0.16666667       0.16083333 </v>
   <v>       0.41666667       0.91666667       0.24124999 </v>
   <v>       0.04255319       0.15037594       0.49339644 </v>
   <v>       0.41666667       0.41666667       0.40208332 </v>
   <v>       0.75000000       0.00000000       0.00000000 </v>
   <v>       0.75000000       0.75000000       0.08041667 </v>
   <v>       0.75000000       0.50000000       0.16083333 </v>
   <v>       0.75000000       0.25000000       0.24124999 </v>
   <v>       0.75000000       0.00000000       0.32166666 </v>
   <v>       0.75000000       0.75000000       0.40208332 </v>
   <v>       0.08333333       0.83333333       0.00000000 </v>
   <v>       0.08333333       0.58333333       0.08041667 </v>
   <v>       0.12588652       0.56704261       0.90868688 </v>
   <v>       0.12588652       0.31704261       0.49339644 </v>
   <v>       0.08333333       0.83333333       0.32166666 </v>
   <v>       0.08333333       0.58333333       0.40208332 </v>
   <v>       0.41666667       0.16666667       0.00000000 </v>
   <v>       0.04255319       0.40037594       0.90868688 </v>
   <v>       0.41666667       0.66666667       0.16083333 </v>
   <v>       0.41666667       0.41666667       0.24124999 </v>
   <v>       0.41666667       0.16666667       0.32166666 </v>
   <v>       0.41666667       0.91666667       0.40208332 </v>
   <v>       0.75000000       0.50000000       0.00000000 </v>
   <v>       0.75000000       0.25000000       0.08041667 </v>
   <v>       0.75000000       0.00000000       0.16083333 </v>
   <v>       0.75000000       0.75000000       0.24124999 </v>
   <v>       0.75000000       0.50000000       0.32166666 </v>
   <v>       0.75000000       0.25000000       0.40208332 </v>
   <v>       0.41666667       0.66666667       0.32166666 </v>
   <v>       0.04255319       0.40037594       0.57645453 </v>
   <v>       0.04255319       0.65037594       0.65951262 </v>
   <v>       0.04255319       0.90037594       0.74257071 </v>
   <v>       0.04255319       0.15037594       0.82562879 </v>
   <v>       0.41666667       0.91666667       0.08041667 </v>
   <v>       0.00000000       0.25000000       0.40208332 </v>
   <v>       0.37588652       0.06704261       0.57645453 </v>
   <v>       0.37588652       0.31704261       0.65951262 </v>
   <v>       0.37588652       0.56704261       0.74257071 </v>
   <v>       0.37588652       0.81704261       0.82562879 </v>
   <v>       0.00000000       0.50000000       0.00000000 </v>
   <v>       0.70921986       0.48370927       0.49339644 </v>
   <v>       0.70921986       0.73370927       0.57645453 </v>
   <v>       0.70921986       0.98370927       0.65951262 </v>
   <v>       0.70921986       0.23370927       0.74257071 </v>
   <v>       0.70921986       0.48370927       0.82562879 </v>
   <v>       0.70921986       0.73370927       0.90868688 </v>
   <v>       0.04255319       0.65037594       0.49339644 </v>
   <v>       0.04255319       0.90037594       0.57645453 </v>
   <v>       0.04255319       0.15037594       0.65951262 </v>
   <v>       0.04255319       0.40037594       0.74257071 </v>
   <v>       0.04255319       0.65037594       0.82562879 </v>
   <v>       0.04255319       0.90037594       0.90868688 </v>
   <v>       0.37588652       0.31704261       0.49339644 </v>
   <v>       0.37588652       0.56704261       0.57645453 </v>
   <v>       0.37588652       0.81704261       0.65951262 </v>
   <v>       0.37588652       0.06704261       0.74257071 </v>
   <v>       0.37588652       0.31704261       0.82562879 </v>
   <v>       0.37588652       0.56704261       0.90868688 </v>
   <v>       0.70921986       0.98370927       0.49339644 </v>
   <v>       0.70921986       0.23370927       0.57645453 </v>
   <v>       0.70921986       0.48370927       0.65951262 </v>
   <v>       0.70921986       0.73370927       0.74257071 </v>
   <v>       0.70921986       0.98370927       0.82562879 </v>
   <v>       0.70921986       0.23370927       0.90868688 </v>
   <v>       0.66666667       0.41666667       0.40208332 </v>
   <v>       0.12588652       0.06704261       0.57645453 </v>
   <v>       0.12588652       0.31704261       0.65951262 </v>
   <v>       0.12588652       0.56704261       0.74257071 </v>
   <v>       0.12588652       0.81704261       0.82562879 </v>
   <v>       0.66666667       0.66666667       0.00000000 </v>
   <v>       0.45921986       0.48370927       0.49339644 </v>
   <v>       0.45921986       0.73370927       0.57645453 </v>
   <v>       0.45921986       0.98370927       0.65951262 </v>
   <v>       0.45921986       0.23370927       0.74257071 </v>
   <v>       0.45921986       0.48370927       0.82562879 </v>
   <v>       0.45921986       0.73370927       0.90868688 </v>
   <v>       0.66666667       0.91666667       0.40208332 </v>
   <v>       0.79255319       0.40037594       0.57645453 </v>
   <v>       0.79255319       0.65037594       0.65951262 </v>
   <v>       0.79255319       0.90037594       0.74257071 </v>
   <v>       0.33333333       0.83333333       0.00000000 </v>
   <v>       0.66666667       0.16666667       0.00000000 </v>
   <v>       0.08333333       0.08333333       0.24124999 </v>
   <v>       0.12588652       0.56704261       0.57645453 </v>
   <v>       0.12588652       0.81704261       0.65951262 </v>
   <v>       0.12588652       0.06704261       0.74257071 </v>
   <v>       0.12588652       0.31704261       0.82562879 </v>
   <v>       0.08333333       0.33333333       0.16083333 </v>
   <v>       0.45921986       0.98370927       0.49339644 </v>
   <v>       0.45921986       0.23370927       0.57645453 </v>
   <v>       0.45921986       0.48370927       0.65951262 </v>
   <v>       0.45921986       0.73370927       0.74257071 </v>
   <v>       0.45921986       0.98370927       0.82562879 </v>
   <v>       0.45921986       0.23370927       0.90868688 </v>
   <v>       0.79255319       0.65037594       0.49339644 </v>
   <v>       0.33333333       0.58333333       0.40208332 </v>
   <v>       0.79255319       0.15037594       0.65951262 </v>
   <v>       0.79255319       0.40037594       0.74257071 </v>
   <v>       0.79255319       0.65037594       0.82562879 </v>
   <v>       0.79255319       0.90037594       0.90868688 </v>
  </varray>
 </structure>
</modeling>
