       N       E                     dE             d eps       ncg     rms          rms(c)
DAV:   1     0.729049888552E+04    0.72905E+04   -0.47425E+05 20352   0.173E+03
DAV:   2     0.175368015307E+04   -0.55368E+04   -0.53253E+04 23968   0.221E+02
DAV:   3     0.110018459526E+04   -0.65350E+03   -0.61364E+03 28392   0.641E+01
DAV:   4     0.104387117012E+04   -0.56313E+02   -0.53179E+02 32352   0.182E+01
DAV:   5     0.104041037233E+04   -0.34608E+01   -0.33497E+01 32448   0.412E+00    0.967E+02
DAV:   6     0.839207044186E+03   -0.20120E+03   -0.41825E+03 30000   0.652E+01    0.182E+02
DAV:   7     0.215894995536E+03   -0.62331E+03   -0.92667E+03 38384   0.817E+01    0.493E+02
DAV:   8     0.130562547354E+04    0.10897E+04   -0.37341E+03 29752   0.733E+01    0.365E+02
DAV:   9     0.126692340239E+04   -0.38702E+02   -0.15945E+03 28488   0.348E+01    0.191E+02
DAV:  10     0.124191285445E+04   -0.25011E+02   -0.22412E+02 26744   0.145E+01    0.496E+01
DAV:  11     0.122490730220E+04   -0.17006E+02   -0.90948E+01 27544   0.190E+01    0.112E+02
DAV:  12     0.123798678769E+04    0.13079E+02   -0.60864E+01 24976   0.647E+00    0.106E+02
DAV:  13     0.124626334409E+04    0.82766E+01   -0.14216E+01 26992   0.361E+00    0.951E+01
DAV:  14     0.124545623992E+04   -0.80710E+00   -0.57111E+00 30336   0.175E+00    0.133E+02
DAV:  15     0.125640222733E+04    0.10946E+02   -0.95449E+00 28080   0.455E+00    0.733E+01
DAV:  16     0.126505708255E+04    0.86549E+01   -0.40956E+01 26992   0.434E+00    0.447E+01
DAV:  17     0.126197292694E+04   -0.30842E+01   -0.47651E+01 30328   0.437E+00    0.558E+01
DAV:  18     0.125829118879E+04   -0.36817E+01   -0.72549E+00 24040   0.284E+00    0.622E+01
DAV:  19     0.126226589293E+04    0.39747E+01   -0.46788E+00 24328   0.269E+00    0.484E+01
DAV:  20     0.126663509159E+04    0.43692E+01   -0.31136E+01 28080   0.383E+00    0.362E+01
DAV:  21     0.126813189653E+04    0.14968E+01   -0.69828E+00 23100   0.242E+00    0.412E+01
DAV:  22     0.126982730683E+04    0.16954E+01   -0.55652E+00 25096   0.181E+00    0.496E+01
DAV:  23     0.127018009921E+04    0.35279E+00   -0.97885E-01 26280   0.823E-01    0.525E+01
DAV:  24     0.127019121715E+04    0.11118E-01   -0.23738E-01 24792   0.400E-01    0.543E+01
DAV:  25     0.127007962896E+04   -0.11159E+00   -0.24000E-01 26448   0.372E-01    0.550E+01
DAV:  26     0.126998535117E+04   -0.94278E-01   -0.17547E-01 27888   0.332E-01    0.545E+01
DAV:  27     0.126961662732E+04   -0.36872E+00   -0.23146E-01 28224   0.400E-01    0.548E+01
DAV:  28     0.126918858847E+04   -0.42804E+00   -0.22093E-01 27312   0.417E-01    0.543E+01
DAV:  29     0.126901779751E+04   -0.17079E+00   -0.22021E-01 25096   0.471E-01    0.546E+01
DAV:  30     0.126901522868E+04   -0.25688E-02   -0.86436E-02 27024   0.205E-01    0.550E+01
DAV:  31     0.126877816508E+04   -0.23706E+00   -0.30638E-01 25848   0.607E-01    0.515E+01
DAV:  32     0.126731811818E+04   -0.14600E+01   -0.26041E+00 28256   0.896E-01    0.496E+01
DAV:  33     0.126721224886E+04   -0.10587E+00   -0.53222E-01 28760   0.520E-01    0.462E+01
DAV:  34     0.126669304333E+04   -0.51921E+00   -0.11813E-01 31488   0.276E-01    0.465E+01
DAV:  35     0.126620549345E+04   -0.48755E+00   -0.33534E-01 27592   0.364E-01    0.457E+01
DAV:  36     0.126763962414E+04    0.14341E+01   -0.52180E-01 25848   0.650E-01    0.405E+01
DAV:  37     0.127016643250E+04    0.25268E+01   -0.48799E+00 30864   0.145E+00    0.415E+01
DAV:  38     0.127020008015E+04    0.33648E-01   -0.90209E-01 27888   0.724E-01    0.435E+01
DAV:  39     0.127033790115E+04    0.13782E+00   -0.13509E-01 30392   0.252E-01    0.425E+01
DAV:  40     0.127012262745E+04   -0.21527E+00   -0.83150E-01 30728   0.516E-01    0.428E+01
DAV:  41     0.126993638824E+04   -0.18624E+00   -0.20529E-01 29008   0.328E-01    0.423E+01
DAV:  42     0.127001078009E+04    0.74392E-01   -0.28986E-02 27920   0.132E-01    0.420E+01
DAV:  43     0.127038344081E+04    0.37266E+00   -0.37051E-01 30864   0.389E-01    0.415E+01
DAV:  44     0.127036774756E+04   -0.15693E-01   -0.78715E-02 28672   0.207E-01    0.413E+01
DAV:  45     0.127038105939E+04    0.13312E-01   -0.29294E-02 29328   0.137E-01    0.428E+01
DAV:  46     0.127045028455E+04    0.69225E-01   -0.12077E-01 25312   0.261E-01    0.445E+01
DAV:  47     0.127044150290E+04   -0.87816E-02   -0.50471E-02 27296   0.143E-01    0.443E+01
DAV:  48     0.127055683615E+04    0.11533E+00   -0.79959E-02 27232   0.186E-01    0.457E+01
DAV:  49     0.127057037727E+04    0.13541E-01   -0.36909E-02 26560   0.123E-01    0.451E+01
DAV:  50     0.127056640253E+04   -0.39747E-02   -0.93614E-03 26472   0.724E-02    0.456E+01
DAV:  51     0.126215380192E+04   -0.84126E+01   -0.17580E+01 30632   0.206E+00    0.632E+01
DAV:  52     0.126379841718E+04    0.16446E+01   -0.41655E+00 23216   0.147E+00    0.657E+01
DAV:  53     0.126371536791E+04   -0.83049E-01   -0.46406E-01 32648   0.394E-01    0.665E+01
DAV:  54     0.126563634190E+04    0.19210E+01   -0.99376E-01 30520   0.632E-01    0.609E+01
DAV:  55     0.126619039783E+04    0.55406E+00   -0.23984E-01 28368   0.339E-01    0.585E+01
DAV:  56     0.127022488705E+04    0.40345E+01   -0.28966E+01 30696   0.327E+00    0.315E+01
DAV:  57     0.126989471304E+04   -0.33017E+00   -0.51733E+00 24388   0.181E+00    0.316E+01
DAV:  58     0.126986365179E+04   -0.31061E-01   -0.67719E-01 27800   0.630E-01    0.293E+01
DAV:  59     0.126974325395E+04   -0.12040E+00   -0.24904E-01 26800   0.395E-01    0.271E+01
DAV:  60     0.126965543928E+04   -0.87815E-01   -0.26008E-01 27512   0.351E-01    0.252E+01
DAV:  61     0.127002266298E+04    0.36722E+00   -0.24352E+00 25408   0.135E+00    0.346E+01
DAV:  62     0.127003600955E+04    0.13347E-01   -0.58068E-01 27392   0.546E-01    0.400E+01
DAV:  63     0.127052775182E+04    0.49174E+00   -0.10277E+00 27400   0.655E-01    0.350E+01
DAV:  64     0.127021613734E+04   -0.31161E+00   -0.10241E+00 28960   0.729E-01    0.350E+01
DAV:  65     0.126913497371E+04   -0.10812E+01   -0.28593E+00 30624   0.103E+00    0.366E+01
DAV:  66     0.126941796291E+04    0.28299E+00   -0.61264E-01 24792   0.699E-01    0.374E+01
DAV:  67     0.126918511026E+04   -0.23285E+00   -0.44787E-01 26808   0.521E-01    0.347E+01
DAV:  68     0.126915266733E+04   -0.32443E-01   -0.18978E-01 26856   0.381E-01    0.341E+01
DAV:  69     0.126920474721E+04    0.52080E-01   -0.87633E-02 26976   0.235E-01    0.359E+01
DAV:  70     0.126923536586E+04    0.30619E-01   -0.15242E-02 26160   0.112E-01    0.349E+01
DAV:  71     0.126835705068E+04   -0.87832E+00   -0.55564E-01 26136   0.585E-01    0.399E+01
DAV:  72     0.126754726506E+04   -0.80979E+00   -0.51024E-01 30200   0.467E-01    0.414E+01
DAV:  73     0.126736031141E+04   -0.18695E+00   -0.10543E-01 30240   0.238E-01    0.416E+01
DAV:  74     0.126781616677E+04    0.45586E+00   -0.56362E-02 27424   0.211E-01    0.404E+01
DAV:  75     0.126816837486E+04    0.35221E+00   -0.62213E-02 28600   0.165E-01    0.399E+01
DAV:  76     0.127037707576E+04    0.22087E+01   -0.29274E+00 31520   0.105E+00    0.343E+01
DAV:  77     0.127017168162E+04   -0.20539E+00   -0.45471E-01 25184   0.663E-01    0.336E+01
DAV:  78     0.127009904480E+04   -0.72637E-01   -0.11722E-01 26280   0.266E-01    0.330E+01
DAV:  79     0.127027243855E+04    0.17339E+00   -0.78875E-02 26096   0.250E-01    0.339E+01
DAV:  80     0.127042504308E+04    0.15260E+00   -0.11444E-01 26744   0.284E-01    0.351E+01
DAV:  81     0.127027143994E+04   -0.15360E+00   -0.25105E-01 26720   0.463E-01    0.362E+01
DAV:  82     0.127042523476E+04    0.15379E+00   -0.13354E-01 25248   0.390E-01    0.369E+01
DAV:  83     0.127038636919E+04   -0.38866E-01   -0.50119E-02 27032   0.178E-01    0.371E+01
DAV:  84     0.127040390434E+04    0.17535E-01   -0.97139E-03 29376   0.813E-02    0.373E+01
DAV:  85     0.127038543363E+04   -0.18471E-01   -0.28214E-03 26136   0.583E-02    0.370E+01
DAV:  86     0.127073485282E+04    0.34942E+00   -0.22513E+00 27488   0.109E+00    0.338E+01
DAV:  87     0.127102005536E+04    0.28520E+00   -0.79264E-01 23960   0.943E-01    0.285E+01
DAV:  88     0.127093840140E+04   -0.81654E-01   -0.39302E-01 25928   0.521E-01    0.328E+01
DAV:  89     0.127085575569E+04   -0.82646E-01   -0.23311E-01 26880   0.344E-01    0.364E+01
DAV:  90     0.127091294033E+04    0.57185E-01   -0.47602E-02 25024   0.215E-01    0.367E+01
DAV:  91     0.127049936600E+04   -0.41357E+00   -0.13524E+00 26496   0.109E+00    0.479E+01
DAV:  92     0.127099918321E+04    0.49982E+00   -0.88434E-01 24640   0.103E+00    0.468E+01
DAV:  93     0.127095564846E+04   -0.43535E-01   -0.38057E-01 26792   0.375E-01    0.499E+01
DAV:  94     0.127099106990E+04    0.35421E-01   -0.90546E-02 26488   0.273E-01    0.494E+01
DAV:  95     0.127100361842E+04    0.12549E-01   -0.43824E-02 25920   0.172E-01    0.472E+01
DAV:  96     0.127081187141E+04   -0.19175E+00   -0.49175E-01 26960   0.519E-01    0.487E+01
DAV:  97     0.127104672675E+04    0.23486E+00   -0.26399E-01 23168   0.507E-01    0.433E+01
DAV:  98     0.127104092058E+04   -0.58062E-02   -0.98000E-02 27352   0.184E-01    0.423E+01
DAV:  99     0.127102841488E+04   -0.12506E-01   -0.45368E-02 25288   0.220E-01    0.418E+01
DAV: 100     0.127103088257E+04    0.24677E-02   -0.30873E-02 25480   0.168E-01
   1 F= 0.12710309E+04 E0= 0.12710342E+04  d E =-.659691E-02  mag=     1.0000
