Si and Ge interface calculation         
           1
    13.303180    0.000000    0.000000
     6.651589   14.873406    0.000000
     0.000000    0.000000    8.390059
   Si   C 
    36    84
Direct configuration=     1
   0.98290563  0.65811950  0.00000000
   0.78290558  0.55811930  0.14474380
   0.58290541  0.45811909  0.28948760
   0.98290563  0.32478613  0.00000000
   0.78290558  0.22478597  0.14474380
   0.58290541  0.12478580  0.28948760
   0.98290563  0.99145281  0.00000000
   0.78290558  0.89145267  0.14474380
   0.58290541  0.79145253  0.28948760
   0.63290566  0.69145268  0.07237174
   0.43290559  0.59145248  0.21711555
   0.23290552  0.49145243  0.36185935
   0.63290566  0.35811943  0.07237174
   0.43290559  0.25811928  0.21711555
   0.23290552  0.15811914  0.36185935
   0.63290566  0.02478614  0.07237174
   0.43290559  0.92478597  0.21711555
   0.23290552  0.82478583  0.36185935
   0.48290563  0.65811950  0.00000000
   0.28290555  0.55811930  0.14474380
   0.08290544  0.45811909  0.28948760
   0.48290563  0.32478613  0.00000000
   0.28290555  0.22478595  0.14474380
   0.08290544  0.12478581  0.28948760
   0.48290563  0.99145281  0.00000000
   0.28290555  0.89145267  0.14474380
   0.08290544  0.79145253  0.28948760
   0.13290568  0.69145274  0.07237176
   0.93290555  0.59145248  0.21711555
   0.73290551  0.49145240  0.36185935
   0.13290568  0.35811949  0.07237176
   0.93290555  0.25811928  0.21711555
   0.73290551  0.15811913  0.36185935
   0.13290568  0.02478614  0.07237176
   0.93290555  0.92478597  0.21711555
   0.73290551  0.82478583  0.36185935
   0.36071706  0.13884527  0.56210440
   0.33214545  0.41027388  0.65716469
   0.30357385  0.68170250  0.75222492
   0.50357413  0.28170240  0.56210440
   0.47500256  0.55313104  0.65716469
   0.44643104  0.82455969  0.75222492
   0.64643127  0.42455956  0.56210440
   0.61785972  0.69598818  0.65716469
   0.58928818  0.96741688  0.75222492
   0.78928840  0.56741673  0.56210440
   0.76071686  0.83884537  0.65716469
   0.73214531  0.11027408  0.75222492
   0.93214554  0.71027386  0.56210440
   0.90357393  0.98170245  0.65716469
   0.87500238  0.25313109  0.75222492
   0.07500267  0.85313094  0.56210440
   0.04643107  0.12455959  0.65716469
   0.01785958  0.39598817  0.75222492
   0.21785986  0.99598819  0.56210440
   0.18928838  0.26741678  0.65716469
   0.16071665  0.53884536  0.75222492
   0.45357415  0.88170224  0.60963446
   0.42500261  0.15313083  0.70469469
   0.39643112  0.42455953  0.79975492
   0.59643125  0.02455950  0.60963446
   0.56785971  0.29598814  0.70469469
   0.53928816  0.56741685  0.79975492
   0.73928845  0.16741663  0.60963446
   0.71071684  0.43884534  0.70469469
   0.68214524  0.71027392  0.79975486
   0.88214552  0.31027371  0.60963446
   0.85357404  0.58170235  0.70469469
   0.82500237  0.85313088  0.79975486
   0.02500272  0.45313099  0.60963446
   0.99643111  0.72455961  0.70469469
   0.96785957  0.99598825  0.79975486
   0.16785979  0.59598810  0.60963446
   0.13928819  0.86741674  0.70469469
   0.11071682  0.13884538  0.79975492
   0.31071699  0.73884523  0.60963446
   0.28214550  0.01027393  0.70469469
   0.25357390  0.28170234  0.79975486
   0.43214551  0.71027380  0.56210440
   0.40357399  0.98170245  0.65716469
   0.37500241  0.25313109  0.75222492
   0.57500267  0.85313094  0.56210440
   0.54643112  0.12455959  0.65716469
   0.51785964  0.39598829  0.75222492
   0.71785986  0.99598807  0.56210440
   0.68928838  0.26741678  0.65716469
   0.66071671  0.53884536  0.75222486
   0.86071700  0.13884527  0.56210440
   0.83214539  0.41027388  0.65716469
   0.80357385  0.68170250  0.75222492
   0.00357413  0.28170234  0.56210440
   0.97500259  0.55313098  0.65716469
   0.94643104  0.82455963  0.75222492
   0.14643133  0.42455956  0.56210440
   0.11785972  0.69598818  0.65716469
   0.08928823  0.96741682  0.75222492
   0.28928852  0.56741667  0.56210440
   0.26071692  0.83884531  0.65716469
   0.23214531  0.11027396  0.75222492
   0.38214555  0.31027374  0.60963446
   0.35357404  0.58170235  0.70469469
   0.32500243  0.85313100  0.79975486
   0.52500272  0.45313078  0.60963446
   0.49643117  0.72455943  0.70469469
   0.46785963  0.99598801  0.79975486
   0.66785979  0.59598810  0.60963446
   0.63928831  0.86741668  0.70469469
   0.61071670  0.13884527  0.79975492
   0.81071699  0.73884517  0.60963446
   0.78214538  0.01027381  0.70469469
   0.75357390  0.28170234  0.79975492
   0.95357406  0.88170219  0.60963446
   0.92500258  0.15313083  0.70469469
   0.89643103  0.42455953  0.79975492
   0.09643125  0.02455950  0.60963446
   0.06785965  0.29598814  0.70469469
   0.03928804  0.56741661  0.79975492
   0.23928833  0.16741651  0.60963446
   0.21071672  0.43884510  0.70469469
   0.18214512  0.71027368  0.79975486
