 120 120   0   0
  0.2190039E+02  0.7680595E-09  0.1629300E-08  0.2100086E-08  0.5000000E-15
  1.000000000000000E-004
  CAR 
 Si and Ge interface calculation         
      7.78747465     -8.58006590  301      4.75945595      1.00000000
     -8.580  0.0000E+00  0.0000E+00  0.0000E+00  0.0000E+00
     -8.526  0.0000E+00  0.0000E+00  0.0000E+00  0.0000E+00
     -8.471  0.0000E+00  0.0000E+00  0.0000E+00  0.0000E+00
     -8.416  0.0000E+00  0.0000E+00  0.0000E+00  0.0000E+00
     -8.362  0.0000E+00  0.0000E+00  0.0000E+00  0.0000E+00
     -8.307  0.0000E+00  0.0000E+00  0.0000E+00  0.0000E+00
     -8.253  0.0000E+00  0.0000E+00  0.0000E+00  0.0000E+00
     -8.198  0.0000E+00  0.0000E+00  0.0000E+00  0.0000E+00
     -8.144  0.0000E+00  0.0000E+00  0.0000E+00  0.0000E+00
     -8.089  0.0000E+00  0.0000E+00  0.0000E+00  0.0000E+00
     -8.034  0.0000E+00  0.0000E+00  0.0000E+00  0.0000E+00
     -7.980  0.0000E+00  0.0000E+00  0.0000E+00  0.0000E+00
     -7.925  0.0000E+00  0.0000E+00  0.0000E+00  0.0000E+00
     -7.871  0.2087E-05  0.1294E-07  0.1138E-06  0.7059E-09
     -7.816  0.4571E+01  0.4447E+01  0.2494E+00  0.2426E+00
     -7.762  0.1151E-01  0.1350E+00  0.2500E+00  0.2500E+00
     -7.707  0.1011E+02  0.9079E+01  0.8014E+00  0.7453E+00
     -7.653  0.8222E+01  0.9250E+01  0.1250E+01  0.1250E+01
     -7.598  0.6712E+01  0.4699E+01  0.1616E+01  0.1506E+01
     -7.543  0.1620E+02  0.1821E+02  0.2500E+01  0.2500E+01
     -7.489  0.9247E+01  0.7861E+01  0.3005E+01  0.2929E+01
     -7.434  0.1363E+02  0.1454E+02  0.3748E+01  0.3722E+01
     -7.380  0.5421E+01  0.4621E+01  0.4044E+01  0.3975E+01
     -7.325  0.1995E+02  0.1963E+02  0.5132E+01  0.5045E+01
     -7.271  0.1451E+02  0.1377E+02  0.5924E+01  0.5796E+01
     -7.216  0.1987E+02  0.2115E+02  0.7008E+01  0.6950E+01
     -7.162  0.2374E+02  0.2075E+02  0.8303E+01  0.8082E+01
     -7.107  0.1737E+02  0.2141E+02  0.9251E+01  0.9250E+01
     -7.052  0.1223E+02  0.9537E+01  0.9918E+01  0.9771E+01
     -6.998  0.3360E+02  0.3614E+02  0.1175E+02  0.1174E+02
     -6.943  0.1994E+02  0.1611E+02  0.1284E+02  0.1262E+02
     -6.889  0.1241E+02  0.1615E+02  0.1352E+02  0.1350E+02
     -6.834  0.2930E+02  0.2648E+02  0.1512E+02  0.1495E+02
     -6.780  0.2538E+02  0.2844E+02  0.1650E+02  0.1650E+02
     -6.725  0.9465E+01  0.8870E+01  0.1702E+02  0.1698E+02
     -6.671  0.1219E+02  0.1094E+02  0.1768E+02  0.1758E+02
     -6.616  0.3027E+02  0.3052E+02  0.1933E+02  0.1925E+02
     -6.561  0.2500E+02  0.1861E+02  0.2070E+02  0.2026E+02
     -6.507  0.5089E+02  0.5503E+02  0.2347E+02  0.2326E+02
     -6.452  0.3773E+02  0.3561E+02  0.2553E+02  0.2521E+02
     -6.398  0.2232E+02  0.2820E+02  0.2675E+02  0.2674E+02
     -6.343  0.4782E+02  0.4353E+02  0.2936E+02  0.2912E+02
     -6.289  0.3140E+02  0.3152E+02  0.3107E+02  0.3084E+02
     -6.234  0.3038E+02  0.2917E+02  0.3273E+02  0.3243E+02
     -6.179  0.4391E+02  0.4304E+02  0.3512E+02  0.3478E+02
     -6.125  0.2975E+02  0.3558E+02  0.3675E+02  0.3672E+02
     -6.070  0.2374E+02  0.2187E+02  0.3804E+02  0.3791E+02
     -6.016  0.2928E+02  0.2923E+02  0.3964E+02  0.3951E+02
     -5.961  0.3858E+02  0.3625E+02  0.4174E+02  0.4148E+02
     -5.907  0.3517E+02  0.3775E+02  0.4366E+02  0.4354E+02
     -5.852  0.3290E+02  0.2655E+02  0.4546E+02  0.4499E+02
     -5.798  0.5200E+02  0.5188E+02  0.4830E+02  0.4782E+02
     -5.743  0.3470E+02  0.3834E+02  0.5019E+02  0.4992E+02
     -5.688  0.4665E+02  0.5015E+02  0.5273E+02  0.5265E+02
     -5.634  0.3874E+02  0.3093E+02  0.5485E+02  0.5434E+02
     -5.579  0.2511E+02  0.3114E+02  0.5622E+02  0.5604E+02
     -5.525  0.3166E+02  0.3148E+02  0.5794E+02  0.5775E+02
     -5.470  0.5541E+02  0.5473E+02  0.6097E+02  0.6074E+02
     -5.416  0.3374E+02  0.3648E+02  0.6281E+02  0.6273E+02
     -5.361  0.3478E+02  0.2864E+02  0.6471E+02  0.6429E+02
     -5.307  0.3023E+02  0.3409E+02  0.6636E+02  0.6615E+02
     -5.252  0.6094E+02  0.5673E+02  0.6968E+02  0.6925E+02
     -5.197  0.3941E+02  0.3958E+02  0.7183E+02  0.7141E+02
     -5.143  0.5446E+02  0.5169E+02  0.7480E+02  0.7423E+02
     -5.088  0.5057E+02  0.5762E+02  0.7756E+02  0.7737E+02
     -5.034  0.2795E+02  0.2993E+02  0.7909E+02  0.7900E+02
     -4.979  0.3680E+02  0.3283E+02  0.8109E+02  0.8080E+02
     -4.925  0.4053E+02  0.4125E+02  0.8330E+02  0.8305E+02
     -4.870  0.4248E+02  0.4212E+02  0.8562E+02  0.8534E+02
     -4.816  0.2200E+02  0.2390E+02  0.8682E+02  0.8665E+02
     -4.761  0.5393E+02  0.5186E+02  0.8977E+02  0.8948E+02
     -4.706  0.2960E+02  0.2972E+02  0.9138E+02  0.9110E+02
     -4.652  0.5185E+02  0.5207E+02  0.9421E+02  0.9394E+02
     -4.597  0.4590E+02  0.4898E+02  0.9671E+02  0.9661E+02
     -4.543  0.2646E+02  0.2599E+02  0.9816E+02  0.9803E+02
     -4.488  0.1922E+02  0.2045E+02  0.9921E+02  0.9915E+02
     -4.434  0.1767E+02  0.1655E+02  0.1002E+03  0.1000E+03
     -4.379  0.5422E+02  0.4781E+02  0.1031E+03  0.1027E+03
     -4.325  0.3712E+02  0.4498E+02  0.1052E+03  0.1051E+03
     -4.270  0.2033E+02  0.1751E+02  0.1063E+03  0.1061E+03
     -4.215  0.2729E+02  0.3057E+02  0.1078E+03  0.1077E+03
     -4.161  0.1914E+02  0.1550E+02  0.1088E+03  0.1086E+03
     -4.106  0.1036E+02  0.1293E+02  0.1094E+03  0.1093E+03
     -4.052  0.1086E+02  0.9569E+01  0.1100E+03  0.1098E+03
     -3.997  0.2665E+02  0.2505E+02  0.1114E+03  0.1112E+03
     -3.943  0.3205E+02  0.3341E+02  0.1132E+03  0.1130E+03
     -3.888  0.1582E+02  0.1809E+02  0.1140E+03  0.1140E+03
     -3.833  0.9177E+01  0.6036E+01  0.1145E+03  0.1143E+03
     -3.779  0.2885E+02  0.2693E+02  0.1161E+03  0.1158E+03
     -3.724  0.2516E+02  0.2943E+02  0.1175E+03  0.1174E+03
     -3.670  0.2553E+01  0.2762E+01  0.1176E+03  0.1175E+03
     -3.615  0.2100E+02  0.1860E+02  0.1188E+03  0.1186E+03
     -3.561  0.1948E+02  0.1552E+02  0.1198E+03  0.1194E+03
     -3.506  0.1352E+02  0.1596E+02  0.1206E+03  0.1203E+03
     -3.452  0.1379E+02  0.1808E+02  0.1213E+03  0.1213E+03
     -3.397  0.3127E+02  0.2543E+02  0.1230E+03  0.1226E+03
     -3.342  0.1376E+02  0.2025E+02  0.1238E+03  0.1238E+03
     -3.288  0.1557E+02  0.1377E+02  0.1246E+03  0.1245E+03
     -3.233  0.1551E+02  0.1552E+02  0.1255E+03  0.1253E+03
     -3.179  0.3244E+02  0.2861E+02  0.1272E+03  0.1269E+03
     -3.124  0.2770E+02  0.3181E+02  0.1287E+03  0.1286E+03
     -3.070  0.2342E+02  0.1938E+02  0.1300E+03  0.1297E+03
     -3.015  0.6577E+01  0.1038E+02  0.1304E+03  0.1303E+03
     -2.961  0.9902E+01  0.9140E+01  0.1309E+03  0.1308E+03
     -2.906  0.3961E+02  0.2983E+02  0.1331E+03  0.1324E+03
     -2.851  0.3211E+02  0.3967E+02  0.1348E+03  0.1346E+03
     -2.797  0.4535E+02  0.4013E+02  0.1373E+03  0.1367E+03
     -2.742  0.2657E+02  0.2980E+02  0.1388E+03  0.1384E+03
     -2.688  0.5024E+02  0.5343E+02  0.1415E+03  0.1413E+03
     -2.633  0.4493E+02  0.4401E+02  0.1439E+03  0.1437E+03
     -2.579  0.4463E+02  0.4317E+02  0.1464E+03  0.1460E+03
     -2.524  0.7112E+02  0.6835E+02  0.1503E+03  0.1498E+03
     -2.470  0.6701E+02  0.6423E+02  0.1539E+03  0.1533E+03
     -2.415  0.6573E+02  0.7283E+02  0.1575E+03  0.1573E+03
     -2.360  0.5664E+02  0.5598E+02  0.1606E+03  0.1603E+03
     -2.306  0.4733E+02  0.4832E+02  0.1632E+03  0.1629E+03
     -2.251  0.4107E+02  0.4201E+02  0.1654E+03  0.1652E+03
     -2.197  0.4594E+02  0.3997E+02  0.1679E+03  0.1674E+03
     -2.142  0.5097E+02  0.5088E+02  0.1707E+03  0.1702E+03
     -2.088  0.5887E+02  0.6032E+02  0.1739E+03  0.1735E+03
     -2.033  0.4676E+02  0.4883E+02  0.1765E+03  0.1761E+03
     -1.978  0.2093E+02  0.2482E+02  0.1776E+03  0.1775E+03
     -1.924  0.3469E+02  0.3660E+02  0.1795E+03  0.1795E+03
     -1.869  0.1692E+02  0.1492E+02  0.1804E+03  0.1803E+03
     -1.815  0.1830E+02  0.1829E+02  0.1814E+03  0.1813E+03
     -1.760  0.2786E+02  0.2324E+02  0.1829E+03  0.1826E+03
     -1.706  0.4956E+02  0.4991E+02  0.1856E+03  0.1853E+03
     -1.651  0.3548E+02  0.3655E+02  0.1876E+03  0.1873E+03
     -1.597  0.6785E+02  0.6966E+02  0.1913E+03  0.1911E+03
     -1.542  0.1773E+02  0.2112E+02  0.1923E+03  0.1922E+03
     -1.487  0.1523E+02  0.1217E+02  0.1931E+03  0.1929E+03
     -1.433  0.2758E+02  0.2274E+02  0.1946E+03  0.1942E+03
     -1.378  0.3928E+02  0.3775E+02  0.1967E+03  0.1962E+03
     -1.324  0.2934E+02  0.3665E+02  0.1983E+03  0.1982E+03
     -1.269  0.2072E+02  0.1982E+02  0.1995E+03  0.1993E+03
     -1.215  0.5309E+01  0.8284E+01  0.1997E+03  0.1997E+03
     -1.160  0.8588E+01  0.6825E+01  0.2002E+03  0.2001E+03
     -1.106  0.1478E+02  0.1569E+02  0.2010E+03  0.2010E+03
     -1.051  0.2938E+02  0.2798E+02  0.2026E+03  0.2025E+03
     -0.996  0.3514E+02  0.3216E+02  0.2045E+03  0.2043E+03
     -0.942  0.1311E+02  0.1819E+02  0.2053E+03  0.2052E+03
     -0.887  0.4530E+01  0.4604E+01  0.2055E+03  0.2055E+03
     -0.833  0.1490E+02  0.1379E+02  0.2063E+03  0.2063E+03
     -0.778  0.1758E+02  0.1692E+02  0.2073E+03  0.2072E+03
     -0.724  0.1773E+02  0.1684E+02  0.2082E+03  0.2081E+03
     -0.669  0.3121E+02  0.2832E+02  0.2099E+03  0.2096E+03
     -0.615  0.3089E+02  0.2788E+02  0.2116E+03  0.2112E+03
     -0.560  0.4301E+02  0.4279E+02  0.2140E+03  0.2135E+03
     -0.505  0.4491E+02  0.4890E+02  0.2164E+03  0.2162E+03
     -0.451  0.1571E+02  0.1999E+02  0.2173E+03  0.2173E+03
     -0.396  0.2453E+02  0.1659E+02  0.2186E+03  0.2182E+03
     -0.342  0.1910E+02  0.2518E+02  0.2197E+03  0.2195E+03
     -0.287  0.6067E+01  0.8561E+01  0.2200E+03  0.2200E+03
     -0.233  0.1151E+02  0.9504E+01  0.2206E+03  0.2205E+03
     -0.178  0.3706E+02  0.3612E+02  0.2226E+03  0.2225E+03
     -0.124  0.6553E+01  0.9393E+01  0.2230E+03  0.2230E+03
     -0.069  0.1349E+02  0.1194E+02  0.2237E+03  0.2237E+03
     -0.014  0.2231E+02  0.1715E+02  0.2250E+03  0.2246E+03
      0.040  0.9897E+01  0.1670E+02  0.2255E+03  0.2255E+03
      0.095  0.4581E+01  0.4576E+01  0.2257E+03  0.2257E+03
      0.149  0.2648E+02  0.2297E+02  0.2272E+03  0.2270E+03
      0.204  0.4046E+02  0.3495E+02  0.2294E+03  0.2289E+03
      0.258  0.8805E+02  0.8898E+02  0.2342E+03  0.2338E+03
      0.313  0.3387E+02  0.4035E+02  0.2361E+03  0.2360E+03
      0.368  0.4641E+02  0.4223E+02  0.2386E+03  0.2383E+03
      0.422  0.3457E+02  0.3061E+02  0.2405E+03  0.2399E+03
      0.477  0.4209E+02  0.5013E+02  0.2428E+03  0.2427E+03
      0.531  0.4909E+02  0.4387E+02  0.2454E+03  0.2451E+03
      0.586  0.3941E+02  0.4037E+02  0.2476E+03  0.2473E+03
      0.640  0.6560E+02  0.6269E+02  0.2512E+03  0.2507E+03
      0.695  0.3488E+02  0.3756E+02  0.2531E+03  0.2527E+03
      0.749  0.1044E+03  0.1000E+03  0.2588E+03  0.2582E+03
      0.804  0.9398E+02  0.9638E+02  0.2639E+03  0.2635E+03
      0.859  0.6006E+02  0.6065E+02  0.2672E+03  0.2668E+03
      0.913  0.5494E+02  0.5441E+02  0.2702E+03  0.2697E+03
      0.968  0.5667E+02  0.5653E+02  0.2733E+03  0.2728E+03
      1.022  0.3369E+02  0.3826E+02  0.2751E+03  0.2749E+03
      1.077  0.9305E+02  0.8316E+02  0.2802E+03  0.2794E+03
      1.131  0.6435E+02  0.7279E+02  0.2837E+03  0.2834E+03
      1.186  0.7874E+02  0.6926E+02  0.2880E+03  0.2872E+03
      1.240  0.6803E+02  0.7884E+02  0.2917E+03  0.2915E+03
      1.295  0.7429E+02  0.6607E+02  0.2958E+03  0.2951E+03
      1.350  0.8536E+02  0.8953E+02  0.3004E+03  0.3000E+03
      1.404  0.7137E+02  0.7118E+02  0.3043E+03  0.3039E+03
      1.459  0.8835E+02  0.8090E+02  0.3091E+03  0.3083E+03
      1.513  0.4172E+02  0.5314E+02  0.3114E+03  0.3112E+03
      1.568  0.5783E+02  0.5399E+02  0.3146E+03  0.3141E+03
      1.622  0.8066E+02  0.7597E+02  0.3190E+03  0.3183E+03
      1.677  0.8142E+02  0.8702E+02  0.3234E+03  0.3230E+03
      1.731  0.7780E+02  0.7412E+02  0.3276E+03  0.3271E+03
      1.786  0.9002E+02  0.9229E+02  0.3326E+03  0.3321E+03
      1.841  0.9565E+02  0.8308E+02  0.3378E+03  0.3366E+03
      1.895  0.8785E+02  0.9907E+02  0.3426E+03  0.3420E+03
      1.950  0.7987E+02  0.8023E+02  0.3469E+03  0.3464E+03
      2.004  0.4918E+02  0.5242E+02  0.3496E+03  0.3493E+03
      2.059  0.5606E+02  0.5170E+02  0.3527E+03  0.3521E+03
      2.113  0.7425E+02  0.7585E+02  0.3567E+03  0.3562E+03
      2.168  0.5168E+02  0.5929E+02  0.3595E+03  0.3595E+03
      2.223  0.8306E+02  0.7735E+02  0.3641E+03  0.3637E+03
      2.277  0.6220E+02  0.6073E+02  0.3675E+03  0.3670E+03
      2.332  0.9510E+02  0.9156E+02  0.3727E+03  0.3720E+03
      2.386  0.5089E+02  0.5677E+02  0.3754E+03  0.3751E+03
      2.441  0.8109E+02  0.7719E+02  0.3799E+03  0.3793E+03
      2.495  0.7174E+02  0.7280E+02  0.3838E+03  0.3833E+03
      2.550  0.7663E+02  0.7397E+02  0.3879E+03  0.3873E+03
      2.604  0.6536E+02  0.6627E+02  0.3915E+03  0.3909E+03
      2.659  0.5250E+02  0.5335E+02  0.3944E+03  0.3938E+03
      2.714  0.8292E+02  0.8473E+02  0.3989E+03  0.3985E+03
      2.768  0.5825E+02  0.5721E+02  0.4021E+03  0.4016E+03
      2.823  0.4595E+02  0.4904E+02  0.4046E+03  0.4043E+03
      2.877  0.4648E+02  0.4575E+02  0.4071E+03  0.4068E+03
      2.932  0.8111E+02  0.7714E+02  0.4115E+03  0.4110E+03
      2.986  0.6033E+02  0.6216E+02  0.4148E+03  0.4144E+03
      3.041  0.4737E+02  0.4282E+02  0.4174E+03  0.4167E+03
      3.095  0.9417E+02  0.9259E+02  0.4226E+03  0.4217E+03
      3.150  0.4996E+02  0.5319E+02  0.4253E+03  0.4246E+03
      3.205  0.7130E+02  0.7399E+02  0.4292E+03  0.4287E+03
      3.259  0.8686E+02  0.8658E+02  0.4339E+03  0.4334E+03
      3.314  0.6296E+02  0.6466E+02  0.4374E+03  0.4369E+03
      3.368  0.6719E+02  0.6600E+02  0.4410E+03  0.4405E+03
      3.423  0.6066E+02  0.5631E+02  0.4443E+03  0.4436E+03
      3.477  0.6234E+02  0.7001E+02  0.4477E+03  0.4474E+03
      3.532  0.2466E+02  0.2442E+02  0.4491E+03  0.4488E+03
      3.586  0.5960E+02  0.5312E+02  0.4523E+03  0.4517E+03
      3.641  0.2441E+02  0.3232E+02  0.4537E+03  0.4534E+03
      3.696  0.2837E+02  0.2657E+02  0.4552E+03  0.4549E+03
      3.750  0.3844E+02  0.3712E+02  0.4573E+03  0.4569E+03
      3.805  0.2952E+02  0.3123E+02  0.4589E+03  0.4586E+03
      3.859  0.2453E+02  0.3032E+02  0.4603E+03  0.4602E+03
      3.914  0.3345E+02  0.2625E+02  0.4621E+03  0.4617E+03
      3.968  0.3173E+02  0.3281E+02  0.4638E+03  0.4635E+03
      4.023  0.2998E+02  0.3349E+02  0.4654E+03  0.4653E+03
      4.077  0.2876E+02  0.3088E+02  0.4670E+03  0.4670E+03
      4.132  0.2141E+02  0.1806E+02  0.4682E+03  0.4680E+03
      4.187  0.2286E+02  0.1801E+02  0.4694E+03  0.4690E+03
      4.241  0.2398E+02  0.1961E+02  0.4707E+03  0.4700E+03
      4.296  0.1875E+02  0.3116E+02  0.4718E+03  0.4717E+03
      4.350  0.1358E+02  0.1426E+02  0.4725E+03  0.4725E+03
      4.405  0.2751E+01  0.3405E+00  0.4727E+03  0.4725E+03
      4.459  0.2969E+02  0.1227E+02  0.4743E+03  0.4732E+03
      4.514  0.2489E+02  0.3224E+02  0.4756E+03  0.4749E+03
      4.569  0.2011E+02  0.1576E+02  0.4767E+03  0.4758E+03
      4.623  0.4535E+00  0.1528E+02  0.4768E+03  0.4766E+03
      4.678  0.1893E+02  0.2278E+01  0.4778E+03  0.4768E+03
      4.732  0.2821E+02  0.2239E+02  0.4793E+03  0.4780E+03
      4.787  0.4675E+02  0.4067E+02  0.4819E+03  0.4802E+03
      4.841  0.2460E+02  0.4301E+02  0.4832E+03  0.4826E+03
      4.896  0.2907E+02  0.1601E+02  0.4848E+03  0.4834E+03
      4.950  0.2627E+02  0.3481E+02  0.4862E+03  0.4853E+03
      5.005  0.2092E+02  0.1696E+02  0.4874E+03  0.4863E+03
      5.060  0.4849E+02  0.3902E+02  0.4900E+03  0.4884E+03
      5.114  0.2864E+02  0.4667E+02  0.4916E+03  0.4909E+03
      5.169  0.3094E+02  0.1963E+02  0.4933E+03  0.4920E+03
      5.223  0.2711E+02  0.3677E+02  0.4948E+03  0.4940E+03
      5.278  0.4530E+02  0.3948E+02  0.4972E+03  0.4962E+03
      5.332  0.3194E+02  0.4169E+02  0.4990E+03  0.4984E+03
      5.387  0.3789E+02  0.3664E+02  0.5010E+03  0.5004E+03
      5.441  0.3852E+02  0.3756E+02  0.5031E+03  0.5025E+03
      5.496  0.3100E+02  0.4182E+02  0.5048E+03  0.5048E+03
      5.551  0.3682E+02  0.2543E+02  0.5068E+03  0.5061E+03
      5.605  0.4849E+02  0.5434E+02  0.5095E+03  0.5091E+03
      5.660  0.6666E+02  0.4828E+02  0.5131E+03  0.5117E+03
      5.714  0.4279E+02  0.6153E+02  0.5155E+03  0.5151E+03
      5.769  0.5500E+02  0.5051E+02  0.5185E+03  0.5179E+03
      5.823  0.4388E+02  0.3778E+02  0.5208E+03  0.5199E+03
      5.878  0.6417E+02  0.6148E+02  0.5243E+03  0.5233E+03
      5.932  0.5790E+02  0.6567E+02  0.5275E+03  0.5269E+03
      5.987  0.4306E+02  0.4879E+02  0.5299E+03  0.5295E+03
      6.042  0.4256E+02  0.4500E+02  0.5322E+03  0.5320E+03
      6.096  0.4415E+02  0.3679E+02  0.5346E+03  0.5340E+03
      6.151  0.5948E+02  0.5689E+02  0.5378E+03  0.5371E+03
      6.205  0.7371E+02  0.7589E+02  0.5419E+03  0.5412E+03
      6.260  0.3284E+02  0.3863E+02  0.5436E+03  0.5433E+03
      6.314  0.3502E+02  0.3498E+02  0.5456E+03  0.5452E+03
      6.369  0.4728E+02  0.4278E+02  0.5481E+03  0.5476E+03
      6.424  0.6646E+02  0.6996E+02  0.5518E+03  0.5514E+03
      6.478  0.5095E+02  0.4677E+02  0.5545E+03  0.5539E+03
      6.533  0.8159E+02  0.7740E+02  0.5590E+03  0.5582E+03
      6.587  0.3655E+02  0.4367E+02  0.5610E+03  0.5606E+03
      6.642  0.3584E+02  0.3867E+02  0.5629E+03  0.5627E+03
      6.696  0.4894E+02  0.5005E+02  0.5656E+03  0.5654E+03
      6.751  0.3428E+02  0.2601E+02  0.5675E+03  0.5668E+03
      6.805  0.6386E+02  0.6384E+02  0.5710E+03  0.5703E+03
      6.860  0.3997E+02  0.4920E+02  0.5731E+03  0.5730E+03
      6.915  0.2400E+02  0.2445E+02  0.5745E+03  0.5743E+03
      6.969  0.5699E+01  0.7783E+01  0.5748E+03  0.5747E+03
      7.024  0.1579E+02  0.1412E+02  0.5756E+03  0.5755E+03
      7.078  0.6816E+01  0.9033E+01  0.5760E+03  0.5760E+03
      7.133  0.0000E+00  0.0000E+00  0.5760E+03  0.5760E+03
      7.187  0.0000E+00  0.0000E+00  0.5760E+03  0.5760E+03
      7.242  0.0000E+00  0.0000E+00  0.5760E+03  0.5760E+03
      7.296  0.0000E+00  0.0000E+00  0.5760E+03  0.5760E+03
      7.351  0.0000E+00  0.0000E+00  0.5760E+03  0.5760E+03
      7.406  0.0000E+00  0.0000E+00  0.5760E+03  0.5760E+03
      7.460  0.0000E+00  0.0000E+00  0.5760E+03  0.5760E+03
      7.515  0.0000E+00  0.0000E+00  0.5760E+03  0.5760E+03
      7.569  0.0000E+00  0.0000E+00  0.5760E+03  0.5760E+03
      7.624  0.0000E+00  0.0000E+00  0.5760E+03  0.5760E+03
      7.678  0.0000E+00  0.0000E+00  0.5760E+03  0.5760E+03
      7.733  0.0000E+00  0.0000E+00  0.5760E+03  0.5760E+03
      7.787  0.0000E+00  0.0000E+00  0.5760E+03  0.5760E+03
