<?xml version="1.0" encoding="ISO-8859-1"?>
<modeling>
 <generator>
  <i name="program" type="string">vasp </i>
  <i name="version" type="string">6.4.3  </i>
  <i name="subversion" type="string">19Mar24 (build Oct 22 2024 11:23:12) complex                          parallel </i>
  <i name="platform" type="string">LinuxIFC </i>
  <i name="date" type="string">2025 06 08 </i>
  <i name="time" type="string">14:00:14 </i>
 </generator>
 <incar>
  <i type="string" name="SYSTEM">Si and Ge interface calculation</i>
  <i type="int" name="ISTART">     0</i>
  <i type="logical" name="ADDGRID"> T  </i>
  <i type="int" name="ISPIN">     2</i>
  <i name="AMIX">      0.60000000</i>
  <i type="int" name="ICHARG">     2</i>
  <i type="int" name="NELM">   100</i>
  <i name="EDIFF">      0.00000010</i>
  <i name="ENCUT">    700.00000000</i>
  <i name="ENAUG">    900.00000000</i>
  <i type="int" name="NBANDS">   288</i>
  <i name="NUPDOWN">      1.00000000</i>
  <i name="NELECT">    480.00000000</i>
  <i type="string" name="LREAL">AUTO</i>
  <i type="int" name="ISMEAR">     0</i>
  <i name="SIGMA">      0.01000000</i>
  <i type="int" name="LMAXMIX">     6</i>
  <i type="logical" name="LWAVE"> F  </i>
  <i type="logical" name="LVTOT"> F  </i>
  <i type="logical" name="LVHAR"> T  </i>
  <i type="logical" name="LASPH"> T  </i>
  <i type="logical" name="LMIXTAU"> T  </i>
 </incar>
 <primitive_cell>
  <structure name="primitive_cell" >
   <crystal>
    <varray name="basis" >
     <v>       3.84029631       0.00000000       0.00000000 </v>
     <v>       0.00000000      16.29299927       0.00000000 </v>
     <v>       0.00000000       0.00000000      20.80414009 </v>
    </varray>
    <i name="volume">   1301.71389992 </i>
    <varray name="rec_basis" >
     <v>       0.26039657       0.00000000       0.00000000 </v>
     <v>       0.00000000       0.06137605       0.00000000 </v>
     <v>       0.00000000       0.00000000       0.04806736 </v>
    </varray>
   </crystal>
   <varray name="positions" >
    <v>       0.95703505       0.98567820       0.00000000 </v>
    <v>       0.45703461       0.81901145       0.09229647 </v>
    <v>       0.95703493       0.65234476       0.18459295 </v>
    <v>       0.45703458       0.48567814       0.27688938 </v>
    <v>       0.95703482       0.31901139       0.36918586 </v>
    <v>       0.45703434       0.15234470       0.46148235 </v>
    <v>       0.95703505       0.31901154       0.00000000 </v>
    <v>       0.45703461       0.15234485       0.09229647 </v>
    <v>       0.95703493       0.98567814       0.18459295 </v>
    <v>       0.45703458       0.81901151       0.27688938 </v>
    <v>       0.95703482       0.65234476       0.36918586 </v>
    <v>       0.45703434       0.48567808       0.46148235 </v>
    <v>       0.95703505       0.65234494       0.00000000 </v>
    <v>       0.45703461       0.48567820       0.09229647 </v>
    <v>       0.95703493       0.31901151       0.18459295 </v>
    <v>       0.45703458       0.15234487       0.27688938 </v>
    <v>       0.95703482       0.98567814       0.36918586 </v>
    <v>       0.45703434       0.81901139       0.46148235 </v>
    <v>       0.45703505       0.23567820       0.00000000 </v>
    <v>       0.95703493       0.06901149       0.09229647 </v>
    <v>       0.45703464       0.90234476       0.18459295 </v>
    <v>       0.95703505       0.73567814       0.27688938 </v>
    <v>       0.45703446       0.56901145       0.36918586 </v>
    <v>       0.95703458       0.40234464       0.46148235 </v>
    <v>       0.45703505       0.56901163       0.00000000 </v>
    <v>       0.95703493       0.40234488       0.09229647 </v>
    <v>       0.45703464       0.23567820       0.18459295 </v>
    <v>       0.95703505       0.06901154       0.27688938 </v>
    <v>       0.45703446       0.90234482       0.36918586 </v>
    <v>       0.95703458       0.73567808       0.46148235 </v>
    <v>       0.45703505       0.90234494       0.00000000 </v>
    <v>       0.95703493       0.73567820       0.09229647 </v>
    <v>       0.45703464       0.56901151       0.18459295 </v>
    <v>       0.95703505       0.40234485       0.27688938 </v>
    <v>       0.45703446       0.23567812       0.36918586 </v>
    <v>       0.95703458       0.06901138       0.46148235 </v>
    <v>       0.20232730       0.69633603       0.56076908 </v>
    <v>       0.70232778       0.32133609       0.69674677 </v>
    <v>       0.20232730       0.94633615       0.83272451 </v>
    <v>       0.20232730       0.94633609       0.56076908 </v>
    <v>       0.70232790       0.57133615       0.69674677 </v>
    <v>       0.20232730       0.19633615       0.83272451 </v>
    <v>       0.20232730       0.19633615       0.56076908 </v>
    <v>       0.70232778       0.82133615       0.69674677 </v>
    <v>       0.20232730       0.44633615       0.83272451 </v>
    <v>       0.20232730       0.44633609       0.56076908 </v>
    <v>       0.70232778       0.07133615       0.69674677 </v>
    <v>       0.20232730       0.69633609       0.83272451 </v>
    <v>       0.70232766       0.69633603       0.62875789 </v>
    <v>       0.20232730       0.32133609       0.76473570 </v>
    <v>       0.70232778       0.94633603       0.90071338 </v>
    <v>       0.70232766       0.94633603       0.62875789 </v>
    <v>       0.20232730       0.57133615       0.76473570 </v>
    <v>       0.70232766       0.19633615       0.90071338 </v>
    <v>       0.70232766       0.19633615       0.62875789 </v>
    <v>       0.20232730       0.82133615       0.76473570 </v>
    <v>       0.70232766       0.44633609       0.90071338 </v>
    <v>       0.70232754       0.44633606       0.62875789 </v>
    <v>       0.20232730       0.07133615       0.76473570 </v>
    <v>       0.70232766       0.69633609       0.90071338 </v>
   </varray>
  </structure>
  <varray name="primitive_index" >
   <v type="int" >        1 </v>
   <v type="int" >       20 </v>
   <v type="int" >       21 </v>
   <v type="int" >        4 </v>
   <v type="int" >        5 </v>
   <v type="int" >       24 </v>
   <v type="int" >        7 </v>
   <v type="int" >       26 </v>
   <v type="int" >       27 </v>
   <v type="int" >       10 </v>
   <v type="int" >       11 </v>
   <v type="int" >       30 </v>
   <v type="int" >       13 </v>
   <v type="int" >       32 </v>
   <v type="int" >       33 </v>
   <v type="int" >       16 </v>
   <v type="int" >       17 </v>
   <v type="int" >       36 </v>
   <v type="int" >       37 </v>
   <v type="int" >       56 </v>
   <v type="int" >       39 </v>
   <v type="int" >       40 </v>
   <v type="int" >       59 </v>
   <v type="int" >       60 </v>
   <v type="int" >       43 </v>
   <v type="int" >       62 </v>
   <v type="int" >       45 </v>
   <v type="int" >       46 </v>
   <v type="int" >       65 </v>
   <v type="int" >       66 </v>
   <v type="int" >       49 </v>
   <v type="int" >       68 </v>
   <v type="int" >       51 </v>
   <v type="int" >       52 </v>
   <v type="int" >       71 </v>
   <v type="int" >       72 </v>
   <v type="int" >       73 </v>
   <v type="int" >       74 </v>
   <v type="int" >      105 </v>
   <v type="int" >       97 </v>
   <v type="int" >       98 </v>
   <v type="int" >       78 </v>
   <v type="int" >       79 </v>
   <v type="int" >       80 </v>
   <v type="int" >      108 </v>
   <v type="int" >      100 </v>
   <v type="int" >      101 </v>
   <v type="int" >       84 </v>
   <v type="int" >      115 </v>
   <v type="int" >       86 </v>
   <v type="int" >       87 </v>
   <v type="int" >       88 </v>
   <v type="int" >      110 </v>
   <v type="int" >      111 </v>
   <v type="int" >      118 </v>
   <v type="int" >       92 </v>
   <v type="int" >       93 </v>
   <v type="int" >       94 </v>
   <v type="int" >      113 </v>
   <v type="int" >      114 </v>
  </varray>
 </primitive_cell>
 <kpoints>
  <generation param="Gamma">
   <v type="int" name="divisions">       4        2        2 </v>
   <v name="usershift">      0.00000000       0.00000000       0.00000000 </v>
   <v name="genvec1">      0.25000000       0.00000000       0.00000000 </v>
   <v name="genvec2">      0.00000000       0.50000000       0.00000000 </v>
   <v name="genvec3">      0.00000000       0.00000000       0.50000000 </v>
   <v name="shift">      0.00000000       0.00000000       0.00000000 </v>
  </generation>
  <varray name="kpointlist" >
   <v>       0.00000000       0.00000000       0.00000000 </v>
   <v>       0.25000000       0.00000000       0.00000000 </v>
   <v>       0.50000000       0.00000000       0.00000000 </v>
   <v>       0.00000000       0.50000000       0.00000000 </v>
   <v>       0.25000000       0.50000000       0.00000000 </v>
   <v>       0.50000000       0.50000000       0.00000000 </v>
   <v>       0.00000000       0.00000000       0.50000000 </v>
   <v>       0.25000000       0.00000000       0.50000000 </v>
   <v>       0.50000000       0.00000000       0.50000000 </v>
   <v>       0.00000000       0.50000000       0.50000000 </v>
   <v>       0.25000000       0.50000000       0.50000000 </v>
   <v>       0.50000000       0.50000000       0.50000000 </v>
  </varray>
  <varray name="weights" >
   <v>       0.06250000 </v>
   <v>       0.12500000 </v>
   <v>       0.06250000 </v>
   <v>       0.06250000 </v>
   <v>       0.12500000 </v>
   <v>       0.06250000 </v>
   <v>       0.06250000 </v>
   <v>       0.12500000 </v>
   <v>       0.06250000 </v>
   <v>       0.06250000 </v>
   <v>       0.12500000 </v>
   <v>       0.06250000 </v>
  </varray>
 </kpoints>
 <parameters>
  <separator name="general" >
   <i type="string" name="SYSTEM">Si and Ge interface calculation</i>
   <i type="logical" name="LCOMPAT"> F  </i>
  </separator>
  <separator name="electronic" >
   <i type="string" name="PREC">normal</i>
   <i name="ENMAX">    700.00000000</i>
   <i name="ENAUG">    900.00000000</i>
   <i name="EDIFF">      0.00000010</i>
   <i type="int" name="IALGO">    38</i>
   <i type="int" name="IWAVPR">    10</i>
   <i type="int" name="NBANDS">   288</i>
   <i type="int" name="NBANDSLOW">    -1</i>
   <i type="int" name="NBANDSHIGH">    -1</i>
   <i name="NELECT">    480.00000000</i>
   <i type="int" name="TURBO">     0</i>
   <i type="int" name="IRESTART">     0</i>
   <i type="int" name="NREBOOT">     0</i>
   <i type="int" name="NMIN">     0</i>
   <i name="EREF">      0.00000000</i>
   <separator name="electronic smearing" >
    <i type="int" name="ISMEAR">     0</i>
    <i name="SIGMA">      0.01000000</i>
    <i name="KSPACING">      0.50000000</i>
    <i type="logical" name="KGAMMA"> T  </i>
    <i type="logical" name="KBLOWUP"> T  </i>
   </separator>
   <separator name="electronic projectors" >
    <i type="logical" name="LREAL"> T  </i>
    <v name="ROPT">     -0.00050000     -0.00050000</v>
    <i type="int" name="LMAXPAW">  -100</i>
    <i type="int" name="LMAXMIX">     6</i>
    <i type="logical" name="NLSPLINE"> F  </i>
   </separator>
   <separator name="electronic startup" >
    <i type="int" name="ISTART">     0</i>
    <i type="int" name="ICHARG">     2</i>
    <i type="int" name="INIWAV">     1</i>
   </separator>
   <separator name="electronic spin" >
    <i type="int" name="ISPIN">     2</i>
    <i type="logical" name="LNONCOLLINEAR"> F  </i>
    <v name="MAGMOM">      0.00833333      0.00833333      0.00833333      0.00833333      0.00833333      0.00833333      0.00833333      0.00833333      0.00833333      0.00833333      0.00833333      0.00833333      0.00833333      0.00833333      0.00833333      0.00833333      0.00833333      0.00833333      0.00833333      0.00833333
      0.00833333      0.00833333      0.00833333      0.00833333      0.00833333      0.00833333      0.00833333      0.00833333      0.00833333      0.00833333      0.00833333      0.00833333      0.00833333      0.00833333      0.00833333      0.00833333      0.00833333      0.00833333      0.00833333      0.00833333
      0.00833333      0.00833333      0.00833333      0.00833333      0.00833333      0.00833333      0.00833333      0.00833333      0.00833333      0.00833333      0.00833333      0.00833333      0.00833333      0.00833333      0.00833333      0.00833333      0.00833333      0.00833333      0.00833333      0.00833333
      0.00833333      0.00833333      0.00833333      0.00833333      0.00833333      0.00833333      0.00833333      0.00833333      0.00833333      0.00833333      0.00833333      0.00833333      0.00833333      0.00833333      0.00833333      0.00833333      0.00833333      0.00833333      0.00833333      0.00833333
      0.00833333      0.00833333      0.00833333      0.00833333      0.00833333      0.00833333      0.00833333      0.00833333      0.00833333      0.00833333      0.00833333      0.00833333      0.00833333      0.00833333      0.00833333      0.00833333      0.00833333      0.00833333      0.00833333      0.00833333
      0.00833333      0.00833333      0.00833333      0.00833333      0.00833333      0.00833333      0.00833333      0.00833333      0.00833333      0.00833333      0.00833333      0.00833333      0.00833333      0.00833333      0.00833333      0.00833333      0.00833333      0.00833333      0.00833333      0.00833333
</v>
    <i name="NUPDOWN">      1.00000000</i>
    <i type="logical" name="LSORBIT"> F  </i>
    <v name="SAXIS">      0.00000000      0.00000000      1.00000000</v>
    <i type="logical" name="LSPIRAL"> F  </i>
    <v name="QSPIRAL">      0.00000000      0.00000000      0.00000000</v>
    <i type="logical" name="LZEROZ"> F  </i>
   </separator>
   <separator name="electronic exchange-correlation" >
    <i type="logical" name="LASPH"> T  </i>
   </separator>
   <separator name="electronic convergence" >
    <i type="int" name="NELM">   100</i>
    <i type="int" name="NELMDL">    -5</i>
    <i type="int" name="NELMIN">     2</i>
    <i name="ENINI">    700.00000000</i>
    <separator name="electronic convergence detail" >
     <i type="logical" name="LDIAG"> T  </i>
     <i type="logical" name="LSUBROT"> F  </i>
     <i name="WEIMIN">      0.00000000</i>
     <i name="EBREAK">      0.00000000</i>
     <i name="DEPER">      0.30000000</i>
     <i type="int" name="NRMM">     4</i>
     <i name="TIME">      0.40000000</i>
    </separator>
   </separator>
   <separator name="electronic mixer" >
    <i name="AMIX">      0.60000000</i>
    <i name="BMIX">      1.00000000</i>
    <i name="AMIN">      0.10000000</i>
    <i name="AMIX_MAG">      2.40000000</i>
    <i name="BMIX_MAG">      1.00000000</i>
    <separator name="electronic mixer details" >
     <i type="int" name="IMIX">     4</i>
     <i type="logical" name="MIXFIRST"> F  </i>
     <i type="int" name="MAXMIX">   -45</i>
     <i name="WC">    100.00000000</i>
     <i type="int" name="INIMIX">     1</i>
     <i type="int" name="MIXPRE">     1</i>
     <i type="int" name="MREMOVE">     5</i>
    </separator>
   </separator>
   <separator name="electronic dipolcorrection" >
    <i type="logical" name="LDIPOL"> F  </i>
    <i type="logical" name="LMONO"> F  </i>
    <i type="int" name="IDIPOL">     0</i>
    <i name="EPSILON">      1.00000000</i>
    <v name="DIPOL">   -100.00000000   -100.00000000   -100.00000000</v>
    <i name="EFIELD">      0.00000000</i>
    <i type="logical" name="LVACPOTAV"> F  </i>
   </separator>
  </separator>
  <separator name="grids" >
   <i type="int" name="NGX">    50</i>
   <i type="int" name="NGY">   108</i>
   <i type="int" name="NGZ">   140</i>
   <i type="int" name="NGXF">   100</i>
   <i type="int" name="NGYF">   216</i>
   <i type="int" name="NGZF">   280</i>
   <i type="logical" name="ADDGRID"> T  </i>
  </separator>
  <separator name="ionic" >
   <i type="int" name="NSW">     0</i>
   <i type="int" name="IBRION">    -1</i>
   <i type="int" name="MDALGO">     0</i>
   <i type="int" name="ISIF">     2</i>
   <i name="PSTRESS">      0.00000000</i>
   <i name="EDIFFG">      0.00000100</i>
   <i type="int" name="NFREE">     0</i>
   <i name="POTIM">      0.50000000</i>
   <i name="SMASS">     -3.00000000</i>
   <i name="SCALEE">      1.00000000</i>
  </separator>
  <separator name="ionic md" >
   <i name="TEBEG">      0.00010000</i>
   <i name="TEEND">      0.00010000</i>
   <i type="int" name="NBLOCK">     1</i>
   <i type="int" name="KBLOCK">     1</i>
   <i type="int" name="NPACO">   256</i>
   <i name="APACO">     10.00000000</i>
  </separator>
  <separator name="symmetry" >
   <i type="int" name="ISYM">     2</i>
   <i name="SYMPREC">      0.00001000</i>
  </separator>
  <separator name="dos" >
   <i type="int" name="LORBIT">     0</i>
   <v name="RWIGS">     -1.00000000     -1.00000000</v>
   <i type="int" name="NEDOS">   301</i>
   <i name="EMIN">     10.00000000</i>
   <i name="EMAX">    -10.00000000</i>
   <i name="EFERMI">      0.00000000</i>
  </separator>
  <separator name="writing" >
   <i type="int" name="NWRITE">     2</i>
   <i type="logical" name="LWAVE"> F  </i>
   <i type="logical" name="LDOWNSAMPLE"> F  </i>
   <i type="logical" name="LCHARG"> T  </i>
   <i type="logical" name="LPARD"> F  </i>
   <i type="logical" name="LVTOT"> F  </i>
   <i type="logical" name="LVHAR"> T  </i>
   <i type="logical" name="LELF"> F  </i>
   <i type="logical" name="LOPTICS"> F  </i>
   <v name="STM">      0.00000000      0.00000000      0.00000000      0.00000000      0.00000000      0.00000000      0.00000000</v>
  </separator>
  <separator name="performance" >
   <i type="int" name="NPAR">     4</i>
   <i type="int" name="NSIM">     4</i>
   <i type="int" name="NBLK">    -1</i>
   <i type="logical" name="LPLANE"> T  </i>
   <i type="logical" name="LSCALAPACK"> T  </i>
   <i type="logical" name="LSCAAWARE"> F  </i>
   <i type="logical" name="LSCALU"> F  </i>
   <i type="logical" name="LASYNC"> F  </i>
   <i type="logical" name="LORBITALREAL"> F  </i>
  </separator>
  <separator name="miscellaneous" >
   <i type="int" name="IDIOT">     3</i>
   <i type="int" name="PHON_NSTRUCT">    -1</i>
   <i type="logical" name="LMUSIC"> F  </i>
   <v name="POMASS">     28.08500000     72.61000000</v>
   <v name="DARWINR">      0.00000000      0.00000000</v>
   <v name="DARWINV">      1.00000000      1.00000000</v>
   <i type="logical" name="LCORR"> T  </i>
  </separator>
  <i type="logical" name="GGA_COMPAT"> T  </i>
  <i type="logical" name="LBERRY"> F  </i>
  <i type="int" name="ICORELEVEL">     0</i>
  <i type="logical" name="LDAU"> F  </i>
  <i type="int" name="I_CONSTRAINED_M">     0</i>
  <separator name="electronic exchange-correlation" >
   <i type="string" name="GGA    ">PE</i>
   <i type="string" name="XC_C">1</i>
   <i type="int" name="VOSKOWN">     0</i>
   <i type="logical" name="LHFCALC"> F  </i>
   <i type="string" name="PRECFOCK"></i>
   <i type="logical" name="LSYMGRAD"> F  </i>
   <i type="logical" name="LHFONE"> F  </i>
   <i type="logical" name="LRHFCALC"> F  </i>
   <i type="logical" name="LTHOMAS"> F  </i>
   <i type="logical" name="LMODELHF"> F  </i>
   <i type="logical" name="LFOCKACE"> F  </i>
   <i name="ENCUT4O">     -1.00000000</i>
   <i type="int" name="EXXOEP">     0</i>
   <i type="int" name="FOURORBIT">     0</i>
   <i name="AEXX">      0.00000000</i>
   <i name="HFALPHA">      0.00000000</i>
   <i name="MCALPHA">      0.00000000</i>
   <i name="ALDAX">      1.00000000</i>
   <i name="AGGAX">      1.00000000</i>
   <i name="AMGGAX">      1.00000000</i>
   <i name="ALDAC">      1.00000000</i>
   <i name="AGGAC">      1.00000000</i>
   <i name="AMGGAC">      1.00000000</i>
   <i type="int" name="NKREDX">     1</i>
   <i type="int" name="NKREDY">     1</i>
   <i type="int" name="NKREDZ">     1</i>
   <i type="logical" name="SHIFTRED"> F  </i>
   <i type="logical" name="ODDONLY"> F  </i>
   <i type="logical" name="EVENONLY"> F  </i>
   <i type="int" name="LMAXFOCK">     0</i>
   <i type="int" name="NMAXFOCKAE">     0</i>
   <i type="logical" name="LFOCKAEDFT"> F  </i>
   <i name="HFSCREEN">      0.00000000</i>
   <i name="HFSCREENC">      0.00000000</i>
   <i type="int" name="NBANDSGWLOW">     0</i>
  </separator>
  <separator name="vdW DFT" >
   <i type="logical" name="LUSE_VDW"> F  </i>
   <i type="int" name="IVDW_NL">    -1</i>
   <i type="logical" name="LSPIN_VDW"> F  </i>
   <i name="ZAB_VDW">     -0.84910000</i>
   <i name="GAMMA_VDW">      1.39626340</i>
   <i name="ALPHA_VDW">      0.00000000</i>
   <i name="PARAM1">      0.12340000</i>
   <i name="PARAM2">      1.00000000</i>
   <i name="BPARAM">      6.30000000</i>
   <i name="CPARAM">      0.00930000</i>
  </separator>
  <separator name="model GW" >
   <i type="int" name="MODEL_GW">     0</i>
   <i name="MODEL_EPS0">     13.01714210</i>
   <i name="MODEL_ALPHA">      1.00000000</i>
  </separator>
  <separator name="linear response parameters" >
   <i type="logical" name="LEPSILON"> F  </i>
   <i type="logical" name="LRPA"> F  </i>
   <i type="logical" name="LNABLA"> F  </i>
   <i type="logical" name="LVEL"> F  </i>
   <i name="CSHIFT">      0.10000000</i>
   <i name="OMEGAMAX">     -1.00000000</i>
   <i name="DEG_THRESHOLD">      0.00200000</i>
   <i name="RTIME">     -0.10000000</i>
   <i name="WPLASMAI">      0.00000000</i>
   <v name="DFIELD">      0.00000000      0.00000000      0.00000000</v>
   <v name="WPLASMA">      0.00000000      0.00000000      0.00000000      0.00000000      0.00000000      0.00000000      0.00000000      0.00000000      0.00000000</v>
  </separator>
  <separator name="orbital magnetization" >
   <i type="logical" name="NUCIND"> F  </i>
   <v name="MAGPOS">      0.00000000      0.00000000      0.00000000</v>
   <i type="logical" name="LNICSALL"> T  </i>
   <i type="logical" name="ORBITALMAG"> F  </i>
   <i type="logical" name="LMAGBLOCH"> F  </i>
   <i type="logical" name="LCHIMAG"> F  </i>
   <i type="logical" name="LGAUGE"> T  </i>
   <i type="int" name="MAGATOM">     0</i>
   <v name="MAGDIPOL">      0.00000000      0.00000000      0.00000000</v>
   <v name="AVECCONST">      0.00000000      0.00000000      0.00000000</v>
  </separator>
  <separator name="response functions" >
   <i type="logical" name="LALL_IN_ONE"> F  </i>
   <i type="int" name="IALL_IN_ONE">    -1</i>
   <i type="int" name="NBANDS_WAVE">    -1</i>
   <i type="logical" name="LFINITE_TEMPERATURE"> F  </i>
   <i type="logical" name="LADDER"> F  </i>
   <i type="logical" name="LRPAFORCE"> F  </i>
   <i type="logical" name="LFXC"> F  </i>
   <i type="logical" name="LHARTREE"> T  </i>
   <i type="int" name="IBSE">     0</i>
   <v type="int" name="KPOINT">    -1     0     0     0</v>
   <i type="logical" name="LTCTC"> F  </i>
   <i type="logical" name="LTCTE"> F  </i>
   <i type="logical" name="LTETE"> F  </i>
   <i type="logical" name="LTRIPLET"> F  </i>
   <i type="logical" name="LFXCEPS"> F  </i>
   <i type="logical" name="LFXHEG"> F  </i>
   <i type="int" name="NATURALO">     2</i>
   <i type="logical" name="LHOLEGF"> F  </i>
   <i type="logical" name="L2ORDER"> F  </i>
   <i type="logical" name="LDMP1"> F  </i>
   <i type="logical" name="LMP2LT"> F  </i>
   <i type="logical" name="LSMP2LT"> F  </i>
   <i type="logical" name="LGWLF"> F  </i>
   <i name="ENCUTGW">     -1.60000002</i>
   <i name="ENCUTGWSOFT">     -1.60000002</i>
   <i name="ENCUTLF">     -1.00000000</i>
   <i type="logical" name="ESF_SPLINES"> F  </i>
   <i name="ESF_CONV">      0.01000000</i>
   <i type="int" name="ESF_NINTER">    15</i>
   <i type="int" name="LMAXMP2">    -1</i>
   <i name="SCISSOR">      0.00000000</i>
   <i type="int" name="NOMEGA">     0</i>
   <i type="int" name="NOMEGAR">     0</i>
   <i type="int" name="NBANDSGW">    -1</i>
   <i type="int" name="NBANDSO">    -1</i>
   <i type="int" name="NBANDSV">    -1</i>
   <i type="int" name="NELMGW">     1</i>
   <i type="int" name="NELMHF">     1</i>
   <i type="int" name="DIM">     3</i>
   <i type="int" name="IESPILON">     4</i>
   <i type="int" name="ANTIRES">     0</i>
   <i name="OMEGAMAX">    -30.00000000</i>
   <i name="OMEGAMIN">    -30.00000000</i>
   <i name="OMEGATL">   -200.00000000</i>
   <i type="int" name="OMEGAGRID">     0</i>
   <i name="CSHIFT">     -0.10000000</i>
   <i type="logical" name="LSELFENERGY"> F  </i>
   <i type="logical" name="LSPECTRAL"> F  </i>
   <i type="logical" name="LSPECTRALGW"> F  </i>
   <i type="logical" name="LSINGLES"> F  </i>
   <i type="logical" name="LFERMIGW"> F  </i>
   <i type="logical" name="ODDONLYGW"> F  </i>
   <i type="logical" name="EVENONLYGW"> F  </i>
   <i type="int" name="NKREDLFX">     1</i>
   <i type="int" name="NKREDLFY">     1</i>
   <i type="int" name="NKREDLFZ">     1</i>
   <i type="int" name="MAXMEM">  2800</i>
   <i type="int" name="TELESCOPE">     0</i>
   <i type="int" name="NTAUPAR">    -1</i>
   <i type="int" name="NOMEGAPAR">    -1</i>
   <i name="DAMP_NEWTON">      0.80000001</i>
   <i name="LAMBDA">      1.00000000</i>
  </separator>
  <separator name="External order field" >
   <i name="OFIELD_KAPPA">      0.00000000</i>
   <v name="OFIELD_K">      0.00000000      0.00000000      0.00000000</v>
   <i name="OFIELD_Q6_NEAR">      0.00000000</i>
   <i name="OFIELD_Q6_FAR">      0.00000000</i>
   <i name="OFIELD_A">      0.00000000</i>
  </separator>
  <separator name="optional k-points parameters" >
   <i type="int" name="KPOINTS_OPT_MODE">     1</i>
   <i type="logical" name="LKPOINTS_OPT"> F  </i>
  </separator>
 </parameters>
 <atominfo>
  <atoms>     120 </atoms>
  <types>       2 </types>
  <array name="atoms" >
   <dimension dim="1">ion</dimension>
   <field type="string">element</field>
   <field type="int">atomtype</field>
   <set>
    <rc><c>Si</c><c>   1</c></rc>
    <rc><c>Si</c><c>   1</c></rc>
    <rc><c>Si</c><c>   1</c></rc>
    <rc><c>Si</c><c>   1</c></rc>
    <rc><c>Si</c><c>   1</c></rc>
    <rc><c>Si</c><c>   1</c></rc>
    <rc><c>Si</c><c>   1</c></rc>
    <rc><c>Si</c><c>   1</c></rc>
    <rc><c>Si</c><c>   1</c></rc>
    <rc><c>Si</c><c>   1</c></rc>
    <rc><c>Si</c><c>   1</c></rc>
    <rc><c>Si</c><c>   1</c></rc>
    <rc><c>Si</c><c>   1</c></rc>
    <rc><c>Si</c><c>   1</c></rc>
    <rc><c>Si</c><c>   1</c></rc>
    <rc><c>Si</c><c>   1</c></rc>
    <rc><c>Si</c><c>   1</c></rc>
    <rc><c>Si</c><c>   1</c></rc>
    <rc><c>Si</c><c>   1</c></rc>
    <rc><c>Si</c><c>   1</c></rc>
    <rc><c>Si</c><c>   1</c></rc>
    <rc><c>Si</c><c>   1</c></rc>
    <rc><c>Si</c><c>   1</c></rc>
    <rc><c>Si</c><c>   1</c></rc>
    <rc><c>Si</c><c>   1</c></rc>
    <rc><c>Si</c><c>   1</c></rc>
    <rc><c>Si</c><c>   1</c></rc>
    <rc><c>Si</c><c>   1</c></rc>
    <rc><c>Si</c><c>   1</c></rc>
    <rc><c>Si</c><c>   1</c></rc>
    <rc><c>Si</c><c>   1</c></rc>
    <rc><c>Si</c><c>   1</c></rc>
    <rc><c>Si</c><c>   1</c></rc>
    <rc><c>Si</c><c>   1</c></rc>
    <rc><c>Si</c><c>   1</c></rc>
    <rc><c>Si</c><c>   1</c></rc>
    <rc><c>Si</c><c>   1</c></rc>
    <rc><c>Si</c><c>   1</c></rc>
    <rc><c>Si</c><c>   1</c></rc>
    <rc><c>Si</c><c>   1</c></rc>
    <rc><c>Si</c><c>   1</c></rc>
    <rc><c>Si</c><c>   1</c></rc>
    <rc><c>Si</c><c>   1</c></rc>
    <rc><c>Si</c><c>   1</c></rc>
    <rc><c>Si</c><c>   1</c></rc>
    <rc><c>Si</c><c>   1</c></rc>
    <rc><c>Si</c><c>   1</c></rc>
    <rc><c>Si</c><c>   1</c></rc>
    <rc><c>Si</c><c>   1</c></rc>
    <rc><c>Si</c><c>   1</c></rc>
    <rc><c>Si</c><c>   1</c></rc>
    <rc><c>Si</c><c>   1</c></rc>
    <rc><c>Si</c><c>   1</c></rc>
    <rc><c>Si</c><c>   1</c></rc>
    <rc><c>Si</c><c>   1</c></rc>
    <rc><c>Si</c><c>   1</c></rc>
    <rc><c>Si</c><c>   1</c></rc>
    <rc><c>Si</c><c>   1</c></rc>
    <rc><c>Si</c><c>   1</c></rc>
    <rc><c>Si</c><c>   1</c></rc>
    <rc><c>Si</c><c>   1</c></rc>
    <rc><c>Si</c><c>   1</c></rc>
    <rc><c>Si</c><c>   1</c></rc>
    <rc><c>Si</c><c>   1</c></rc>
    <rc><c>Si</c><c>   1</c></rc>
    <rc><c>Si</c><c>   1</c></rc>
    <rc><c>Si</c><c>   1</c></rc>
    <rc><c>Si</c><c>   1</c></rc>
    <rc><c>Si</c><c>   1</c></rc>
    <rc><c>Si</c><c>   1</c></rc>
    <rc><c>Si</c><c>   1</c></rc>
    <rc><c>Si</c><c>   1</c></rc>
    <rc><c>Ge</c><c>   2</c></rc>
    <rc><c>Ge</c><c>   2</c></rc>
    <rc><c>Ge</c><c>   2</c></rc>
    <rc><c>Ge</c><c>   2</c></rc>
    <rc><c>Ge</c><c>   2</c></rc>
    <rc><c>Ge</c><c>   2</c></rc>
    <rc><c>Ge</c><c>   2</c></rc>
    <rc><c>Ge</c><c>   2</c></rc>
    <rc><c>Ge</c><c>   2</c></rc>
    <rc><c>Ge</c><c>   2</c></rc>
    <rc><c>Ge</c><c>   2</c></rc>
    <rc><c>Ge</c><c>   2</c></rc>
    <rc><c>Ge</c><c>   2</c></rc>
    <rc><c>Ge</c><c>   2</c></rc>
    <rc><c>Ge</c><c>   2</c></rc>
    <rc><c>Ge</c><c>   2</c></rc>
    <rc><c>Ge</c><c>   2</c></rc>
    <rc><c>Ge</c><c>   2</c></rc>
    <rc><c>Ge</c><c>   2</c></rc>
    <rc><c>Ge</c><c>   2</c></rc>
    <rc><c>Ge</c><c>   2</c></rc>
    <rc><c>Ge</c><c>   2</c></rc>
    <rc><c>Ge</c><c>   2</c></rc>
    <rc><c>Ge</c><c>   2</c></rc>
    <rc><c>Ge</c><c>   2</c></rc>
    <rc><c>Ge</c><c>   2</c></rc>
    <rc><c>Ge</c><c>   2</c></rc>
    <rc><c>Ge</c><c>   2</c></rc>
    <rc><c>Ge</c><c>   2</c></rc>
    <rc><c>Ge</c><c>   2</c></rc>
    <rc><c>Ge</c><c>   2</c></rc>
    <rc><c>Ge</c><c>   2</c></rc>
    <rc><c>Ge</c><c>   2</c></rc>
    <rc><c>Ge</c><c>   2</c></rc>
    <rc><c>Ge</c><c>   2</c></rc>
    <rc><c>Ge</c><c>   2</c></rc>
    <rc><c>Ge</c><c>   2</c></rc>
    <rc><c>Ge</c><c>   2</c></rc>
    <rc><c>Ge</c><c>   2</c></rc>
    <rc><c>Ge</c><c>   2</c></rc>
    <rc><c>Ge</c><c>   2</c></rc>
    <rc><c>Ge</c><c>   2</c></rc>
    <rc><c>Ge</c><c>   2</c></rc>
    <rc><c>Ge</c><c>   2</c></rc>
    <rc><c>Ge</c><c>   2</c></rc>
    <rc><c>Ge</c><c>   2</c></rc>
    <rc><c>Ge</c><c>   2</c></rc>
    <rc><c>Ge</c><c>   2</c></rc>
   </set>
  </array>
  <array name="atomtypes" >
   <dimension dim="1">type</dimension>
   <field type="int">atomspertype</field>
   <field type="string">element</field>
   <field>mass</field>
   <field>valence</field>
   <field type="string">pseudopotential</field>
   <set>
    <rc><c>  72</c><c>Si</c><c>     28.08500000</c><c>      4.00000000</c><c>  PAW_PBE Si 05Jan2001                  </c></rc>
    <rc><c>  48</c><c>Ge</c><c>     72.61000000</c><c>      4.00000000</c><c>  PAW_PBE Ge 05Jan2001                  </c></rc>
   </set>
  </array>
 </atominfo>
 <structure name="initialpos" >
  <crystal>
   <varray name="basis" >
    <v>       7.68059444       0.00000000       0.00000000 </v>
    <v>       0.00000000      16.29299927       0.00000000 </v>
    <v>       0.00000000       0.00000000      20.80414009 </v>
   </varray>
   <i name="volume">   2603.42841946 </i>
   <varray name="rec_basis" >
    <v>       0.13019826       0.00000000       0.00000000 </v>
    <v>       0.00000000       0.06137605       0.00000000 </v>
    <v>       0.00000000       0.00000000       0.04806736 </v>
   </varray>
  </crystal>
  <varray name="positions" >
   <v>       0.97851729       0.98567820       0.00000000 </v>
   <v>       0.72851723       0.81901145       0.09229647 </v>
   <v>       0.47851718       0.65234476       0.18459295 </v>
   <v>       0.22851723       0.48567814       0.27688938 </v>
   <v>       0.97851718       0.31901139       0.36918586 </v>
   <v>       0.72851718       0.15234470       0.46148235 </v>
   <v>       0.97851729       0.31901154       0.00000000 </v>
   <v>       0.72851723       0.15234485       0.09229647 </v>
   <v>       0.47851718       0.98567814       0.18459295 </v>
   <v>       0.22851723       0.81901151       0.27688938 </v>
   <v>       0.97851718       0.65234476       0.36918586 </v>
   <v>       0.72851718       0.48567808       0.46148235 </v>
   <v>       0.97851729       0.65234494       0.00000000 </v>
   <v>       0.72851723       0.48567820       0.09229647 </v>
   <v>       0.47851718       0.31901151       0.18459295 </v>
   <v>       0.22851723       0.15234487       0.27688938 </v>
   <v>       0.97851718       0.98567814       0.36918586 </v>
   <v>       0.72851718       0.81901139       0.46148235 </v>
   <v>       0.47851729       0.98567820       0.00000000 </v>
   <v>       0.22851725       0.81901145       0.09229647 </v>
   <v>       0.97851723       0.65234476       0.18459295 </v>
   <v>       0.72851729       0.48567814       0.27688935 </v>
   <v>       0.47851718       0.31901139       0.36918586 </v>
   <v>       0.22851712       0.15234470       0.46148235 </v>
   <v>       0.47851729       0.31901154       0.00000000 </v>
   <v>       0.22851725       0.15234485       0.09229647 </v>
   <v>       0.97851723       0.98567814       0.18459295 </v>
   <v>       0.72851729       0.81901151       0.27688935 </v>
   <v>       0.47851718       0.65234476       0.36918586 </v>
   <v>       0.22851712       0.48567808       0.46148235 </v>
   <v>       0.47851729       0.65234494       0.00000000 </v>
   <v>       0.22851725       0.48567820       0.09229647 </v>
   <v>       0.97851723       0.31901151       0.18459295 </v>
   <v>       0.72851729       0.15234487       0.27688935 </v>
   <v>       0.47851718       0.98567814       0.36918586 </v>
   <v>       0.22851712       0.81901139       0.46148235 </v>
   <v>       0.72851735       0.23567820       0.00000000 </v>
   <v>       0.47851729       0.06901149       0.09229647 </v>
   <v>       0.22851726       0.90234476       0.18459295 </v>
   <v>       0.97851729       0.73567814       0.27688938 </v>
   <v>       0.72851723       0.56901145       0.36918586 </v>
   <v>       0.47851723       0.40234464       0.46148229 </v>
   <v>       0.72851735       0.56901163       0.00000000 </v>
   <v>       0.47851729       0.40234488       0.09229647 </v>
   <v>       0.22851726       0.23567820       0.18459295 </v>
   <v>       0.97851729       0.06901154       0.27688938 </v>
   <v>       0.72851723       0.90234482       0.36918586 </v>
   <v>       0.47851723       0.73567808       0.46148229 </v>
   <v>       0.72851735       0.90234494       0.00000000 </v>
   <v>       0.47851729       0.73567820       0.09229647 </v>
   <v>       0.22851726       0.56901151       0.18459295 </v>
   <v>       0.97851729       0.40234485       0.27688938 </v>
   <v>       0.72851723       0.23567812       0.36918586 </v>
   <v>       0.47851723       0.06901138       0.46148229 </v>
   <v>       0.22851729       0.23567820       0.00000000 </v>
   <v>       0.97851723       0.06901149       0.09229647 </v>
   <v>       0.72851718       0.90234476       0.18459295 </v>
   <v>       0.47851729       0.73567814       0.27688935 </v>
   <v>       0.22851718       0.56901145       0.36918586 </v>
   <v>       0.97851706       0.40234464       0.46148235 </v>
   <v>       0.22851729       0.56901163       0.00000000 </v>
   <v>       0.97851723       0.40234488       0.09229647 </v>
   <v>       0.72851718       0.23567820       0.18459295 </v>
   <v>       0.47851729       0.06901154       0.27688935 </v>
   <v>       0.22851718       0.90234482       0.36918586 </v>
   <v>       0.97851706       0.73567808       0.46148235 </v>
   <v>       0.22851729       0.90234494       0.00000000 </v>
   <v>       0.97851723       0.73567820       0.09229647 </v>
   <v>       0.72851718       0.56901151       0.18459295 </v>
   <v>       0.47851729       0.40234485       0.27688935 </v>
   <v>       0.22851718       0.23567812       0.36918586 </v>
   <v>       0.97851706       0.06901138       0.46148235 </v>
   <v>       0.10116363       0.69633603       0.56076908 </v>
   <v>       0.85116369       0.32133609       0.69674677 </v>
   <v>       0.60116369       0.94633615       0.83272451 </v>
   <v>       0.60116363       0.94633603       0.56076908 </v>
   <v>       0.35116363       0.57133609       0.69674677 </v>
   <v>       0.10116363       0.19633615       0.83272451 </v>
   <v>       0.10116363       0.19633615       0.56076908 </v>
   <v>       0.85116369       0.82133615       0.69674677 </v>
   <v>       0.60116369       0.44633609       0.83272451 </v>
   <v>       0.60116357       0.44633606       0.56076908 </v>
   <v>       0.35116363       0.07133615       0.69674677 </v>
   <v>       0.10116363       0.69633609       0.83272451 </v>
   <v>       0.35116360       0.69633603       0.62875789 </v>
   <v>       0.10116363       0.32133609       0.76473570 </v>
   <v>       0.85116369       0.94633603       0.90071338 </v>
   <v>       0.85116363       0.94633603       0.62875789 </v>
   <v>       0.60116363       0.57133609       0.76473570 </v>
   <v>       0.35116360       0.19633603       0.90071338 </v>
   <v>       0.35116366       0.19633615       0.62875789 </v>
   <v>       0.10116363       0.82133615       0.76473570 </v>
   <v>       0.85116363       0.44633609       0.90071338 </v>
   <v>       0.85116357       0.44633606       0.62875789 </v>
   <v>       0.60116363       0.07133615       0.76473570 </v>
   <v>       0.35116363       0.69633609       0.90071338 </v>
   <v>       0.10116363       0.94633609       0.56076908 </v>
   <v>       0.85116375       0.57133615       0.69674677 </v>
   <v>       0.60116369       0.19633615       0.83272451 </v>
   <v>       0.10116363       0.44633609       0.56076908 </v>
   <v>       0.85116369       0.07133615       0.69674677 </v>
   <v>       0.60116369       0.69633609       0.83272451 </v>
   <v>       0.60116363       0.69633609       0.56076908 </v>
   <v>       0.35116366       0.32133615       0.69674677 </v>
   <v>       0.10116363       0.94633615       0.83272451 </v>
   <v>       0.60116363       0.19633615       0.56076908 </v>
   <v>       0.35116363       0.82133609       0.69674677 </v>
   <v>       0.10116363       0.44633615       0.83272451 </v>
   <v>       0.35116369       0.94633609       0.62875789 </v>
   <v>       0.10116363       0.57133615       0.76473570 </v>
   <v>       0.85116363       0.19633615       0.90071338 </v>
   <v>       0.35116363       0.44633609       0.62875789 </v>
   <v>       0.10116363       0.07133615       0.76473570 </v>
   <v>       0.85116363       0.69633609       0.90071338 </v>
   <v>       0.85116363       0.69633603       0.62875789 </v>
   <v>       0.60116363       0.32133606       0.76473570 </v>
   <v>       0.35116357       0.94633603       0.90071338 </v>
   <v>       0.85116363       0.19633615       0.62875789 </v>
   <v>       0.60116363       0.82133615       0.76473570 </v>
   <v>       0.35116360       0.44633609       0.90071338 </v>
  </varray>
 </structure>
 <calculation>
  <scstep>
   <time name="dav">   37.08   37.43</time>
   <time name="total">   38.39   38.75</time>
   <energy>
    <i name="alphaZ">    534.59184046 </i>
    <i name="ewald"> -12842.21184485 </i>
    <i name="hartreedc">  -1179.21283858 </i>
    <i name="XCdc">  -1033.95632264 </i>
    <i name="pawpsdc">  10575.88222728 </i>
    <i name="pawaedc">  -8613.76247617 </i>
    <i name="eentropy">     -0.00139407 </i>
    <i name="bandstr">   2064.82427184 </i>
    <i name="atom">  12460.60057749 </i>
    <i name="e_fr_energy">   1966.75404077 </i>
    <i name="e_wo_entrp">   1966.75543484 </i>
    <i name="e_0_energy">   1966.75473780 </i>
   </energy>
  </scstep>
  <scstep>
   <time name="dav">   41.39   41.78</time>
   <time name="total">   41.39   41.78</time>
   <energy>
    <i name="e_fr_energy">   -364.15837939 </i>
    <i name="e_wo_entrp">   -364.15708332 </i>
    <i name="e_0_energy">   -364.15773136 </i>
   </energy>
  </scstep>
  <scstep>
   <time name="dav">   43.12   43.53</time>
   <time name="total">   43.12   43.53</time>
   <energy>
    <i name="e_fr_energy">   -580.84279968 </i>
    <i name="e_wo_entrp">   -580.84105200 </i>
    <i name="e_0_energy">   -580.84192584 </i>
   </energy>
  </scstep>
  <scstep>
   <time name="dav">   41.62   42.00</time>
   <time name="total">   41.62   42.01</time>
   <energy>
    <i name="e_fr_energy">   -588.67474065 </i>
    <i name="e_wo_entrp">   -588.67358106 </i>
    <i name="e_0_energy">   -588.67416085 </i>
   </energy>
  </scstep>
  <scstep>
   <time name="dav">   45.42   45.84</time>
   <time name="total">   47.39   47.83</time>
   <energy>
    <i name="e_fr_energy">   -588.97883092 </i>
    <i name="e_wo_entrp">   -588.97765418 </i>
    <i name="e_0_energy">   -588.97824255 </i>
   </energy>
  </scstep>
  <scstep>
   <time name="dav">   42.60   43.00</time>
   <time name="total">   45.87   46.29</time>
   <energy>
    <i name="e_fr_energy">   -579.34864594 </i>
    <i name="e_wo_entrp">   -579.34835279 </i>
    <i name="e_0_energy">   -579.34849936 </i>
   </energy>
  </scstep>
  <scstep>
   <time name="dav">   42.86   43.26</time>
   <time name="total">   46.10   46.52</time>
   <energy>
    <i name="e_fr_energy">   -579.32465509 </i>
    <i name="e_wo_entrp">   -579.32350574 </i>
    <i name="e_0_energy">   -579.32408041 </i>
   </energy>
  </scstep>
  <scstep>
   <time name="dav">   42.72   43.12</time>
   <time name="total">   45.96   46.38</time>
   <energy>
    <i name="e_fr_energy">   -578.47976806 </i>
    <i name="e_wo_entrp">   -578.47805230 </i>
    <i name="e_0_energy">   -578.47891018 </i>
   </energy>
  </scstep>
  <scstep>
   <time name="dav">   41.87   42.26</time>
   <time name="total">   45.11   45.52</time>
   <energy>
    <i name="e_fr_energy">   -578.52774673 </i>
    <i name="e_wo_entrp">   -578.52645412 </i>
    <i name="e_0_energy">   -578.52710042 </i>
   </energy>
  </scstep>
  <scstep>
   <time name="dav">   41.41   41.79</time>
   <time name="total">   44.65   45.05</time>
   <energy>
    <i name="e_fr_energy">   -578.51691058 </i>
    <i name="e_wo_entrp">   -578.51481245 </i>
    <i name="e_0_energy">   -578.51586152 </i>
   </energy>
  </scstep>
  <scstep>
   <time name="dav">   40.39   40.77</time>
   <time name="total">   43.63   44.03</time>
   <energy>
    <i name="e_fr_energy">   -578.51545796 </i>
    <i name="e_wo_entrp">   -578.51344705 </i>
    <i name="e_0_energy">   -578.51445250 </i>
   </energy>
  </scstep>
  <scstep>
   <time name="dav">   40.69   41.07</time>
   <time name="total">   43.94   44.34</time>
   <energy>
    <i name="e_fr_energy">   -578.51698910 </i>
    <i name="e_wo_entrp">   -578.51496663 </i>
    <i name="e_0_energy">   -578.51597787 </i>
   </energy>
  </scstep>
  <scstep>
   <time name="dav">   40.92   41.29</time>
   <time name="total">   44.17   44.56</time>
   <energy>
    <i name="e_fr_energy">   -578.51665012 </i>
    <i name="e_wo_entrp">   -578.51457780 </i>
    <i name="e_0_energy">   -578.51561396 </i>
   </energy>
  </scstep>
  <scstep>
   <time name="dav">   40.06   40.43</time>
   <time name="total">   43.32   43.70</time>
   <energy>
    <i name="e_fr_energy">   -578.51671876 </i>
    <i name="e_wo_entrp">   -578.51465828 </i>
    <i name="e_0_energy">   -578.51568852 </i>
   </energy>
  </scstep>
  <scstep>
   <time name="dav">   40.35   40.71</time>
   <time name="total">   43.59   43.98</time>
   <energy>
    <i name="e_fr_energy">   -578.51675864 </i>
    <i name="e_wo_entrp">   -578.51469924 </i>
    <i name="e_0_energy">   -578.51572894 </i>
   </energy>
  </scstep>
  <scstep>
   <time name="dav">   41.13   41.51</time>
   <time name="total">   44.38   44.78</time>
   <energy>
    <i name="e_fr_energy">   -578.51675276 </i>
    <i name="e_wo_entrp">   -578.51468594 </i>
    <i name="e_0_energy">   -578.51571935 </i>
   </energy>
  </scstep>
  <scstep>
   <time name="dav">   43.45   43.86</time>
   <time name="total">   46.70   47.14</time>
   <energy>
    <i name="e_fr_energy">   -578.51675684 </i>
    <i name="e_wo_entrp">   -578.51468655 </i>
    <i name="e_0_energy">   -578.51572169 </i>
   </energy>
  </scstep>
  <scstep>
   <time name="dav">   40.43   40.80</time>
   <time name="total">   43.69   44.08</time>
   <energy>
    <i name="e_fr_energy">   -578.51675933 </i>
    <i name="e_wo_entrp">   -578.51469012 </i>
    <i name="e_0_energy">   -578.51572472 </i>
   </energy>
  </scstep>
  <scstep>
   <time name="dav">   41.03   41.40</time>
   <time name="total">   44.27   44.67</time>
   <energy>
    <i name="e_fr_energy">   -578.51676216 </i>
    <i name="e_wo_entrp">   -578.51469399 </i>
    <i name="e_0_energy">   -578.51572807 </i>
   </energy>
  </scstep>
  <scstep>
   <time name="dav">   41.62   42.00</time>
   <time name="total">   44.87   45.27</time>
   <energy>
    <i name="e_fr_energy">   -578.51676413 </i>
    <i name="e_wo_entrp">   -578.51469674 </i>
    <i name="e_0_energy">   -578.51573044 </i>
   </energy>
  </scstep>
  <scstep>
   <time name="dav">   27.27   27.52</time>
   <time name="total">   30.49   30.76</time>
   <energy>
    <i name="e_fr_energy">   -578.51676452 </i>
    <i name="e_wo_entrp">   -578.51469759 </i>
    <i name="e_0_energy">   -578.51573106 </i>
   </energy>
  </scstep>
  <scstep>
   <time name="dav">   32.88   33.18</time>
   <time name="total">   36.10   36.42</time>
   <energy>
    <i name="e_fr_energy">   -578.51676502 </i>
    <i name="e_wo_entrp">   -578.51469829 </i>
    <i name="e_0_energy">   -578.51573166 </i>
   </energy>
  </scstep>
  <scstep>
   <time name="dav">   27.41   27.66</time>
   <time name="total">   30.64   30.91</time>
   <energy>
    <i name="e_fr_energy">   -578.51676485 </i>
    <i name="e_wo_entrp">   -578.51469809 </i>
    <i name="e_0_energy">   -578.51573147 </i>
   </energy>
  </scstep>
  <scstep>
   <time name="dav">   25.44   25.67</time>
   <time name="total">   28.65   28.90</time>
   <energy>
    <i name="e_fr_energy">   -578.51676457 </i>
    <i name="e_wo_entrp">   -578.51469769 </i>
    <i name="e_0_energy">   -578.51573113 </i>
   </energy>
  </scstep>
  <scstep>
   <time name="dav">   25.53   25.76</time>
   <time name="total">   26.80   27.04</time>
   <energy>
    <i name="alphaZ">    534.59184046 </i>
    <i name="ewald"> -12842.21184485 </i>
    <i name="hartreedc">  -1384.16336409 </i>
    <i name="XCdc">  -1000.31454086 </i>
    <i name="pawpsdc">  40324.48637540 </i>
    <i name="pawaedc"> -38377.54656845 </i>
    <i name="eentropy">     -0.00206701 </i>
    <i name="bandstr">   -293.95717256 </i>
    <i name="atom">  12460.60057749 </i>
    <i name="e_fr_energy">   -578.51676447 </i>
    <i name="e_wo_entrp">   -578.51469746 </i>
    <i name="e_0_energy">   -578.51573096 </i>
   </energy>
  </scstep>
  <structure>
   <crystal>
    <varray name="basis" >
     <v>       7.68059444       0.00000000       0.00000000 </v>
     <v>       0.00000000      16.29299927       0.00000000 </v>
     <v>       0.00000000       0.00000000      20.80414009 </v>
    </varray>
    <i name="volume">   2603.42841946 </i>
    <varray name="rec_basis" >
     <v>       0.13019826       0.00000000       0.00000000 </v>
     <v>       0.00000000       0.06137605       0.00000000 </v>
     <v>       0.00000000       0.00000000       0.04806736 </v>
    </varray>
   </crystal>
   <varray name="positions" >
    <v>       0.97851729       0.98567820       0.00000000 </v>
    <v>       0.72851723       0.81901145       0.09229647 </v>
    <v>       0.47851718       0.65234476       0.18459295 </v>
    <v>       0.22851723       0.48567814       0.27688938 </v>
    <v>       0.97851718       0.31901139       0.36918586 </v>
    <v>       0.72851718       0.15234470       0.46148235 </v>
    <v>       0.97851729       0.31901154       0.00000000 </v>
    <v>       0.72851723       0.15234485       0.09229647 </v>
    <v>       0.47851718       0.98567814       0.18459295 </v>
    <v>       0.22851723       0.81901151       0.27688938 </v>
    <v>       0.97851718       0.65234476       0.36918586 </v>
    <v>       0.72851718       0.48567808       0.46148235 </v>
    <v>       0.97851729       0.65234494       0.00000000 </v>
    <v>       0.72851723       0.48567820       0.09229647 </v>
    <v>       0.47851718       0.31901151       0.18459295 </v>
    <v>       0.22851723       0.15234487       0.27688938 </v>
    <v>       0.97851718       0.98567814       0.36918586 </v>
    <v>       0.72851718       0.81901139       0.46148235 </v>
    <v>       0.47851729       0.98567820       0.00000000 </v>
    <v>       0.22851725       0.81901145       0.09229647 </v>
    <v>       0.97851723       0.65234476       0.18459295 </v>
    <v>       0.72851729       0.48567814       0.27688935 </v>
    <v>       0.47851718       0.31901139       0.36918586 </v>
    <v>       0.22851712       0.15234470       0.46148235 </v>
    <v>       0.47851729       0.31901154       0.00000000 </v>
    <v>       0.22851725       0.15234485       0.09229647 </v>
    <v>       0.97851723       0.98567814       0.18459295 </v>
    <v>       0.72851729       0.81901151       0.27688935 </v>
    <v>       0.47851718       0.65234476       0.36918586 </v>
    <v>       0.22851712       0.48567808       0.46148235 </v>
    <v>       0.47851729       0.65234494       0.00000000 </v>
    <v>       0.22851725       0.48567820       0.09229647 </v>
    <v>       0.97851723       0.31901151       0.18459295 </v>
    <v>       0.72851729       0.15234487       0.27688935 </v>
    <v>       0.47851718       0.98567814       0.36918586 </v>
    <v>       0.22851712       0.81901139       0.46148235 </v>
    <v>       0.72851735       0.23567820       0.00000000 </v>
    <v>       0.47851729       0.06901149       0.09229647 </v>
    <v>       0.22851726       0.90234476       0.18459295 </v>
    <v>       0.97851729       0.73567814       0.27688938 </v>
    <v>       0.72851723       0.56901145       0.36918586 </v>
    <v>       0.47851723       0.40234464       0.46148229 </v>
    <v>       0.72851735       0.56901163       0.00000000 </v>
    <v>       0.47851729       0.40234488       0.09229647 </v>
    <v>       0.22851726       0.23567820       0.18459295 </v>
    <v>       0.97851729       0.06901154       0.27688938 </v>
    <v>       0.72851723       0.90234482       0.36918586 </v>
    <v>       0.47851723       0.73567808       0.46148229 </v>
    <v>       0.72851735       0.90234494       0.00000000 </v>
    <v>       0.47851729       0.73567820       0.09229647 </v>
    <v>       0.22851726       0.56901151       0.18459295 </v>
    <v>       0.97851729       0.40234485       0.27688938 </v>
    <v>       0.72851723       0.23567812       0.36918586 </v>
    <v>       0.47851723       0.06901138       0.46148229 </v>
    <v>       0.22851729       0.23567820       0.00000000 </v>
    <v>       0.97851723       0.06901149       0.09229647 </v>
    <v>       0.72851718       0.90234476       0.18459295 </v>
    <v>       0.47851729       0.73567814       0.27688935 </v>
    <v>       0.22851718       0.56901145       0.36918586 </v>
    <v>       0.97851706       0.40234464       0.46148235 </v>
    <v>       0.22851729       0.56901163       0.00000000 </v>
    <v>       0.97851723       0.40234488       0.09229647 </v>
    <v>       0.72851718       0.23567820       0.18459295 </v>
    <v>       0.47851729       0.06901154       0.27688935 </v>
    <v>       0.22851718       0.90234482       0.36918586 </v>
    <v>       0.97851706       0.73567808       0.46148235 </v>
    <v>       0.22851729       0.90234494       0.00000000 </v>
    <v>       0.97851723       0.73567820       0.09229647 </v>
    <v>       0.72851718       0.56901151       0.18459295 </v>
    <v>       0.47851729       0.40234485       0.27688935 </v>
    <v>       0.22851718       0.23567812       0.36918586 </v>
    <v>       0.97851706       0.06901138       0.46148235 </v>
    <v>       0.10116363       0.69633603       0.56076908 </v>
    <v>       0.85116369       0.32133609       0.69674677 </v>
    <v>       0.60116369       0.94633615       0.83272451 </v>
    <v>       0.60116363       0.94633603       0.56076908 </v>
    <v>       0.35116363       0.57133609       0.69674677 </v>
    <v>       0.10116363       0.19633615       0.83272451 </v>
    <v>       0.10116363       0.19633615       0.56076908 </v>
    <v>       0.85116369       0.82133615       0.69674677 </v>
    <v>       0.60116369       0.44633609       0.83272451 </v>
    <v>       0.60116357       0.44633606       0.56076908 </v>
    <v>       0.35116363       0.07133615       0.69674677 </v>
    <v>       0.10116363       0.69633609       0.83272451 </v>
    <v>       0.35116360       0.69633603       0.62875789 </v>
    <v>       0.10116363       0.32133609       0.76473570 </v>
    <v>       0.85116369       0.94633603       0.90071338 </v>
    <v>       0.85116363       0.94633603       0.62875789 </v>
    <v>       0.60116363       0.57133609       0.76473570 </v>
    <v>       0.35116360       0.19633603       0.90071338 </v>
    <v>       0.35116366       0.19633615       0.62875789 </v>
    <v>       0.10116363       0.82133615       0.76473570 </v>
    <v>       0.85116363       0.44633609       0.90071338 </v>
    <v>       0.85116357       0.44633606       0.62875789 </v>
    <v>       0.60116363       0.07133615       0.76473570 </v>
    <v>       0.35116363       0.69633609       0.90071338 </v>
    <v>       0.10116363       0.94633609       0.56076908 </v>
    <v>       0.85116375       0.57133615       0.69674677 </v>
    <v>       0.60116369       0.19633615       0.83272451 </v>
    <v>       0.10116363       0.44633609       0.56076908 </v>
    <v>       0.85116369       0.07133615       0.69674677 </v>
    <v>       0.60116369       0.69633609       0.83272451 </v>
    <v>       0.60116363       0.69633609       0.56076908 </v>
    <v>       0.35116366       0.32133615       0.69674677 </v>
    <v>       0.10116363       0.94633615       0.83272451 </v>
    <v>       0.60116363       0.19633615       0.56076908 </v>
    <v>       0.35116363       0.82133609       0.69674677 </v>
    <v>       0.10116363       0.44633615       0.83272451 </v>
    <v>       0.35116369       0.94633609       0.62875789 </v>
    <v>       0.10116363       0.57133615       0.76473570 </v>
    <v>       0.85116363       0.19633615       0.90071338 </v>
    <v>       0.35116363       0.44633609       0.62875789 </v>
    <v>       0.10116363       0.07133615       0.76473570 </v>
    <v>       0.85116363       0.69633609       0.90071338 </v>
    <v>       0.85116363       0.69633603       0.62875789 </v>
    <v>       0.60116363       0.32133606       0.76473570 </v>
    <v>       0.35116357       0.94633603       0.90071338 </v>
    <v>       0.85116363       0.19633615       0.62875789 </v>
    <v>       0.60116363       0.82133615       0.76473570 </v>
    <v>       0.35116360       0.44633609       0.90071338 </v>
   </varray>
  </structure>
  <varray name="forces" >
   <v>       0.05359509       0.47812405       0.81708029 </v>
   <v>      -0.06603508      -0.31631953      -0.22364369 </v>
   <v>      -0.01604542      -0.10816216      -0.03480047 </v>
   <v>      -0.01006151      -0.11877343       0.05780374 </v>
   <v>      -0.06603508      -0.31631953       0.22364369 </v>
   <v>      -0.48525094      -0.26903629      -0.36891499 </v>
   <v>      -0.64255249       0.56596993      -0.65783425 </v>
   <v>      -0.05863509      -0.18733307      -0.08531417 </v>
   <v>      -0.01006151      -0.11877343      -0.05780374 </v>
   <v>      -0.01799376      -0.09599484       0.01435300 </v>
   <v>      -0.05863509      -0.18733307       0.08531417 </v>
   <v>       0.05359509       0.47812405      -0.81708029 </v>
   <v>      -0.48525094      -0.26903629       0.36891499 </v>
   <v>      -0.18841383      -0.13227585      -0.09848830 </v>
   <v>      -0.01799376      -0.09599484      -0.01435300 </v>
   <v>      -0.01604542      -0.10816216       0.03480047 </v>
   <v>      -0.18841383      -0.13227585       0.09848830 </v>
   <v>      -0.64255249       0.56596993       0.65783425 </v>
   <v>       0.05359509       0.47812405       0.81708029 </v>
   <v>      -0.06603508      -0.31631953      -0.22364369 </v>
   <v>      -0.01604542      -0.10816216      -0.03480047 </v>
   <v>      -0.01006151      -0.11877343       0.05780374 </v>
   <v>      -0.06603508      -0.31631953       0.22364369 </v>
   <v>      -0.48525094      -0.26903629      -0.36891499 </v>
   <v>      -0.64255249       0.56596993      -0.65783425 </v>
   <v>      -0.05863509      -0.18733307      -0.08531417 </v>
   <v>      -0.01006151      -0.11877343      -0.05780374 </v>
   <v>      -0.01799376      -0.09599484       0.01435300 </v>
   <v>      -0.05863509      -0.18733307       0.08531417 </v>
   <v>       0.05359509       0.47812405      -0.81708029 </v>
   <v>      -0.48525094      -0.26903629       0.36891499 </v>
   <v>      -0.18841383      -0.13227585      -0.09848830 </v>
   <v>      -0.01799376      -0.09599484      -0.01435300 </v>
   <v>      -0.01604542      -0.10816216       0.03480047 </v>
   <v>      -0.18841383      -0.13227585       0.09848830 </v>
   <v>      -0.64255249       0.56596993       0.65783425 </v>
   <v>       0.38128872       0.31620293       0.60578325 </v>
   <v>       0.05980553       0.31065529      -0.23368094 </v>
   <v>       0.01374376       0.12253816      -0.05654223 </v>
   <v>       0.01899036       0.10969217       0.03765785 </v>
   <v>       0.05980553       0.31065529       0.23368094 </v>
   <v>      -0.04395079      -0.49136552      -0.73044117 </v>
   <v>       0.68581096      -0.56380950      -0.68763140 </v>
   <v>       0.18567558       0.13643563      -0.10663481 </v>
   <v>       0.01899036       0.10969217      -0.03765785 </v>
   <v>       0.01925638       0.09361472       0.01351572 </v>
   <v>       0.18567558       0.13643563       0.10663481 </v>
   <v>       0.38128872       0.31620293      -0.60578325 </v>
   <v>      -0.04395079      -0.49136552       0.73044117 </v>
   <v>       0.06642971       0.17759996      -0.09900775 </v>
   <v>       0.01925638       0.09361472      -0.01351572 </v>
   <v>       0.01374376       0.12253816       0.05654223 </v>
   <v>       0.06642971       0.17759996       0.09900775 </v>
   <v>       0.68581096      -0.56380950       0.68763140 </v>
   <v>       0.38128872       0.31620293       0.60578325 </v>
   <v>       0.05980553       0.31065529      -0.23368094 </v>
   <v>       0.01374376       0.12253816      -0.05654223 </v>
   <v>       0.01899036       0.10969217       0.03765785 </v>
   <v>       0.05980553       0.31065529       0.23368094 </v>
   <v>      -0.04395079      -0.49136552      -0.73044117 </v>
   <v>       0.68581096      -0.56380950      -0.68763140 </v>
   <v>       0.18567558       0.13643563      -0.10663481 </v>
   <v>       0.01899036       0.10969217      -0.03765785 </v>
   <v>       0.01925638       0.09361472       0.01351572 </v>
   <v>       0.18567558       0.13643563       0.10663481 </v>
   <v>       0.38128872       0.31620293      -0.60578325 </v>
   <v>      -0.04395079      -0.49136552       0.73044117 </v>
   <v>       0.06642971       0.17759996      -0.09900775 </v>
   <v>       0.01925638       0.09361472      -0.01351572 </v>
   <v>       0.01374376       0.12253816       0.05654223 </v>
   <v>       0.06642971       0.17759996       0.09900775 </v>
   <v>       0.68581096      -0.56380950       0.68763140 </v>
   <v>      -0.24229890      -0.46060472      -0.37164232 </v>
   <v>       0.32855931       0.01018774      -0.56125449 </v>
   <v>      -0.02054204      -0.00437560      -0.77117354 </v>
   <v>      -0.04267920       0.01237388      -2.38349209 </v>
   <v>      -0.28723298      -0.02132795      -0.57375001 </v>
   <v>       0.19350508       0.10490545      -0.30210583 </v>
   <v>       0.34238201       0.42180868      -0.63479827 </v>
   <v>      -0.24424134       0.06832683      -0.52091157 </v>
   <v>       0.00311112       0.00448436      -0.53721560 </v>
   <v>      -0.00029825       0.01287327       0.13323241 </v>
   <v>       0.23094815      -0.06897820      -0.51630110 </v>
   <v>      -0.21687015      -0.10743638      -0.31856195 </v>
   <v>       0.19350508       0.10490545       0.30210583 </v>
   <v>      -0.24424134       0.06832683       0.52091157 </v>
   <v>      -0.00029825       0.01287327      -0.13323241 </v>
   <v>       0.00311112       0.00448436       0.53721560 </v>
   <v>       0.23094815      -0.06897820       0.51630110 </v>
   <v>      -0.24229890      -0.46060472       0.37164232 </v>
   <v>      -0.21687015      -0.10743638       0.31856195 </v>
   <v>       0.32855931       0.01018774       0.56125449 </v>
   <v>      -0.04267920       0.01237388       2.38349209 </v>
   <v>      -0.02054204      -0.00437560       0.77117354 </v>
   <v>      -0.28723298      -0.02132795       0.57375001 </v>
   <v>       0.34238201       0.42180868       0.63479827 </v>
   <v>      -0.04267920       0.01237388      -2.38349209 </v>
   <v>      -0.28723298      -0.02132795      -0.57375001 </v>
   <v>       0.19350508       0.10490545      -0.30210583 </v>
   <v>      -0.00029825       0.01287327       0.13323241 </v>
   <v>       0.23094815      -0.06897820      -0.51630110 </v>
   <v>      -0.21687015      -0.10743638      -0.31856195 </v>
   <v>      -0.24229890      -0.46060472      -0.37164232 </v>
   <v>       0.32855931       0.01018774      -0.56125449 </v>
   <v>      -0.02054204      -0.00437560      -0.77117354 </v>
   <v>       0.34238201       0.42180868      -0.63479827 </v>
   <v>      -0.24424134       0.06832683      -0.52091157 </v>
   <v>       0.00311112       0.00448436      -0.53721560 </v>
   <v>       0.00311112       0.00448436       0.53721560 </v>
   <v>       0.23094815      -0.06897820       0.51630110 </v>
   <v>      -0.24229890      -0.46060472       0.37164232 </v>
   <v>      -0.02054204      -0.00437560       0.77117354 </v>
   <v>      -0.28723298      -0.02132795       0.57375001 </v>
   <v>       0.34238201       0.42180868       0.63479827 </v>
   <v>       0.19350508       0.10490545       0.30210583 </v>
   <v>      -0.24424134       0.06832683       0.52091157 </v>
   <v>      -0.00029825       0.01287327      -0.13323241 </v>
   <v>      -0.21687015      -0.10743638       0.31856195 </v>
   <v>       0.32855931       0.01018774       0.56125449 </v>
   <v>      -0.04267920       0.01237388       2.38349209 </v>
  </varray>
  <varray name="stress" >
   <v>      51.15004069       9.58235671       0.00000000 </v>
   <v>       9.58235581      11.89514390       0.00000000 </v>
   <v>       0.00000000       0.00000000      31.09217257 </v>
  </varray>
  <energy>
   <i name="e_fr_energy">   -578.51676447 </i>
   <i name="e_wo_entrp">   -578.51469746 </i>
   <i name="e_0_energy">   -578.51573096 </i>
  </energy>
  <time name="totalsc"> 1084.84 1094.96</time>
  <eigenvalues>
   <array>
    <dimension dim="1">band</dimension>
    <dimension dim="2">kpoint</dimension>
    <dimension dim="3">spin</dimension>
    <field>eigene</field>
    <field>occ</field>
    <set>
     <set comment="spin 1">
      <set comment="kpoint 1">
       <r>   -7.9272    1.0000 </r>
       <r>   -7.6187    1.0000 </r>
       <r>   -7.4747    1.0000 </r>
       <r>   -7.3403    1.0000 </r>
       <r>   -7.2306    1.0000 </r>
       <r>   -7.1827    1.0000 </r>
       <r>   -6.9352    1.0000 </r>
       <r>   -6.8955    1.0000 </r>
       <r>   -6.8291    1.0000 </r>
       <r>   -6.5824    1.0000 </r>
       <r>   -6.5123    1.0000 </r>
       <r>   -6.4298    1.0000 </r>
       <r>   -6.3293    1.0000 </r>
       <r>   -6.1965    1.0000 </r>
       <r>   -6.1243    1.0000 </r>
       <r>   -6.1153    1.0000 </r>
       <r>   -6.0899    1.0000 </r>
       <r>   -5.9659    1.0000 </r>
       <r>   -5.9658    1.0000 </r>
       <r>   -5.8180    1.0000 </r>
       <r>   -5.6607    1.0000 </r>
       <r>   -5.6606    1.0000 </r>
       <r>   -5.4868    1.0000 </r>
       <r>   -5.4867    1.0000 </r>
       <r>   -5.4632    1.0000 </r>
       <r>   -5.4631    1.0000 </r>
       <r>   -5.4075    1.0000 </r>
       <r>   -5.4042    1.0000 </r>
       <r>   -5.2509    1.0000 </r>
       <r>   -5.2509    1.0000 </r>
       <r>   -5.2191    1.0000 </r>
       <r>   -5.2037    1.0000 </r>
       <r>   -5.1507    1.0000 </r>
       <r>   -5.1147    1.0000 </r>
       <r>   -5.1146    1.0000 </r>
       <r>   -5.0691    1.0000 </r>
       <r>   -5.0482    1.0000 </r>
       <r>   -5.0374    1.0000 </r>
       <r>   -5.0267    1.0000 </r>
       <r>   -5.0267    1.0000 </r>
       <r>   -4.9797    1.0000 </r>
       <r>   -4.9797    1.0000 </r>
       <r>   -4.8558    1.0000 </r>
       <r>   -4.8497    1.0000 </r>
       <r>   -4.7348    1.0000 </r>
       <r>   -4.7348    1.0000 </r>
       <r>   -4.4443    1.0000 </r>
       <r>   -4.4443    1.0000 </r>
       <r>   -4.3565    1.0000 </r>
       <r>   -4.3565    1.0000 </r>
       <r>   -4.1799    1.0000 </r>
       <r>   -4.1797    1.0000 </r>
       <r>   -4.1229    1.0000 </r>
       <r>   -4.1229    1.0000 </r>
       <r>   -4.0609    1.0000 </r>
       <r>   -4.0609    1.0000 </r>
       <r>   -3.8866    1.0000 </r>
       <r>   -3.7015    1.0000 </r>
       <r>   -3.7015    1.0000 </r>
       <r>   -3.5726    1.0000 </r>
       <r>   -3.5723    1.0000 </r>
       <r>   -3.5723    1.0000 </r>
       <r>   -3.4452    1.0000 </r>
       <r>   -3.4452    1.0000 </r>
       <r>   -3.2705    1.0000 </r>
       <r>   -3.2705    1.0000 </r>
       <r>   -3.1197    1.0000 </r>
       <r>   -2.8789    1.0000 </r>
       <r>   -2.8546    1.0000 </r>
       <r>   -2.8546    1.0000 </r>
       <r>   -2.7953    1.0000 </r>
       <r>   -2.7953    1.0000 </r>
       <r>   -2.6414    1.0000 </r>
       <r>   -2.5522    1.0000 </r>
       <r>   -2.5521    1.0000 </r>
       <r>   -2.5108    1.0000 </r>
       <r>   -2.5108    1.0000 </r>
       <r>   -2.4389    1.0000 </r>
       <r>   -2.4207    1.0000 </r>
       <r>   -2.4206    1.0000 </r>
       <r>   -2.3741    1.0000 </r>
       <r>   -2.3707    1.0000 </r>
       <r>   -2.3707    1.0000 </r>
       <r>   -2.3693    1.0000 </r>
       <r>   -2.3674    1.0000 </r>
       <r>   -2.3587    1.0000 </r>
       <r>   -2.2347    1.0000 </r>
       <r>   -2.1293    1.0000 </r>
       <r>   -2.1293    1.0000 </r>
       <r>   -2.1008    1.0000 </r>
       <r>   -2.1008    1.0000 </r>
       <r>   -2.0103    1.0000 </r>
       <r>   -2.0103    1.0000 </r>
       <r>   -1.9136    1.0000 </r>
       <r>   -1.8989    1.0000 </r>
       <r>   -1.8989    1.0000 </r>
       <r>   -1.7884    1.0000 </r>
       <r>   -1.7758    1.0000 </r>
       <r>   -1.5265    1.0000 </r>
       <r>   -1.4685    1.0000 </r>
       <r>   -1.4685    1.0000 </r>
       <r>   -1.2878    1.0000 </r>
       <r>   -1.1329    1.0000 </r>
       <r>   -1.1328    1.0000 </r>
       <r>   -0.9343    1.0000 </r>
       <r>   -0.9119    1.0000 </r>
       <r>   -0.8349    1.0000 </r>
       <r>   -0.5929    1.0000 </r>
       <r>   -0.5473    1.0000 </r>
       <r>   -0.3850    1.0000 </r>
       <r>   -0.1167    1.0000 </r>
       <r>   -0.0571    1.0000 </r>
       <r>    0.1838    1.0000 </r>
       <r>    0.2863    1.0000 </r>
       <r>    0.3007    1.0000 </r>
       <r>    0.3272    1.0000 </r>
       <r>    0.5760    1.0000 </r>
       <r>    0.5761    1.0000 </r>
       <r>    0.6034    1.0000 </r>
       <r>    0.6034    1.0000 </r>
       <r>    0.6250    1.0000 </r>
       <r>    0.6250    1.0000 </r>
       <r>    0.6898    1.0000 </r>
       <r>    0.8290    1.0000 </r>
       <r>    0.8290    1.0000 </r>
       <r>    0.8321    1.0000 </r>
       <r>    0.8725    1.0000 </r>
       <r>    0.8725    1.0000 </r>
       <r>    0.9308    1.0000 </r>
       <r>    0.9308    1.0000 </r>
       <r>    0.9935    1.0000 </r>
       <r>    1.0676    1.0000 </r>
       <r>    1.0676    1.0000 </r>
       <r>    1.1046    1.0000 </r>
       <r>    1.1046    1.0000 </r>
       <r>    1.1295    1.0000 </r>
       <r>    1.1295    1.0000 </r>
       <r>    1.2509    1.0000 </r>
       <r>    1.2561    1.0000 </r>
       <r>    1.2561    1.0000 </r>
       <r>    1.2570    1.0000 </r>
       <r>    1.3046    1.0000 </r>
       <r>    1.3324    1.0000 </r>
       <r>    1.3324    1.0000 </r>
       <r>    1.3384    1.0000 </r>
       <r>    1.4227    1.0000 </r>
       <r>    1.4228    1.0000 </r>
       <r>    1.4847    1.0000 </r>
       <r>    1.4848    1.0000 </r>
       <r>    1.5525    1.0000 </r>
       <r>    1.5526    1.0000 </r>
       <r>    1.5697    1.0000 </r>
       <r>    1.5697    1.0000 </r>
       <r>    1.7297    1.0000 </r>
       <r>    1.7334    1.0000 </r>
       <r>    1.7354    1.0000 </r>
       <r>    1.7804    1.0000 </r>
       <r>    1.8182    1.0000 </r>
       <r>    1.8186    1.0000 </r>
       <r>    1.8186    1.0000 </r>
       <r>    1.8530    1.0000 </r>
       <r>    1.8530    1.0000 </r>
       <r>    1.9025    1.0000 </r>
       <r>    1.9566    1.0000 </r>
       <r>    1.9715    1.0000 </r>
       <r>    1.9715    1.0000 </r>
       <r>    2.0303    1.0000 </r>
       <r>    2.1225    1.0000 </r>
       <r>    2.1225    1.0000 </r>
       <r>    2.1491    1.0000 </r>
       <r>    2.1829    1.0000 </r>
       <r>    2.1981    1.0000 </r>
       <r>    2.2276    1.0000 </r>
       <r>    2.2276    1.0000 </r>
       <r>    2.2469    1.0000 </r>
       <r>    2.2959    1.0000 </r>
       <r>    2.3366    1.0000 </r>
       <r>    2.3366    1.0000 </r>
       <r>    2.3842    1.0000 </r>
       <r>    2.4056    1.0000 </r>
       <r>    2.4250    1.0000 </r>
       <r>    2.4889    1.0000 </r>
       <r>    2.4890    1.0000 </r>
       <r>    2.5475    1.0000 </r>
       <r>    2.5620    1.0000 </r>
       <r>    2.6287    1.0000 </r>
       <r>    2.6310    1.0000 </r>
       <r>    2.6906    1.0000 </r>
       <r>    2.7218    1.0000 </r>
       <r>    2.7219    1.0000 </r>
       <r>    2.8378    1.0000 </r>
       <r>    2.8378    1.0000 </r>
       <r>    2.8805    1.0000 </r>
       <r>    2.9008    1.0000 </r>
       <r>    2.9331    1.0000 </r>
       <r>    3.0108    1.0000 </r>
       <r>    3.0273    1.0000 </r>
       <r>    3.0275    1.0000 </r>
       <r>    3.0570    1.0000 </r>
       <r>    3.0784    1.0000 </r>
       <r>    3.0975    1.0000 </r>
       <r>    3.1221    1.0000 </r>
       <r>    3.1221    1.0000 </r>
       <r>    3.1896    1.0000 </r>
       <r>    3.2156    1.0000 </r>
       <r>    3.2157    1.0000 </r>
       <r>    3.2206    1.0000 </r>
       <r>    3.2327    1.0000 </r>
       <r>    3.2581    1.0000 </r>
       <r>    3.2582    1.0000 </r>
       <r>    3.2593    1.0000 </r>
       <r>    3.2666    1.0000 </r>
       <r>    3.3445    1.0000 </r>
       <r>    3.3445    1.0000 </r>
       <r>    3.3590    1.0000 </r>
       <r>    3.3692    1.0000 </r>
       <r>    3.3764    1.0000 </r>
       <r>    3.4282    1.0000 </r>
       <r>    3.4629    1.0000 </r>
       <r>    3.4689    1.0000 </r>
       <r>    3.5053    1.0000 </r>
       <r>    3.5174    1.0000 </r>
       <r>    3.5175    1.0000 </r>
       <r>    3.5299    1.0000 </r>
       <r>    3.6722    1.0000 </r>
       <r>    3.7277    1.0000 </r>
       <r>    3.8071    1.0000 </r>
       <r>    3.9058    1.0000 </r>
       <r>    3.9284    1.0000 </r>
       <r>    4.0220    1.0000 </r>
       <r>    4.0365    1.0000 </r>
       <r>    4.1154    1.0000 </r>
       <r>    4.2362    1.0000 </r>
       <r>    4.2363    1.0000 </r>
       <r>    4.2468    1.0000 </r>
       <r>    4.2733    1.0000 </r>
       <r>    4.3578    1.0000 </r>
       <r>    4.5364    1.0000 </r>
       <r>    4.7828    1.0000 </r>
       <r>    4.8300    1.0000 </r>
       <r>    4.8300    1.0000 </r>
       <r>    4.8628    0.8204 </r>
       <r>    5.0138    0.0000 </r>
       <r>    5.0138    0.0000 </r>
       <r>    5.0331    0.0000 </r>
       <r>    5.0331    0.0000 </r>
       <r>    5.0461    0.0000 </r>
       <r>    5.1216    0.0000 </r>
       <r>    5.1572    0.0000 </r>
       <r>    5.4044    0.0000 </r>
       <r>    5.4044    0.0000 </r>
       <r>    5.4144    0.0000 </r>
       <r>    5.4662    0.0000 </r>
       <r>    5.4834    0.0000 </r>
       <r>    5.4835    0.0000 </r>
       <r>    5.5150    0.0000 </r>
       <r>    5.5493    0.0000 </r>
       <r>    5.5494    0.0000 </r>
       <r>    5.5902    0.0000 </r>
       <r>    5.6518    0.0000 </r>
       <r>    5.7276    0.0000 </r>
       <r>    5.7325    0.0000 </r>
       <r>    5.7487    0.0000 </r>
       <r>    5.7731    0.0000 </r>
       <r>    5.7732    0.0000 </r>
       <r>    5.8822    0.0000 </r>
       <r>    5.9627    0.0000 </r>
       <r>    5.9973    0.0000 </r>
       <r>    5.9974    0.0000 </r>
       <r>    6.1045    0.0000 </r>
       <r>    6.1468    0.0000 </r>
       <r>    6.2066    0.0000 </r>
       <r>    6.2633    0.0000 </r>
       <r>    6.2829    0.0000 </r>
       <r>    6.2830    0.0000 </r>
       <r>    6.3845    0.0000 </r>
       <r>    6.4079    0.0000 </r>
       <r>    6.4469    0.0000 </r>
       <r>    6.4827    0.0000 </r>
       <r>    6.4903    0.0000 </r>
       <r>    6.4903    0.0000 </r>
       <r>    6.5518    0.0000 </r>
       <r>    6.5561    0.0000 </r>
       <r>    6.5674    0.0000 </r>
       <r>    6.5737    0.0000 </r>
       <r>    6.5776    0.0000 </r>
       <r>    6.5935    0.0000 </r>
       <r>    6.6195    0.0000 </r>
      </set>
      <set comment="kpoint 2">
       <r>   -7.7863    1.0000 </r>
       <r>   -7.4771    1.0000 </r>
       <r>   -7.3328    1.0000 </r>
       <r>   -7.2035    1.0000 </r>
       <r>   -7.0909    1.0000 </r>
       <r>   -7.0436    1.0000 </r>
       <r>   -6.7951    1.0000 </r>
       <r>   -6.7612    1.0000 </r>
       <r>   -6.7153    1.0000 </r>
       <r>   -6.6973    1.0000 </r>
       <r>   -6.4460    1.0000 </r>
       <r>   -6.3985    1.0000 </r>
       <r>   -6.3797    1.0000 </r>
       <r>   -6.2902    1.0000 </r>
       <r>   -6.2494    1.0000 </r>
       <r>   -6.1826    1.0000 </r>
       <r>   -6.1713    1.0000 </r>
       <r>   -6.0610    1.0000 </r>
       <r>   -6.0569    1.0000 </r>
       <r>   -5.9936    1.0000 </r>
       <r>   -5.9868    1.0000 </r>
       <r>   -5.9833    1.0000 </r>
       <r>   -5.9574    1.0000 </r>
       <r>   -5.7860    1.0000 </r>
       <r>   -5.7564    1.0000 </r>
       <r>   -5.7204    1.0000 </r>
       <r>   -5.6771    1.0000 </r>
       <r>   -5.5217    1.0000 </r>
       <r>   -5.4304    1.0000 </r>
       <r>   -5.2964    1.0000 </r>
       <r>   -5.2917    1.0000 </r>
       <r>   -5.2778    1.0000 </r>
       <r>   -5.1801    1.0000 </r>
       <r>   -5.0891    1.0000 </r>
       <r>   -5.0872    1.0000 </r>
       <r>   -5.0693    1.0000 </r>
       <r>   -5.0404    1.0000 </r>
       <r>   -5.0145    1.0000 </r>
       <r>   -5.0113    1.0000 </r>
       <r>   -4.9727    1.0000 </r>
       <r>   -4.9349    1.0000 </r>
       <r>   -4.9276    1.0000 </r>
       <r>   -4.9097    1.0000 </r>
       <r>   -4.7729    1.0000 </r>
       <r>   -4.7566    1.0000 </r>
       <r>   -4.7219    1.0000 </r>
       <r>   -4.7110    1.0000 </r>
       <r>   -4.7110    1.0000 </r>
       <r>   -4.4170    1.0000 </r>
       <r>   -4.3606    1.0000 </r>
       <r>   -4.2705    1.0000 </r>
       <r>   -4.2520    1.0000 </r>
       <r>   -4.2456    1.0000 </r>
       <r>   -4.2032    1.0000 </r>
       <r>   -3.9904    1.0000 </r>
       <r>   -3.7862    1.0000 </r>
       <r>   -3.7454    1.0000 </r>
       <r>   -3.6918    1.0000 </r>
       <r>   -3.6429    1.0000 </r>
       <r>   -3.5381    1.0000 </r>
       <r>   -3.4486    1.0000 </r>
       <r>   -3.2641    1.0000 </r>
       <r>   -3.2377    1.0000 </r>
       <r>   -3.1969    1.0000 </r>
       <r>   -3.1895    1.0000 </r>
       <r>   -3.1544    1.0000 </r>
       <r>   -3.0179    1.0000 </r>
       <r>   -2.9068    1.0000 </r>
       <r>   -2.8963    1.0000 </r>
       <r>   -2.7966    1.0000 </r>
       <r>   -2.7031    1.0000 </r>
       <r>   -2.6561    1.0000 </r>
       <r>   -2.5205    1.0000 </r>
       <r>   -2.4790    1.0000 </r>
       <r>   -2.4763    1.0000 </r>
       <r>   -2.4399    1.0000 </r>
       <r>   -2.4105    1.0000 </r>
       <r>   -2.3668    1.0000 </r>
       <r>   -2.3601    1.0000 </r>
       <r>   -2.3508    1.0000 </r>
       <r>   -2.3444    1.0000 </r>
       <r>   -2.2703    1.0000 </r>
       <r>   -2.2627    1.0000 </r>
       <r>   -2.2161    1.0000 </r>
       <r>   -2.1796    1.0000 </r>
       <r>   -2.0957    1.0000 </r>
       <r>   -2.0939    1.0000 </r>
       <r>   -1.8940    1.0000 </r>
       <r>   -1.7942    1.0000 </r>
       <r>   -1.7769    1.0000 </r>
       <r>   -1.7713    1.0000 </r>
       <r>   -1.6454    1.0000 </r>
       <r>   -1.5814    1.0000 </r>
       <r>   -1.5447    1.0000 </r>
       <r>   -1.5403    1.0000 </r>
       <r>   -1.4230    1.0000 </r>
       <r>   -1.3720    1.0000 </r>
       <r>   -1.3262    1.0000 </r>
       <r>   -1.1914    1.0000 </r>
       <r>   -1.1477    1.0000 </r>
       <r>   -1.0487    1.0000 </r>
       <r>   -1.0362    1.0000 </r>
       <r>   -0.9886    1.0000 </r>
       <r>   -0.9593    1.0000 </r>
       <r>   -0.9170    1.0000 </r>
       <r>   -0.7390    1.0000 </r>
       <r>   -0.5961    1.0000 </r>
       <r>   -0.4419    1.0000 </r>
       <r>   -0.2284    1.0000 </r>
       <r>   -0.2105    1.0000 </r>
       <r>   -0.1279    1.0000 </r>
       <r>    0.0510    1.0000 </r>
       <r>    0.0921    1.0000 </r>
       <r>    0.1731    1.0000 </r>
       <r>    0.2149    1.0000 </r>
       <r>    0.2389    1.0000 </r>
       <r>    0.2583    1.0000 </r>
       <r>    0.3283    1.0000 </r>
       <r>    0.3304    1.0000 </r>
       <r>    0.3408    1.0000 </r>
       <r>    0.3460    1.0000 </r>
       <r>    0.4482    1.0000 </r>
       <r>    0.4795    1.0000 </r>
       <r>    0.5459    1.0000 </r>
       <r>    0.6251    1.0000 </r>
       <r>    0.7229    1.0000 </r>
       <r>    0.7352    1.0000 </r>
       <r>    0.7456    1.0000 </r>
       <r>    0.7690    1.0000 </r>
       <r>    0.8151    1.0000 </r>
       <r>    0.8208    1.0000 </r>
       <r>    0.8339    1.0000 </r>
       <r>    1.0199    1.0000 </r>
       <r>    1.0783    1.0000 </r>
       <r>    1.1306    1.0000 </r>
       <r>    1.1405    1.0000 </r>
       <r>    1.1505    1.0000 </r>
       <r>    1.1596    1.0000 </r>
       <r>    1.1689    1.0000 </r>
       <r>    1.1788    1.0000 </r>
       <r>    1.2091    1.0000 </r>
       <r>    1.2271    1.0000 </r>
       <r>    1.2407    1.0000 </r>
       <r>    1.2479    1.0000 </r>
       <r>    1.3371    1.0000 </r>
       <r>    1.3558    1.0000 </r>
       <r>    1.3614    1.0000 </r>
       <r>    1.3755    1.0000 </r>
       <r>    1.3873    1.0000 </r>
       <r>    1.4369    1.0000 </r>
       <r>    1.4712    1.0000 </r>
       <r>    1.4900    1.0000 </r>
       <r>    1.4910    1.0000 </r>
       <r>    1.4945    1.0000 </r>
       <r>    1.5574    1.0000 </r>
       <r>    1.6312    1.0000 </r>
       <r>    1.6459    1.0000 </r>
       <r>    1.6707    1.0000 </r>
       <r>    1.7283    1.0000 </r>
       <r>    1.7286    1.0000 </r>
       <r>    1.7753    1.0000 </r>
       <r>    1.7925    1.0000 </r>
       <r>    1.8058    1.0000 </r>
       <r>    1.8204    1.0000 </r>
       <r>    1.8647    1.0000 </r>
       <r>    1.8792    1.0000 </r>
       <r>    1.8840    1.0000 </r>
       <r>    1.9048    1.0000 </r>
       <r>    1.9332    1.0000 </r>
       <r>    1.9346    1.0000 </r>
       <r>    1.9824    1.0000 </r>
       <r>    2.0019    1.0000 </r>
       <r>    2.0131    1.0000 </r>
       <r>    2.0357    1.0000 </r>
       <r>    2.0825    1.0000 </r>
       <r>    2.0833    1.0000 </r>
       <r>    2.0886    1.0000 </r>
       <r>    2.1190    1.0000 </r>
       <r>    2.1479    1.0000 </r>
       <r>    2.1699    1.0000 </r>
       <r>    2.2386    1.0000 </r>
       <r>    2.2564    1.0000 </r>
       <r>    2.2768    1.0000 </r>
       <r>    2.3122    1.0000 </r>
       <r>    2.3560    1.0000 </r>
       <r>    2.4055    1.0000 </r>
[...]
       <r>    -5.2545    49.1679    65.6297 </r>
       <r>    -5.1992    25.1209    67.0179 </r>
       <r>    -5.1440    26.6374    68.4900 </r>
       <r>    -5.0887    47.5750    71.1191 </r>
       <r>    -5.0334    46.7304    73.7016 </r>
       <r>    -4.9782    90.6225    78.7097 </r>
       <r>    -4.9229    59.5121    81.9985 </r>
       <r>    -4.8676    22.9871    83.2689 </r>
       <r>    -4.8124    23.5229    84.5688 </r>
       <r>    -4.7571    26.8195    86.0510 </r>
       <r>    -4.7019    34.4394    87.9542 </r>
       <r>    -4.6466    24.3730    89.3011 </r>
       <r>    -4.5913    45.1883    91.7984 </r>
       <r>    -4.5361    32.9671    93.6202 </r>
       <r>    -4.4808    24.7230    94.9865 </r>
       <r>    -4.4255    32.7076    96.7941 </r>
       <r>    -4.3703    42.7263    99.1553 </r>
       <r>    -4.3150    51.6475   102.0095 </r>
       <r>    -4.2597    32.1575   103.7866 </r>
       <r>    -4.2045    22.9315   105.0538 </r>
       <r>    -4.1492    47.3261   107.6692 </r>
       <r>    -4.0940    31.6906   109.4206 </r>
       <r>    -4.0387    25.2946   110.8185 </r>
       <r>    -3.9834     6.2293   111.1627 </r>
       <r>    -3.9282    19.3966   112.2346 </r>
       <r>    -3.8729    18.0861   113.2341 </r>
       <r>    -3.8176    15.9906   114.1178 </r>
       <r>    -3.7624    18.1352   115.1200 </r>
       <r>    -3.7071    14.9155   115.9443 </r>
       <r>    -3.6519    10.4116   116.5197 </r>
       <r>    -3.5966    14.7161   117.3329 </r>
       <r>    -3.5413    25.0610   118.7179 </r>
       <r>    -3.4861    21.6521   119.9145 </r>
       <r>    -3.4308    34.5547   121.8241 </r>
       <r>    -3.3755    14.0338   122.5996 </r>
       <r>    -3.3203    23.3788   123.8916 </r>
       <r>    -3.2650    16.8478   124.8227 </r>
       <r>    -3.2098    20.7702   125.9705 </r>
       <r>    -3.1545    41.6395   128.2716 </r>
       <r>    -3.0992    28.8173   129.8641 </r>
       <r>    -3.0440    19.9232   130.9652 </r>
       <r>    -2.9887    18.2986   131.9764 </r>
       <r>    -2.9334    22.3261   133.2102 </r>
       <r>    -2.8782    34.8145   135.1341 </r>
       <r>    -2.8229    35.4735   137.0945 </r>
       <r>    -2.7677    33.3860   138.9395 </r>
       <r>    -2.7124    31.6689   140.6897 </r>
       <r>    -2.6571     9.2597   141.2014 </r>
       <r>    -2.6019    22.6796   142.4547 </r>
       <r>    -2.5466    51.6387   145.3084 </r>
       <r>    -2.4913    39.0698   147.4676 </r>
       <r>    -2.4361    53.6476   150.4323 </r>
       <r>    -2.3808    60.3873   153.7695 </r>
       <r>    -2.3256    64.7604   157.3484 </r>
       <r>    -2.2703    57.5237   160.5274 </r>
       <r>    -2.2150    52.5621   163.4321 </r>
       <r>    -2.1598    40.8757   165.6911 </r>
       <r>    -2.1045    51.0715   168.5134 </r>
       <r>    -2.0492    36.0399   170.5051 </r>
       <r>    -1.9940    37.1040   172.5556 </r>
       <r>    -1.9387    50.4405   175.3431 </r>
       <r>    -1.8834    45.5566   177.8607 </r>
       <r>    -1.8282    45.2872   180.3634 </r>
       <r>    -1.7729    27.8248   181.9011 </r>
       <r>    -1.7177    19.9672   183.0045 </r>
       <r>    -1.6624    23.7119   184.3149 </r>
       <r>    -1.6071    20.3591   185.4400 </r>
       <r>    -1.5519    39.7594   187.6373 </r>
       <r>    -1.4966    56.7580   190.7739 </r>
       <r>    -1.4413    61.1708   194.1544 </r>
       <r>    -1.3861    34.5799   196.0654 </r>
       <r>    -1.3308    13.1861   196.7941 </r>
       <r>    -1.2756    21.4196   197.9778 </r>
       <r>    -1.2203     6.5667   198.3407 </r>
       <r>    -1.1650    14.3192   199.1320 </r>
       <r>    -1.1098    20.8640   200.2850 </r>
       <r>    -1.0545    27.7583   201.8190 </r>
       <r>    -0.9992    23.0779   203.0944 </r>
       <r>    -0.9440    18.2092   204.1007 </r>
       <r>    -0.8887    37.3279   206.1635 </r>
       <r>    -0.8335     9.2303   206.6736 </r>
       <r>    -0.7782    26.8771   208.1589 </r>
       <r>    -0.7229    10.2450   208.7251 </r>
       <r>    -0.6677    23.1660   210.0053 </r>
       <r>    -0.6124    18.5989   211.0332 </r>
       <r>    -0.5571    22.0416   212.2513 </r>
       <r>    -0.5019    16.6665   213.1723 </r>
       <r>    -0.4466    33.0973   215.0014 </r>
       <r>    -0.3914    27.6618   216.5301 </r>
       <r>    -0.3361    22.4519   217.7708 </r>
       <r>    -0.2808    17.7540   218.7519 </r>
       <r>    -0.2256    11.4540   219.3849 </r>
       <r>    -0.1703    15.6592   220.2503 </r>
       <r>    -0.1150    11.9049   220.9082 </r>
       <r>    -0.0598    13.2345   221.6396 </r>
       <r>    -0.0045    16.9992   222.5790 </r>
       <r>     0.0507    15.5928   223.4407 </r>
       <r>     0.1060    16.5358   224.3545 </r>
       <r>     0.1613     9.7813   224.8951 </r>
       <r>     0.2165    41.2450   227.1744 </r>
       <r>     0.2718    38.8622   229.3221 </r>
       <r>     0.3271    48.5801   232.0068 </r>
       <r>     0.3823    54.4675   235.0168 </r>
       <r>     0.4376    29.9584   236.6724 </r>
       <r>     0.4929    45.6699   239.1963 </r>
       <r>     0.5481    60.9121   242.5624 </r>
       <r>     0.6034    69.5443   246.4057 </r>
       <r>     0.6586    34.4628   248.3102 </r>
       <r>     0.7139    53.8682   251.2871 </r>
       <r>     0.7692    75.8646   255.4797 </r>
       <r>     0.8244    65.5240   259.1007 </r>
       <r>     0.8797    81.6586   263.6134 </r>
       <r>     0.9350    57.4644   266.7891 </r>
       <r>     0.9902    68.2822   270.5626 </r>
       <r>     1.0455    47.6137   273.1938 </r>
       <r>     1.1007    65.0350   276.7878 </r>
       <r>     1.1560    67.6836   280.5283 </r>
       <r>     1.2113    74.0136   284.6185 </r>
       <r>     1.2665    97.0732   289.9831 </r>
       <r>     1.3218    65.3904   293.5967 </r>
       <r>     1.3771    65.5021   297.2166 </r>
       <r>     1.4323    70.6072   301.1186 </r>
       <r>     1.4876    66.5112   304.7942 </r>
       <r>     1.5428    79.9483   309.2124 </r>
       <r>     1.5981    43.3484   311.6080 </r>
       <r>     1.6534    70.0668   315.4801 </r>
       <r>     1.7086    71.1582   319.4125 </r>
       <r>     1.7639    86.2594   324.1795 </r>
       <r>     1.8192    87.8053   329.0320 </r>
       <r>     1.8744    98.5493   334.4781 </r>
       <r>     1.9297    94.4669   339.6987 </r>
       <r>     1.9849    59.1338   342.9666 </r>
       <r>     2.0402    70.6187   346.8692 </r>
       <r>     2.0955    71.3094   350.8099 </r>
       <r>     2.1507    47.2986   353.4238 </r>
       <r>     2.2060    68.5712   357.2132 </r>
       <r>     2.2613    81.8451   361.7362 </r>
       <r>     2.3165    94.0157   366.9318 </r>
       <r>     2.3718    48.8060   369.6290 </r>
       <r>     2.4270    68.3130   373.4042 </r>
       <r>     2.4823    55.1449   376.4517 </r>
       <r>     2.5376    99.4540   381.9478 </r>
       <r>     2.5928    71.7147   385.9110 </r>
       <r>     2.6481    66.6667   389.5953 </r>
       <r>     2.7034    66.3350   393.2611 </r>
       <r>     2.7586    67.4390   396.9880 </r>
       <r>     2.8139    49.0830   399.7005 </r>
       <r>     2.8691    47.9847   402.3523 </r>
       <r>     2.9244    54.0740   405.3406 </r>
       <r>     2.9797    59.5749   408.6329 </r>
       <r>     3.0349    82.8239   413.2100 </r>
       <r>     3.0902    65.9102   416.8524 </r>
       <r>     3.1455    67.6197   420.5892 </r>
       <r>     3.2007    69.3170   424.4199 </r>
       <r>     3.2560    55.6721   427.4965 </r>
       <r>     3.3113    77.6277   431.7865 </r>
       <r>     3.3665    69.8708   435.6478 </r>
       <r>     3.4218    53.0693   438.5805 </r>
       <r>     3.4770    67.7906   442.3268 </r>
       <r>     3.5323    50.2588   445.1043 </r>
       <r>     3.5876    40.0672   447.3185 </r>
       <r>     3.6428    47.7030   449.9547 </r>
       <r>     3.6981    40.9325   452.2168 </r>
       <r>     3.7534    52.5210   455.1193 </r>
       <r>     3.8086    26.6375   456.5914 </r>
       <r>     3.8639    42.5944   458.9453 </r>
       <r>     3.9191    26.5171   460.4107 </r>
       <r>     3.9744    24.3441   461.7560 </r>
       <r>     4.0297    39.7972   463.9553 </r>
       <r>     4.0849    36.9355   465.9965 </r>
       <r>     4.1402    20.2048   467.1131 </r>
       <r>     4.1955    17.7686   468.0950 </r>
       <r>     4.2507    23.6894   469.4041 </r>
       <r>     4.3060    29.4203   471.0300 </r>
       <r>     4.3612    18.5460   472.0550 </r>
       <r>     4.4165    14.8387   472.8750 </r>
       <r>     4.4718     8.7370   473.3578 </r>
       <r>     4.5270    19.1586   474.4166 </r>
       <r>     4.5823    20.3041   475.5387 </r>
       <r>     4.6376    10.6310   476.1261 </r>
       <r>     4.6928     9.2581   476.6378 </r>
       <r>     4.7481     6.8874   477.0184 </r>
       <r>     4.8033    18.2978   478.0296 </r>
       <r>     4.8586    27.8106   479.5665 </r>
       <r>     4.9139    34.0574   481.4486 </r>
       <r>     4.9691    12.7386   482.1526 </r>
       <r>     5.0244    19.7884   483.2461 </r>
       <r>     5.0797    37.8011   485.3351 </r>
       <r>     5.1349    28.0793   486.8869 </r>
       <r>     5.1902    32.4857   488.6822 </r>
       <r>     5.2454    38.8121   490.8271 </r>
       <r>     5.3007    48.2199   493.4918 </r>
       <r>     5.3560    14.2718   494.2806 </r>
       <r>     5.4112    50.7885   497.0873 </r>
       <r>     5.4665    39.0883   499.2475 </r>
       <r>     5.5218    37.9532   501.3449 </r>
       <r>     5.5770    31.1465   503.0662 </r>
       <r>     5.6323    46.0688   505.6121 </r>
       <r>     5.6876    52.5044   508.5136 </r>
       <r>     5.7428    39.6760   510.7063 </r>
       <r>     5.7981    43.2329   513.0955 </r>
       <r>     5.8533    38.6320   515.2304 </r>
       <r>     5.9086    51.2008   518.0599 </r>
       <r>     5.9639    64.2886   521.6127 </r>
       <r>     6.0191    56.1909   524.7180 </r>
       <r>     6.0744    63.2313   528.2123 </r>
       <r>     6.1297    41.8791   530.5267 </r>
       <r>     6.1849    35.7125   532.5003 </r>
       <r>     6.2402    61.3877   535.8928 </r>
       <r>     6.2954    36.9708   537.9359 </r>
       <r>     6.3507    56.7420   541.0717 </r>
       <r>     6.4060    53.7140   544.0401 </r>
       <r>     6.4612    48.5394   546.7226 </r>
       <r>     6.5165    55.4085   549.7846 </r>
       <r>     6.5718    62.3092   553.2280 </r>
       <r>     6.6270    79.7137   557.6333 </r>
       <r>     6.6823    43.5919   560.0423 </r>
       <r>     6.7375    54.7564   563.0683 </r>
       <r>     6.7928    41.9496   565.3865 </r>
       <r>     6.8481    41.4814   567.6789 </r>
       <r>     6.9033    47.4621   570.3018 </r>
       <r>     6.9586    44.4092   572.7560 </r>
       <r>     7.0139    22.5171   574.0004 </r>
       <r>     7.0691     8.8197   574.4878 </r>
       <r>     7.1244    22.5741   575.7353 </r>
       <r>     7.1796     4.7904   576.0000 </r>
       <r>     7.2349     0.0000   576.0000 </r>
       <r>     7.2902     0.0000   576.0000 </r>
       <r>     7.3454     0.0000   576.0000 </r>
       <r>     7.4007     0.0000   576.0000 </r>
       <r>     7.4560     0.0000   576.0000 </r>
       <r>     7.5112     0.0000   576.0000 </r>
       <r>     7.5665     0.0000   576.0000 </r>
       <r>     7.6217     0.0000   576.0000 </r>
       <r>     7.6770     0.0000   576.0000 </r>
       <r>     7.7323     0.0000   576.0000 </r>
       <r>     7.7875     0.0000   576.0000 </r>
       <r>     7.8428     0.0000   576.0000 </r>
       <r>     7.8981     0.0000   576.0000 </r>
      </set>
     </set>
    </array>
   </total>
  </dos>
 </calculation>
 <structure name="finalpos" >
  <crystal>
   <varray name="basis" >
    <v>       7.68059444       0.00000000       0.00000000 </v>
    <v>       0.00000000      16.29299927       0.00000000 </v>
    <v>       0.00000000       0.00000000      20.80414009 </v>
   </varray>
   <i name="volume">   2603.42841946 </i>
   <varray name="rec_basis" >
    <v>       0.13019826       0.00000000       0.00000000 </v>
    <v>       0.00000000       0.06137605       0.00000000 </v>
    <v>       0.00000000       0.00000000       0.04806736 </v>
   </varray>
  </crystal>
  <varray name="positions" >
   <v>       0.97851729       0.98567820       0.00000000 </v>
   <v>       0.72851723       0.81901145       0.09229647 </v>
   <v>       0.47851718       0.65234476       0.18459295 </v>
   <v>       0.22851723       0.48567814       0.27688938 </v>
   <v>       0.97851718       0.31901139       0.36918586 </v>
   <v>       0.72851718       0.15234470       0.46148235 </v>
   <v>       0.97851729       0.31901154       0.00000000 </v>
   <v>       0.72851723       0.15234485       0.09229647 </v>
   <v>       0.47851718       0.98567814       0.18459295 </v>
   <v>       0.22851723       0.81901151       0.27688938 </v>
   <v>       0.97851718       0.65234476       0.36918586 </v>
   <v>       0.72851718       0.48567808       0.46148235 </v>
   <v>       0.97851729       0.65234494       0.00000000 </v>
   <v>       0.72851723       0.48567820       0.09229647 </v>
   <v>       0.47851718       0.31901151       0.18459295 </v>
   <v>       0.22851723       0.15234487       0.27688938 </v>
   <v>       0.97851718       0.98567814       0.36918586 </v>
   <v>       0.72851718       0.81901139       0.46148235 </v>
   <v>       0.47851729       0.98567820       0.00000000 </v>
   <v>       0.22851725       0.81901145       0.09229647 </v>
   <v>       0.97851723       0.65234476       0.18459295 </v>
   <v>       0.72851729       0.48567814       0.27688935 </v>
   <v>       0.47851718       0.31901139       0.36918586 </v>
   <v>       0.22851712       0.15234470       0.46148235 </v>
   <v>       0.47851729       0.31901154       0.00000000 </v>
   <v>       0.22851725       0.15234485       0.09229647 </v>
   <v>       0.97851723       0.98567814       0.18459295 </v>
   <v>       0.72851729       0.81901151       0.27688935 </v>
   <v>       0.47851718       0.65234476       0.36918586 </v>
   <v>       0.22851712       0.48567808       0.46148235 </v>
   <v>       0.47851729       0.65234494       0.00000000 </v>
   <v>       0.22851725       0.48567820       0.09229647 </v>
   <v>       0.97851723       0.31901151       0.18459295 </v>
   <v>       0.72851729       0.15234487       0.27688935 </v>
   <v>       0.47851718       0.98567814       0.36918586 </v>
   <v>       0.22851712       0.81901139       0.46148235 </v>
   <v>       0.72851735       0.23567820       0.00000000 </v>
   <v>       0.47851729       0.06901149       0.09229647 </v>
   <v>       0.22851726       0.90234476       0.18459295 </v>
   <v>       0.97851729       0.73567814       0.27688938 </v>
   <v>       0.72851723       0.56901145       0.36918586 </v>
   <v>       0.47851723       0.40234464       0.46148229 </v>
   <v>       0.72851735       0.56901163       0.00000000 </v>
   <v>       0.47851729       0.40234488       0.09229647 </v>
   <v>       0.22851726       0.23567820       0.18459295 </v>
   <v>       0.97851729       0.06901154       0.27688938 </v>
   <v>       0.72851723       0.90234482       0.36918586 </v>
   <v>       0.47851723       0.73567808       0.46148229 </v>
   <v>       0.72851735       0.90234494       0.00000000 </v>
   <v>       0.47851729       0.73567820       0.09229647 </v>
   <v>       0.22851726       0.56901151       0.18459295 </v>
   <v>       0.97851729       0.40234485       0.27688938 </v>
   <v>       0.72851723       0.23567812       0.36918586 </v>
   <v>       0.47851723       0.06901138       0.46148229 </v>
   <v>       0.22851729       0.23567820       0.00000000 </v>
   <v>       0.97851723       0.06901149       0.09229647 </v>
   <v>       0.72851718       0.90234476       0.18459295 </v>
   <v>       0.47851729       0.73567814       0.27688935 </v>
   <v>       0.22851718       0.56901145       0.36918586 </v>
   <v>       0.97851706       0.40234464       0.46148235 </v>
   <v>       0.22851729       0.56901163       0.00000000 </v>
   <v>       0.97851723       0.40234488       0.09229647 </v>
   <v>       0.72851718       0.23567820       0.18459295 </v>
   <v>       0.47851729       0.06901154       0.27688935 </v>
   <v>       0.22851718       0.90234482       0.36918586 </v>
   <v>       0.97851706       0.73567808       0.46148235 </v>
   <v>       0.22851729       0.90234494       0.00000000 </v>
   <v>       0.97851723       0.73567820       0.09229647 </v>
   <v>       0.72851718       0.56901151       0.18459295 </v>
   <v>       0.47851729       0.40234485       0.27688935 </v>
   <v>       0.22851718       0.23567812       0.36918586 </v>
   <v>       0.97851706       0.06901138       0.46148235 </v>
   <v>       0.10116363       0.69633603       0.56076908 </v>
   <v>       0.85116369       0.32133609       0.69674677 </v>
   <v>       0.60116369       0.94633615       0.83272451 </v>
   <v>       0.60116363       0.94633603       0.56076908 </v>
   <v>       0.35116363       0.57133609       0.69674677 </v>
   <v>       0.10116363       0.19633615       0.83272451 </v>
   <v>       0.10116363       0.19633615       0.56076908 </v>
   <v>       0.85116369       0.82133615       0.69674677 </v>
   <v>       0.60116369       0.44633609       0.83272451 </v>
   <v>       0.60116357       0.44633606       0.56076908 </v>
   <v>       0.35116363       0.07133615       0.69674677 </v>
   <v>       0.10116363       0.69633609       0.83272451 </v>
   <v>       0.35116360       0.69633603       0.62875789 </v>
   <v>       0.10116363       0.32133609       0.76473570 </v>
   <v>       0.85116369       0.94633603       0.90071338 </v>
   <v>       0.85116363       0.94633603       0.62875789 </v>
   <v>       0.60116363       0.57133609       0.76473570 </v>
   <v>       0.35116360       0.19633603       0.90071338 </v>
   <v>       0.35116366       0.19633615       0.62875789 </v>
   <v>       0.10116363       0.82133615       0.76473570 </v>
   <v>       0.85116363       0.44633609       0.90071338 </v>
   <v>       0.85116357       0.44633606       0.62875789 </v>
   <v>       0.60116363       0.07133615       0.76473570 </v>
   <v>       0.35116363       0.69633609       0.90071338 </v>
   <v>       0.10116363       0.94633609       0.56076908 </v>
   <v>       0.85116375       0.57133615       0.69674677 </v>
   <v>       0.60116369       0.19633615       0.83272451 </v>
   <v>       0.10116363       0.44633609       0.56076908 </v>
   <v>       0.85116369       0.07133615       0.69674677 </v>
   <v>       0.60116369       0.69633609       0.83272451 </v>
   <v>       0.60116363       0.69633609       0.56076908 </v>
   <v>       0.35116366       0.32133615       0.69674677 </v>
   <v>       0.10116363       0.94633615       0.83272451 </v>
   <v>       0.60116363       0.19633615       0.56076908 </v>
   <v>       0.35116363       0.82133609       0.69674677 </v>
   <v>       0.10116363       0.44633615       0.83272451 </v>
   <v>       0.35116369       0.94633609       0.62875789 </v>
   <v>       0.10116363       0.57133615       0.76473570 </v>
   <v>       0.85116363       0.19633615       0.90071338 </v>
   <v>       0.35116363       0.44633609       0.62875789 </v>
   <v>       0.10116363       0.07133615       0.76473570 </v>
   <v>       0.85116363       0.69633609       0.90071338 </v>
   <v>       0.85116363       0.69633603       0.62875789 </v>
   <v>       0.60116363       0.32133606       0.76473570 </v>
   <v>       0.35116357       0.94633603       0.90071338 </v>
   <v>       0.85116363       0.19633615       0.62875789 </v>
   <v>       0.60116363       0.82133615       0.76473570 </v>
   <v>       0.35116360       0.44633609       0.90071338 </v>
  </varray>
 </structure>
</modeling>
