Si and Ge interface calculation         
           1
    16.002676    0.000000    0.000000
     8.001338   13.858725    0.000000
     0.000000    0.000000   20.304012
   Ge   Sn
    96    72
Direct configuration=     1
   0.31088322  0.31088316  0.32176235
   0.97755003  0.97755003  0.00000002
   0.64421654  0.64421660  0.16088121
   0.81088316  0.31088316  0.32176235
   0.47755000  0.97755003  0.00000003
   0.14421658  0.64421660  0.16088121
   0.31088316  0.81088316  0.32176235
   0.97755003  0.47755000  0.00000003
   0.64421660  0.14421658  0.16088121
   0.81088316  0.81088316  0.32176235
   0.47755000  0.47755000  0.00000000
   0.14421657  0.14421657  0.16088118
   0.47754979  0.47754973  0.36198267
   0.14421669  0.14421661  0.04022033
   0.81088328  0.81088322  0.20110148
   0.97754979  0.47754967  0.36198267
   0.64421666  0.14421663  0.04022033
   0.31088328  0.81088322  0.20110148
   0.47754967  0.97754979  0.36198267
   0.14421663  0.64421666  0.04022033
   0.81088322  0.31088328  0.20110148
   0.97754967  0.97754979  0.36198264
   0.64421660  0.64421666  0.04022033
   0.31088316  0.31088325  0.20110145
   0.56088316  0.56088316  0.32176238
   0.22755001  0.22755001  0.00000003
   0.89421660  0.89421660  0.16088118
   0.06088321  0.56088316  0.32176241
   0.72755003  0.22755005  0.00000003
   0.39421660  0.89421660  0.16088121
   0.56088316  0.06088318  0.32176235
   0.22755001  0.72754997  0.00000001
   0.89421654  0.39421660  0.16088118
   0.06088319  0.06088311  0.32176235
   0.72755003  0.72754991  0.00000002
   0.39421663  0.39421657  0.16088121
   0.72754979  0.72754979  0.36198264
   0.39421663  0.39421663  0.04022027
   0.06088319  0.06088319  0.20110145
   0.22754979  0.72754979  0.36198264
   0.89421660  0.39421663  0.04022029
   0.56088316  0.06088319  0.20110145
   0.72754979  0.22754985  0.36198264
   0.39421663  0.89421666  0.04022029
   0.06088320  0.56088328  0.20110145
   0.22754985  0.22754985  0.36198264
   0.89421672  0.89421666  0.04022028
   0.56088328  0.56088328  0.20110145
   0.31088316  0.56088316  0.32176235
   0.97755003  0.22755001  0.00000002
   0.64421654  0.89421660  0.16088121
   0.81088316  0.56088316  0.32176238
   0.47755003  0.22755001  0.00000003
   0.14421660  0.89421660  0.16088121
   0.31088316  0.06088318  0.32176235
   0.97755003  0.72754997  0.00000003
   0.64421660  0.39421660  0.16088121
   0.81088316  0.06088309  0.32176235
   0.47755000  0.72754991  0.00000002
   0.14421661  0.39421654  0.16088118
   0.47754979  0.72754979  0.36198264
   0.14421661  0.39421660  0.04022029
   0.81088316  0.06088319  0.20110145
   0.97754973  0.72754979  0.36198264
   0.64421660  0.39421663  0.04022029
   0.31088316  0.06088319  0.20110145
   0.47754973  0.22754985  0.36198261
   0.14421663  0.89421666  0.04022028
   0.81088316  0.56088328  0.20110145
   0.97754979  0.22754985  0.36198261
   0.64421666  0.89421666  0.04022027
   0.31088322  0.56088328  0.20110145
   0.56088311  0.31088316  0.32176235
   0.22755001  0.97755003  0.00000002
   0.89421660  0.64421660  0.16088121
   0.06088318  0.31088316  0.32176238
   0.72754997  0.97755003  0.00000003
   0.39421663  0.64421660  0.16088121
   0.56088316  0.81088316  0.32176238
   0.22755000  0.47755000  0.00000003
   0.89421660  0.14421658  0.16088121
   0.06088318  0.81088311  0.32176235
   0.72754997  0.47754994  0.00000001
   0.39421660  0.14421654  0.16088118
   0.72754979  0.47754985  0.36198267
   0.39421669  0.14421672  0.04022032
   0.06088328  0.81088334  0.20110148
   0.22754967  0.47754985  0.36198267
   0.89421666  0.14421673  0.04022032
   0.56088328  0.81088334  0.20110145
   0.72754979  0.97754985  0.36198264
   0.39421669  0.64421672  0.04022033
   0.06088328  0.31088337  0.20110148
   0.22754973  0.97754979  0.36198267
   0.89421666  0.64421666  0.04022032
   0.56088328  0.31088328  0.20110145
   0.13836478  0.89954048  0.84244829
   0.13836478  0.56620717  0.47340387
   0.13836478  0.23287380  0.65792608
   0.47169811  0.23287392  0.84244823
   0.47169811  0.89954054  0.47340387
   0.47169811  0.56620717  0.65792608
   0.80503148  0.56620717  0.84244829
   0.80503148  0.23287392  0.47340387
   0.80503148  0.89954054  0.65792608
   0.47169811  0.89954054  0.88857889
   0.47169811  0.56620717  0.51953441
   0.47169811  0.23287380  0.70405662
   0.13836478  0.56620717  0.88857889
   0.13836478  0.23287380  0.51953441
   0.13836478  0.89954042  0.70405662
   0.80503154  0.23287380  0.88857889
   0.80503154  0.89954042  0.51953441
   0.80503154  0.56620717  0.70405662
   0.63836473  0.89954048  0.84244823
   0.63836473  0.56620717  0.47340387
   0.63836473  0.23287380  0.65792608
   0.30503145  0.56620717  0.84244823
   0.30503148  0.23287392  0.47340384
   0.30503148  0.89954054  0.65792608
   0.97169816  0.23287392  0.84244829
   0.97169816  0.89954054  0.47340387
   0.97169816  0.56620717  0.65792614
   0.30503142  0.23287392  0.88857889
   0.30503145  0.89954054  0.51953441
   0.30503145  0.56620717  0.70405662
   0.97169816  0.89954054  0.88857883
   0.97169816  0.56620717  0.51953435
   0.97169816  0.23287380  0.70405656
   0.63836479  0.56620717  0.88857889
   0.63836479  0.23287380  0.51953435
   0.63836479  0.89954048  0.70405656
   0.30503145  0.06620717  0.84244829
   0.30503145  0.73287386  0.47340387
   0.30503145  0.39954042  0.65792608
   0.63836473  0.39954042  0.84244829
   0.63836473  0.06620717  0.47340387
   0.63836473  0.73287380  0.65792608
   0.97169805  0.73287392  0.84244823
   0.97169805  0.39954066  0.47340381
   0.97169805  0.06620729  0.65792602
   0.63836473  0.06620717  0.88857889
   0.63836473  0.73287380  0.51953441
   0.63836473  0.39954042  0.70405662
   0.30503142  0.73287392  0.88857883
   0.30503142  0.39954054  0.51953435
   0.30503142  0.06620717  0.70405656
   0.97169816  0.39954042  0.88857889
   0.97169816  0.06620717  0.51953441
   0.97169816  0.73287380  0.70405662
   0.13836478  0.39954042  0.84244829
   0.13836478  0.06620717  0.47340387
   0.13836478  0.73287380  0.65792608
   0.80503148  0.06620717  0.84244823
   0.80503148  0.73287386  0.47340387
   0.80503148  0.39954042  0.65792608
   0.47169811  0.73287374  0.84244829
   0.47169811  0.39954042  0.47340387
   0.47169811  0.06620717  0.65792602
   0.13836478  0.06620717  0.88857889
   0.13836478  0.73287392  0.51953441
   0.13836478  0.39954054  0.70405662
   0.47169811  0.39954054  0.88857889
   0.47169811  0.06620717  0.51953441
   0.47169811  0.73287386  0.70405662
   0.80503148  0.73287392  0.88857889
   0.80503148  0.39954054  0.51953447
   0.80503148  0.06620717  0.70405662
