  96  96   0   0
  0.2924478E+02  0.1131560E-08  0.1789154E-08  0.1386738E-08  0.5000000E-15
  1.000000000000000E-004
  CAR 
 Si and Ge interface calculation         
      5.97469726    -10.58466119  301      3.22017606      1.00000000
    -10.585  0.0000E+00  0.0000E+00  0.0000E+00  0.0000E+00
    -10.529  0.0000E+00  0.0000E+00  0.0000E+00  0.0000E+00
    -10.474  0.0000E+00  0.0000E+00  0.0000E+00  0.0000E+00
    -10.419  0.0000E+00  0.0000E+00  0.0000E+00  0.0000E+00
    -10.364  0.0000E+00  0.0000E+00  0.0000E+00  0.0000E+00
    -10.309  0.0000E+00  0.0000E+00  0.0000E+00  0.0000E+00
    -10.253  0.0000E+00  0.0000E+00  0.0000E+00  0.0000E+00
    -10.198  0.0000E+00  0.0000E+00  0.0000E+00  0.0000E+00
    -10.143  0.0000E+00  0.0000E+00  0.0000E+00  0.0000E+00
    -10.088  0.0000E+00  0.0000E+00  0.0000E+00  0.0000E+00
    -10.033  0.0000E+00  0.0000E+00  0.0000E+00  0.0000E+00
     -9.977  0.0000E+00  0.0000E+00  0.0000E+00  0.0000E+00
     -9.922  0.0000E+00  0.0000E+00  0.0000E+00  0.0000E+00
     -9.867  0.2141E-05  0.6781E-07  0.1182E-06  0.3743E-08
     -9.812  0.2949E+02  0.2273E+02  0.1628E+01  0.1254E+01
     -9.757  0.4298E+02  0.4973E+02  0.4000E+01  0.4000E+01
     -9.701  0.0000E+00  0.4847E-02  0.4000E+01  0.4000E+01
     -9.646  0.0000E+00  0.0000E+00  0.4000E+01  0.4000E+01
     -9.591  0.0000E+00  0.0000E+00  0.4000E+01  0.4000E+01
     -9.536  0.0000E+00  0.0000E+00  0.4000E+01  0.4000E+01
     -9.481  0.0000E+00  0.0000E+00  0.4000E+01  0.4000E+01
     -9.426  0.0000E+00  0.0000E+00  0.4000E+01  0.4000E+01
     -9.370  0.0000E+00  0.0000E+00  0.4000E+01  0.4000E+01
     -9.315  0.0000E+00  0.0000E+00  0.4000E+01  0.4000E+01
     -9.260  0.6918E-02  0.1588E-03  0.4000E+01  0.4000E+01
     -9.205  0.3166E+02  0.2216E+02  0.5748E+01  0.5223E+01
     -9.150  0.4079E+02  0.5016E+02  0.8000E+01  0.7992E+01
     -9.094  0.8270E-02  0.1475E+00  0.8000E+01  0.8000E+01
     -9.039  0.0000E+00  0.0000E+00  0.8000E+01  0.8000E+01
     -8.984  0.0000E+00  0.0000E+00  0.8000E+01  0.8000E+01
     -8.929  0.0000E+00  0.0000E+00  0.8000E+01  0.8000E+01
     -8.874  0.0000E+00  0.0000E+00  0.8000E+01  0.8000E+01
     -8.818  0.0000E+00  0.0000E+00  0.8000E+01  0.8000E+01
     -8.763  0.0000E+00  0.0000E+00  0.8000E+01  0.8000E+01
     -8.708  0.1754E+00  0.5409E-02  0.8010E+01  0.8000E+01
     -8.653  0.1794E+02  0.1811E+02  0.9000E+01  0.9000E+01
     -8.598  0.3618E+02  0.3524E+02  0.1100E+02  0.1095E+02
     -8.542  0.5268E-01  0.9919E+00  0.1100E+02  0.1100E+02
     -8.487  0.3609E+01  0.5469E+00  0.1120E+02  0.1103E+02
     -8.432  0.1451E+02  0.1757E+02  0.1200E+02  0.1200E+02
     -8.377  0.0000E+00  0.0000E+00  0.1200E+02  0.1200E+02
     -8.322  0.0000E+00  0.0000E+00  0.1200E+02  0.1200E+02
     -8.266  0.7041E-03  0.3773E-05  0.1200E+02  0.1200E+02
     -8.211  0.1042E+02  0.6788E+01  0.1258E+02  0.1237E+02
     -8.156  0.7696E+01  0.1133E+02  0.1300E+02  0.1300E+02
     -8.101  0.1191E+02  0.9889E+01  0.1366E+02  0.1355E+02
     -8.046  0.2143E+02  0.1771E+02  0.1484E+02  0.1452E+02
     -7.990  0.1456E+02  0.1758E+02  0.1564E+02  0.1549E+02
     -7.935  0.6801E+01  0.9150E+01  0.1602E+02  0.1600E+02
     -7.880  0.3365E+02  0.2794E+02  0.1788E+02  0.1754E+02
     -7.825  0.1431E+02  0.2040E+02  0.1867E+02  0.1867E+02
     -7.770  0.6037E+01  0.6037E+01  0.1900E+02  0.1900E+02
     -7.714  0.1829E+02  0.1503E+02  0.2001E+02  0.1983E+02
     -7.659  0.1607E+02  0.1575E+02  0.2090E+02  0.2070E+02
     -7.604  0.1871E+01  0.5460E+01  0.2100E+02  0.2100E+02
     -7.549  0.9524E+00  0.3843E-01  0.2105E+02  0.2100E+02
     -7.494  0.3171E+02  0.2240E+02  0.2280E+02  0.2224E+02
     -7.438  0.4264E+01  0.1386E+02  0.2304E+02  0.2300E+02
     -7.383  0.1865E+02  0.1186E+02  0.2407E+02  0.2366E+02
     -7.328  0.3384E+02  0.3618E+02  0.2594E+02  0.2566E+02
     -7.273  0.3137E+02  0.3628E+02  0.2767E+02  0.2766E+02
     -7.218  0.1579E+01  0.2455E+00  0.2775E+02  0.2767E+02
     -7.162  0.2258E+02  0.2406E+02  0.2900E+02  0.2900E+02
     -7.107  0.1541E+02  0.1424E+02  0.2985E+02  0.2979E+02
     -7.052  0.3577E+02  0.3406E+02  0.3183E+02  0.3167E+02
     -6.997  0.3135E+02  0.2880E+02  0.3356E+02  0.3326E+02
     -6.942  0.5238E+01  0.8316E+01  0.3385E+02  0.3371E+02
     -6.886  0.2842E+02  0.2527E+02  0.3541E+02  0.3511E+02
     -6.831  0.2431E+02  0.2107E+02  0.3676E+02  0.3627E+02
     -6.776  0.2592E+02  0.2872E+02  0.3819E+02  0.3786E+02
     -6.721  0.5791E+01  0.1164E+02  0.3851E+02  0.3850E+02
     -6.666  0.2787E+02  0.2130E+02  0.4004E+02  0.3968E+02
     -6.610  0.2318E+02  0.2862E+02  0.4132E+02  0.4126E+02
     -6.555  0.1631E+02  0.1447E+02  0.4222E+02  0.4205E+02
     -6.500  0.3223E+02  0.2698E+02  0.4400E+02  0.4354E+02
     -6.445  0.2891E+02  0.3526E+02  0.4560E+02  0.4549E+02
     -6.390  0.3816E+02  0.3318E+02  0.4771E+02  0.4732E+02
     -6.334  0.3540E+02  0.4099E+02  0.4966E+02  0.4958E+02
     -6.279  0.9726E+01  0.8362E+01  0.5020E+02  0.5005E+02
     -6.224  0.1365E+02  0.1392E+02  0.5095E+02  0.5081E+02
     -6.169  0.3100E+02  0.3021E+02  0.5266E+02  0.5248E+02
     -6.114  0.1669E+02  0.1872E+02  0.5358E+02  0.5351E+02
     -6.058  0.2712E+02  0.2431E+02  0.5508E+02  0.5486E+02
     -6.003  0.4359E+02  0.4007E+02  0.5748E+02  0.5707E+02
     -5.948  0.4193E+02  0.4394E+02  0.5980E+02  0.5949E+02
     -5.893  0.1445E+02  0.1846E+02  0.6060E+02  0.6051E+02
     -5.838  0.3245E+02  0.3270E+02  0.6239E+02  0.6232E+02
     -5.782  0.1768E+02  0.1763E+02  0.6336E+02  0.6329E+02
     -5.727  0.3634E+02  0.3209E+02  0.6537E+02  0.6506E+02
     -5.672  0.2936E+02  0.3142E+02  0.6699E+02  0.6680E+02
     -5.617  0.3840E+02  0.3514E+02  0.6911E+02  0.6874E+02
     -5.562  0.4020E+02  0.3723E+02  0.7133E+02  0.7079E+02
     -5.506  0.4088E+02  0.4440E+02  0.7359E+02  0.7324E+02
     -5.451  0.3155E+02  0.3534E+02  0.7533E+02  0.7519E+02
     -5.396  0.3551E+02  0.3508E+02  0.7729E+02  0.7713E+02
     -5.341  0.3197E+02  0.3068E+02  0.7905E+02  0.7882E+02
     -5.286  0.1062E+02  0.1238E+02  0.7964E+02  0.7951E+02
     -5.230  0.3544E+02  0.3174E+02  0.8159E+02  0.8126E+02
     -5.175  0.3141E+02  0.3053E+02  0.8333E+02  0.8294E+02
     -5.120  0.3470E+02  0.3621E+02  0.8524E+02  0.8494E+02
     -5.065  0.3108E+02  0.2836E+02  0.8696E+02  0.8651E+02
     -5.010  0.2605E+02  0.3182E+02  0.8840E+02  0.8826E+02
     -4.954  0.2674E+02  0.2779E+02  0.8987E+02  0.8980E+02
     -4.899  0.3991E+02  0.2883E+02  0.9208E+02  0.9139E+02
     -4.844  0.2748E+02  0.3841E+02  0.9359E+02  0.9351E+02
     -4.789  0.2500E+02  0.2109E+02  0.9497E+02  0.9467E+02
     -4.734  0.3360E+02  0.3738E+02  0.9683E+02  0.9674E+02
     -4.678  0.2886E+02  0.2479E+02  0.9842E+02  0.9811E+02
     -4.623  0.1545E+02  0.1897E+02  0.9927E+02  0.9915E+02
     -4.568  0.3656E+02  0.3661E+02  0.1013E+03  0.1012E+03
     -4.513  0.1677E+02  0.1391E+02  0.1022E+03  0.1019E+03
     -4.458  0.2327E+02  0.2325E+02  0.1035E+03  0.1032E+03
     -4.403  0.2717E+02  0.3215E+02  0.1050E+03  0.1050E+03
     -4.347  0.3016E+02  0.2643E+02  0.1067E+03  0.1065E+03
     -4.292  0.2893E+02  0.2934E+02  0.1083E+03  0.1081E+03
     -4.237  0.2852E+02  0.2786E+02  0.1098E+03  0.1096E+03
     -4.182  0.2551E+02  0.2141E+02  0.1112E+03  0.1108E+03
     -4.127  0.3841E+02  0.4183E+02  0.1134E+03  0.1131E+03
     -4.071  0.1961E+02  0.1795E+02  0.1144E+03  0.1141E+03
     -4.016  0.2096E+02  0.2508E+02  0.1156E+03  0.1155E+03
     -3.961  0.2514E+02  0.2193E+02  0.1170E+03  0.1167E+03
     -3.906  0.2852E+02  0.2993E+02  0.1186E+03  0.1183E+03
     -3.851  0.2221E+02  0.2013E+02  0.1198E+03  0.1195E+03
     -3.795  0.4328E+01  0.9919E+01  0.1200E+03  0.1200E+03
     -3.740  0.2850E+02  0.2166E+02  0.1216E+03  0.1212E+03
     -3.685  0.2599E+02  0.2656E+02  0.1230E+03  0.1227E+03
     -3.630  0.3069E+02  0.3177E+02  0.1247E+03  0.1244E+03
     -3.575  0.2310E+02  0.2574E+02  0.1260E+03  0.1258E+03
     -3.519  0.3101E+02  0.3266E+02  0.1277E+03  0.1276E+03
     -3.464  0.3603E+02  0.3395E+02  0.1297E+03  0.1295E+03
     -3.409  0.2638E+02  0.2873E+02  0.1312E+03  0.1311E+03
     -3.354  0.1756E+02  0.1647E+02  0.1321E+03  0.1320E+03
     -3.299  0.3413E+02  0.3077E+02  0.1340E+03  0.1337E+03
     -3.243  0.2771E+02  0.3147E+02  0.1355E+03  0.1354E+03
     -3.188  0.2392E+02  0.2099E+02  0.1369E+03  0.1366E+03
     -3.133  0.3450E+02  0.3486E+02  0.1388E+03  0.1385E+03
     -3.078  0.2633E+02  0.2869E+02  0.1402E+03  0.1401E+03
     -3.023  0.5635E+02  0.4802E+02  0.1433E+03  0.1428E+03
     -2.967  0.3360E+02  0.4253E+02  0.1452E+03  0.1451E+03
     -2.912  0.2744E+02  0.2368E+02  0.1467E+03  0.1464E+03
     -2.857  0.2048E+02  0.2563E+02  0.1478E+03  0.1478E+03
     -2.802  0.2814E+02  0.2447E+02  0.1494E+03  0.1492E+03
     -2.747  0.2286E+02  0.2453E+02  0.1506E+03  0.1505E+03
     -2.691  0.2103E+02  0.2053E+02  0.1518E+03  0.1517E+03
     -2.636  0.2896E+02  0.2942E+02  0.1534E+03  0.1533E+03
     -2.581  0.2037E+02  0.2188E+02  0.1545E+03  0.1545E+03
     -2.526  0.3799E+02  0.3556E+02  0.1566E+03  0.1565E+03
     -2.471  0.3719E+02  0.3944E+02  0.1587E+03  0.1586E+03
     -2.415  0.2191E+02  0.1639E+02  0.1599E+03  0.1595E+03
     -2.360  0.3094E+02  0.3332E+02  0.1616E+03  0.1614E+03
     -2.305  0.2221E+02  0.2485E+02  0.1628E+03  0.1628E+03
     -2.250  0.1284E+02  0.1012E+02  0.1635E+03  0.1633E+03
     -2.195  0.2339E+02  0.2538E+02  0.1648E+03  0.1647E+03
     -2.139  0.3246E+02  0.2824E+02  0.1666E+03  0.1663E+03
     -2.084  0.2491E+02  0.2826E+02  0.1680E+03  0.1678E+03
     -2.029  0.3038E+02  0.2868E+02  0.1697E+03  0.1694E+03
     -1.974  0.3478E+02  0.3617E+02  0.1716E+03  0.1714E+03
     -1.919  0.5869E+01  0.7751E+01  0.1719E+03  0.1718E+03
     -1.863  0.2053E+02  0.1481E+02  0.1730E+03  0.1727E+03
     -1.808  0.2634E+02  0.3330E+02  0.1745E+03  0.1745E+03
     -1.753  0.1160E+02  0.8258E+01  0.1751E+03  0.1750E+03
     -1.698  0.2132E+02  0.2224E+02  0.1763E+03  0.1762E+03
     -1.643  0.1238E+02  0.1478E+02  0.1770E+03  0.1770E+03
     -1.587  0.1197E+02  0.9577E+01  0.1777E+03  0.1775E+03
     -1.532  0.1566E+02  0.1520E+02  0.1785E+03  0.1784E+03
     -1.477  0.3042E+02  0.2983E+02  0.1802E+03  0.1800E+03
     -1.422  0.1140E+02  0.1487E+02  0.1808E+03  0.1808E+03
     -1.367  0.1512E+02  0.1503E+02  0.1817E+03  0.1817E+03
     -1.311  0.2314E+02  0.2134E+02  0.1829E+03  0.1828E+03
     -1.256  0.1615E+02  0.1794E+02  0.1838E+03  0.1838E+03
     -1.201  0.3482E+02  0.3212E+02  0.1858E+03  0.1856E+03
     -1.146  0.1654E+02  0.1921E+02  0.1867E+03  0.1867E+03
     -1.091  0.1817E+02  0.1790E+02  0.1877E+03  0.1877E+03
     -1.035  0.2671E+02  0.2520E+02  0.1891E+03  0.1890E+03
     -0.980  0.1444E+02  0.1482E+02  0.1899E+03  0.1899E+03
     -0.925  0.2850E+02  0.2214E+02  0.1915E+03  0.1911E+03
     -0.870  0.3110E+02  0.3604E+02  0.1932E+03  0.1931E+03
     -0.815  0.1249E+02  0.1335E+02  0.1939E+03  0.1938E+03
     -0.759  0.1859E+02  0.1191E+02  0.1950E+03  0.1945E+03
     -0.704  0.3108E+02  0.3892E+02  0.1967E+03  0.1966E+03
     -0.649  0.2317E+02  0.2149E+02  0.1979E+03  0.1978E+03
     -0.594  0.1289E+02  0.1315E+02  0.1987E+03  0.1985E+03
     -0.539  0.1251E+02  0.1428E+02  0.1993E+03  0.1993E+03
     -0.483  0.5127E+02  0.4440E+02  0.2022E+03  0.2018E+03
     -0.428  0.2831E+02  0.2906E+02  0.2037E+03  0.2034E+03
     -0.373  0.2729E+02  0.2869E+02  0.2052E+03  0.2050E+03
     -0.318  0.3974E+02  0.3866E+02  0.2074E+03  0.2071E+03
     -0.263  0.4634E+02  0.5141E+02  0.2100E+03  0.2099E+03
     -0.207  0.4221E+02  0.3820E+02  0.2123E+03  0.2120E+03
     -0.152  0.5086E+02  0.4647E+02  0.2151E+03  0.2146E+03
     -0.097  0.3298E+02  0.3615E+02  0.2170E+03  0.2166E+03
     -0.042  0.5595E+02  0.5593E+02  0.2200E+03  0.2197E+03
      0.013  0.4427E+02  0.4051E+02  0.2225E+03  0.2219E+03
      0.069  0.5860E+02  0.5822E+02  0.2257E+03  0.2251E+03
      0.124  0.3505E+02  0.4144E+02  0.2277E+03  0.2274E+03
      0.179  0.4651E+02  0.4276E+02  0.2302E+03  0.2298E+03
      0.234  0.4334E+02  0.4730E+02  0.2326E+03  0.2324E+03
      0.289  0.7123E+02  0.6798E+02  0.2365E+03  0.2361E+03
      0.345  0.4917E+02  0.4542E+02  0.2393E+03  0.2387E+03
      0.400  0.7182E+02  0.7157E+02  0.2432E+03  0.2426E+03
      0.455  0.5234E+02  0.5974E+02  0.2461E+03  0.2459E+03
      0.510  0.4870E+02  0.3532E+02  0.2488E+03  0.2478E+03
      0.565  0.5244E+02  0.6209E+02  0.2517E+03  0.2513E+03
      0.621  0.5693E+02  0.5709E+02  0.2548E+03  0.2544E+03
      0.676  0.5474E+02  0.5583E+02  0.2579E+03  0.2575E+03
      0.731  0.6158E+02  0.6024E+02  0.2613E+03  0.2608E+03
      0.786  0.6664E+02  0.6882E+02  0.2649E+03  0.2646E+03
      0.841  0.6015E+02  0.5860E+02  0.2683E+03  0.2679E+03
      0.896  0.6651E+02  0.6498E+02  0.2719E+03  0.2715E+03
      0.952  0.5139E+02  0.5082E+02  0.2748E+03  0.2743E+03
      1.007  0.6493E+02  0.6548E+02  0.2784E+03  0.2779E+03
      1.062  0.7030E+02  0.7168E+02  0.2822E+03  0.2818E+03
      1.117  0.5521E+02  0.5346E+02  0.2853E+03  0.2848E+03
      1.172  0.6265E+02  0.6238E+02  0.2887E+03  0.2882E+03
      1.228  0.5363E+02  0.5469E+02  0.2917E+03  0.2912E+03
      1.283  0.5020E+02  0.4913E+02  0.2945E+03  0.2940E+03
      1.338  0.6380E+02  0.6853E+02  0.2980E+03  0.2977E+03
      1.393  0.4599E+02  0.4042E+02  0.3005E+03  0.3000E+03
      1.448  0.6335E+02  0.6080E+02  0.3040E+03  0.3033E+03
      1.504  0.5153E+02  0.5827E+02  0.3069E+03  0.3065E+03
      1.559  0.3240E+02  0.3349E+02  0.3087E+03  0.3084E+03
      1.614  0.6233E+02  0.6524E+02  0.3121E+03  0.3120E+03
      1.669  0.4965E+02  0.4110E+02  0.3148E+03  0.3143E+03
      1.724  0.6418E+02  0.6376E+02  0.3184E+03  0.3178E+03
      1.780  0.4618E+02  0.5083E+02  0.3209E+03  0.3206E+03
      1.835  0.3004E+02  0.3314E+02  0.3226E+03  0.3224E+03
      1.890  0.5195E+02  0.4809E+02  0.3255E+03  0.3251E+03
      1.945  0.3913E+02  0.3723E+02  0.3276E+03  0.3271E+03
      2.000  0.4600E+02  0.4956E+02  0.3302E+03  0.3299E+03
      2.056  0.5461E+02  0.4546E+02  0.3332E+03  0.3324E+03
      2.111  0.4465E+02  0.4981E+02  0.3356E+03  0.3351E+03
      2.166  0.4324E+02  0.4428E+02  0.3380E+03  0.3376E+03
      2.221  0.5244E+02  0.4625E+02  0.3409E+03  0.3401E+03
      2.276  0.4620E+02  0.5609E+02  0.3435E+03  0.3432E+03
      2.332  0.4632E+02  0.3874E+02  0.3460E+03  0.3453E+03
      2.387  0.5314E+02  0.4733E+02  0.3490E+03  0.3480E+03
      2.442  0.3630E+02  0.4609E+02  0.3510E+03  0.3505E+03
      2.497  0.4852E+02  0.4023E+02  0.3536E+03  0.3527E+03
      2.552  0.4761E+02  0.5649E+02  0.3563E+03  0.3558E+03
      2.608  0.5134E+02  0.4894E+02  0.3591E+03  0.3585E+03
      2.663  0.4794E+02  0.5154E+02  0.3617E+03  0.3614E+03
      2.718  0.4239E+02  0.4254E+02  0.3641E+03  0.3637E+03
      2.773  0.3820E+02  0.3775E+02  0.3662E+03  0.3658E+03
      2.828  0.3890E+02  0.3518E+02  0.3683E+03  0.3678E+03
      2.884  0.3703E+02  0.4276E+02  0.3704E+03  0.3701E+03
      2.939  0.2157E+02  0.2186E+02  0.3716E+03  0.3713E+03
      2.994  0.2507E+02  0.2310E+02  0.3730E+03  0.3726E+03
      3.049  0.6891E+02  0.4606E+02  0.3768E+03  0.3751E+03
      3.104  0.3133E+02  0.4718E+02  0.3785E+03  0.3778E+03
      3.160  0.4834E+02  0.4035E+02  0.3812E+03  0.3800E+03
      3.215  0.4579E+02  0.4785E+02  0.3837E+03  0.3826E+03
      3.270  0.4104E+02  0.3869E+02  0.3860E+03  0.3848E+03
      3.325  0.3056E+02  0.3724E+02  0.3876E+03  0.3868E+03
      3.380  0.5055E+02  0.4654E+02  0.3904E+03  0.3894E+03
      3.436  0.3094E+02  0.4445E+02  0.3921E+03  0.3918E+03
      3.491  0.4370E+02  0.3231E+02  0.3946E+03  0.3936E+03
      3.546  0.4210E+02  0.4773E+02  0.3969E+03  0.3963E+03
      3.601  0.4419E+02  0.4863E+02  0.3993E+03  0.3989E+03
      3.656  0.5620E+02  0.4410E+02  0.4024E+03  0.4014E+03
      3.712  0.3962E+02  0.4748E+02  0.4046E+03  0.4040E+03
      3.767  0.4824E+02  0.4330E+02  0.4073E+03  0.4064E+03
      3.822  0.3512E+02  0.4724E+02  0.4092E+03  0.4090E+03
      3.877  0.2821E+02  0.2451E+02  0.4108E+03  0.4103E+03
      3.932  0.2083E+02  0.2270E+02  0.4119E+03  0.4116E+03
      3.988  0.3427E+02  0.3417E+02  0.4138E+03  0.4135E+03
      4.043  0.4923E+02  0.4682E+02  0.4165E+03  0.4161E+03
      4.098  0.3436E+02  0.3057E+02  0.4184E+03  0.4178E+03
      4.153  0.4260E+02  0.4902E+02  0.4208E+03  0.4205E+03
      4.208  0.5379E+02  0.4832E+02  0.4237E+03  0.4231E+03
      4.264  0.2052E+02  0.2721E+02  0.4249E+03  0.4246E+03
      4.319  0.9826E+01  0.1196E+02  0.4254E+03  0.4253E+03
      4.374  0.4447E+02  0.3121E+02  0.4279E+03  0.4270E+03
      4.429  0.3389E+02  0.4100E+02  0.4297E+03  0.4293E+03
      4.484  0.3133E+02  0.3297E+02  0.4315E+03  0.4311E+03
      4.540  0.4447E+02  0.4071E+02  0.4339E+03  0.4333E+03
      4.595  0.3886E+02  0.4828E+02  0.4361E+03  0.4360E+03
      4.650  0.3866E+02  0.3483E+02  0.4382E+03  0.4379E+03
      4.705  0.4537E+02  0.4537E+02  0.4407E+03  0.4404E+03
      4.760  0.3622E+02  0.3845E+02  0.4427E+03  0.4426E+03
      4.816  0.4974E+02  0.5033E+02  0.4455E+03  0.4453E+03
      4.871  0.3929E+02  0.3487E+02  0.4476E+03  0.4473E+03
      4.926  0.5233E+02  0.4949E+02  0.4505E+03  0.4500E+03
      4.981  0.4626E+02  0.4525E+02  0.4531E+03  0.4525E+03
      5.036  0.4478E+02  0.5061E+02  0.4555E+03  0.4553E+03
      5.092  0.5240E+02  0.4989E+02  0.4584E+03  0.4580E+03
      5.147  0.4273E+02  0.3993E+02  0.4608E+03  0.4602E+03
      5.202  0.5030E+02  0.4905E+02  0.4636E+03  0.4629E+03
      5.257  0.7920E+01  0.1909E+02  0.4640E+03  0.4640E+03
      5.312  0.0000E+00  0.0000E+00  0.4640E+03  0.4640E+03
      5.368  0.0000E+00  0.0000E+00  0.4640E+03  0.4640E+03
      5.423  0.0000E+00  0.0000E+00  0.4640E+03  0.4640E+03
      5.478  0.0000E+00  0.0000E+00  0.4640E+03  0.4640E+03
      5.533  0.0000E+00  0.0000E+00  0.4640E+03  0.4640E+03
      5.588  0.0000E+00  0.0000E+00  0.4640E+03  0.4640E+03
      5.644  0.0000E+00  0.0000E+00  0.4640E+03  0.4640E+03
      5.699  0.0000E+00  0.0000E+00  0.4640E+03  0.4640E+03
      5.754  0.0000E+00  0.0000E+00  0.4640E+03  0.4640E+03
      5.809  0.0000E+00  0.0000E+00  0.4640E+03  0.4640E+03
      5.864  0.0000E+00  0.0000E+00  0.4640E+03  0.4640E+03
      5.919  0.0000E+00  0.0000E+00  0.4640E+03  0.4640E+03
      5.975  0.0000E+00  0.0000E+00  0.4640E+03  0.4640E+03
