  96  96   0   0
  0.2155260E+02  0.1789154E-08  0.1789153E-08  0.1482856E-08  0.5000000E-15
  1.000000000000000E-004
  CAR 
 Si and Ge interface calculation         
      7.54576113    -14.53032080  301      4.01210769      1.00000000
    -14.530  0.0000E+00  0.0000E+00  0.0000E+00  0.0000E+00
    -14.457  0.0000E+00  0.0000E+00  0.0000E+00  0.0000E+00
    -14.383  0.0000E+00  0.0000E+00  0.0000E+00  0.0000E+00
    -14.310  0.0000E+00  0.0000E+00  0.0000E+00  0.0000E+00
    -14.236  0.0000E+00  0.0000E+00  0.0000E+00  0.0000E+00
    -14.162  0.0000E+00  0.0000E+00  0.0000E+00  0.0000E+00
    -14.089  0.0000E+00  0.0000E+00  0.0000E+00  0.0000E+00
    -14.015  0.0000E+00  0.0000E+00  0.0000E+00  0.0000E+00
    -13.942  0.0000E+00  0.0000E+00  0.0000E+00  0.0000E+00
    -13.868  0.0000E+00  0.0000E+00  0.0000E+00  0.0000E+00
    -13.794  0.0000E+00  0.0000E+00  0.0000E+00  0.0000E+00
    -13.721  0.0000E+00  0.0000E+00  0.0000E+00  0.0000E+00
    -13.647  0.0000E+00  0.0000E+00  0.0000E+00  0.0000E+00
    -13.574  0.1199E-09  0.0000E+00  0.8824E-11  0.0000E+00
    -13.500  0.6798E+01  0.6038E+01  0.5002E+00  0.4443E+00
    -13.427  0.6791E+01  0.6795E+01  0.1000E+01  0.1000E+01
    -13.353  0.1392E+02  0.1352E+02  0.2024E+01  0.1995E+01
    -13.279  0.1326E+02  0.1358E+02  0.3000E+01  0.3000E+01
    -13.206  0.0000E+00  0.0000E+00  0.3000E+01  0.3000E+01
    -13.132  0.0000E+00  0.0000E+00  0.3000E+01  0.3000E+01
    -13.059  0.0000E+00  0.0000E+00  0.3000E+01  0.3000E+01
    -12.985  0.6200E+01  0.8075E+00  0.3456E+01  0.3059E+01
    -12.911  0.2027E+02  0.2556E+02  0.4998E+01  0.4940E+01
    -12.838  0.0000E+00  0.0000E+00  0.5000E+01  0.5000E+01
    -12.764  0.0000E+00  0.0000E+00  0.5000E+01  0.5000E+01
    -12.691  0.0000E+00  0.0000E+00  0.5000E+01  0.5000E+01
    -12.617  0.0000E+00  0.0000E+00  0.5000E+01  0.5000E+01
    -12.543  0.0000E+00  0.0000E+00  0.5000E+01  0.5000E+01
    -12.470  0.0000E+00  0.0000E+00  0.5000E+01  0.5000E+01
    -12.396  0.3973E-10  0.0000E+00  0.5000E+01  0.5000E+01
    -12.323  0.1359E+02  0.1220E+02  0.6000E+01  0.5898E+01
    -12.249  0.1359E+02  0.1359E+02  0.7000E+01  0.7000E+01
    -12.176  0.0000E+00  0.0000E+00  0.7000E+01  0.7000E+01
    -12.102  0.0000E+00  0.0000E+00  0.7000E+01  0.7000E+01
    -12.028  0.0000E+00  0.0000E+00  0.7000E+01  0.7000E+01
    -11.955  0.0000E+00  0.0000E+00  0.7000E+01  0.7000E+01
    -11.881  0.1070E-05  0.2020E-10  0.7000E+01  0.7000E+01
    -11.808  0.6981E+01  0.6811E+01  0.7514E+01  0.7501E+01
    -11.734  0.6609E+01  0.6777E+01  0.8000E+01  0.8000E+01
    -11.660  0.0000E+00  0.0000E+00  0.8000E+01  0.8000E+01
    -11.587  0.0000E+00  0.0000E+00  0.8000E+01  0.8000E+01
    -11.513  0.0000E+00  0.0000E+00  0.8000E+01  0.8000E+01
    -11.440  0.0000E+00  0.0000E+00  0.8000E+01  0.8000E+01
    -11.366  0.0000E+00  0.0000E+00  0.8000E+01  0.8000E+01
    -11.292  0.0000E+00  0.0000E+00  0.8000E+01  0.8000E+01
    -11.219  0.0000E+00  0.0000E+00  0.8000E+01  0.8000E+01
    -11.145  0.0000E+00  0.0000E+00  0.8000E+01  0.8000E+01
    -11.072  0.0000E+00  0.0000E+00  0.8000E+01  0.8000E+01
    -10.998  0.0000E+00  0.0000E+00  0.8000E+01  0.8000E+01
    -10.925  0.0000E+00  0.0000E+00  0.8000E+01  0.8000E+01
    -10.851  0.0000E+00  0.0000E+00  0.8000E+01  0.8000E+01
    -10.777  0.0000E+00  0.0000E+00  0.8000E+01  0.8000E+01
    -10.704  0.0000E+00  0.0000E+00  0.8000E+01  0.8000E+01
    -10.630  0.0000E+00  0.0000E+00  0.8000E+01  0.8000E+01
    -10.557  0.0000E+00  0.0000E+00  0.8000E+01  0.8000E+01
    -10.483  0.1200E-01  0.4090E-10  0.8001E+01  0.8000E+01
    -10.409  0.1174E+02  0.7334E+01  0.8865E+01  0.8540E+01
    -10.336  0.1836E+01  0.6255E+01  0.9000E+01  0.9000E+01
    -10.262  0.0000E+00  0.0000E+00  0.9000E+01  0.9000E+01
    -10.189  0.0000E+00  0.0000E+00  0.9000E+01  0.9000E+01
    -10.115  0.0000E+00  0.0000E+00  0.9000E+01  0.9000E+01
    -10.042  0.0000E+00  0.0000E+00  0.9000E+01  0.9000E+01
     -9.968  0.0000E+00  0.0000E+00  0.9000E+01  0.9000E+01
     -9.894  0.0000E+00  0.0000E+00  0.9000E+01  0.9000E+01
     -9.821  0.0000E+00  0.0000E+00  0.9000E+01  0.9000E+01
     -9.747  0.1568E-01  0.9668E-09  0.9001E+01  0.9000E+01
     -9.674  0.2237E+02  0.1478E+02  0.1065E+02  0.1009E+02
     -9.600  0.4795E+01  0.1239E+02  0.1100E+02  0.1100E+02
     -9.526  0.0000E+00  0.0000E+00  0.1100E+02  0.1100E+02
     -9.453  0.0000E+00  0.0000E+00  0.1100E+02  0.1100E+02
     -9.379  0.0000E+00  0.0000E+00  0.1100E+02  0.1100E+02
     -9.306  0.0000E+00  0.0000E+00  0.1100E+02  0.1100E+02
     -9.232  0.0000E+00  0.0000E+00  0.1100E+02  0.1100E+02
     -9.158  0.0000E+00  0.0000E+00  0.1100E+02  0.1100E+02
     -9.085  0.0000E+00  0.0000E+00  0.1100E+02  0.1100E+02
     -9.011  0.0000E+00  0.0000E+00  0.1100E+02  0.1100E+02
     -8.938  0.0000E+00  0.0000E+00  0.1100E+02  0.1100E+02
     -8.864  0.0000E+00  0.0000E+00  0.1100E+02  0.1100E+02
     -8.791  0.2924E+01  0.1472E+01  0.1122E+02  0.1111E+02
     -8.717  0.3844E+01  0.5322E+01  0.1150E+02  0.1150E+02
     -8.643  0.1347E+02  0.1275E+02  0.1249E+02  0.1244E+02
     -8.570  0.2956E+01  0.2287E+01  0.1272E+02  0.1264E+02
     -8.496  0.1746E+02  0.1256E+02  0.1400E+02  0.1357E+02
     -8.423  0.2657E+02  0.3097E+02  0.1597E+02  0.1587E+02
     -8.349  0.6777E+01  0.8235E+01  0.1650E+02  0.1647E+02
     -8.275  0.6776E+01  0.6815E+01  0.1700E+02  0.1699E+02
     -8.202  0.1603E-14  0.1660E+00  0.1700E+02  0.1700E+02
     -8.128  0.1977E+01  0.1053E+01  0.1715E+02  0.1708E+02
     -8.055  0.1725E+02  0.1646E+02  0.1842E+02  0.1829E+02
     -7.981  0.2425E+02  0.2227E+02  0.2020E+02  0.1993E+02
     -7.907  0.2222E+02  0.2294E+02  0.2184E+02  0.2165E+02
     -7.834  0.1058E+02  0.1161E+02  0.2265E+02  0.2253E+02
     -7.760  0.9172E+01  0.8654E+01  0.2332E+02  0.2316E+02
     -7.687  0.2185E+02  0.2238E+02  0.2494E+02  0.2482E+02
     -7.613  0.2403E+02  0.2164E+02  0.2672E+02  0.2642E+02
     -7.540  0.2670E+02  0.2860E+02  0.2872E+02  0.2854E+02
     -7.466  0.1994E+02  0.2050E+02  0.3020E+02  0.3007E+02
     -7.392  0.1461E+02  0.1347E+02  0.3128E+02  0.3106E+02
     -7.319  0.1982E+02  0.2042E+02  0.3274E+02  0.3258E+02
     -7.245  0.1654E+02  0.1800E+02  0.3398E+02  0.3394E+02
     -7.172  0.1744E+02  0.1686E+02  0.3526E+02  0.3518E+02
     -7.098  0.1794E+02  0.1586E+02  0.3660E+02  0.3635E+02
     -7.024  0.2867E+02  0.2932E+02  0.3874E+02  0.3851E+02
     -6.951  0.4332E+02  0.4199E+02  0.4194E+02  0.4163E+02
     -6.877  0.3104E+02  0.3161E+02  0.4427E+02  0.4396E+02
     -6.804  0.2435E+02  0.2570E+02  0.4610E+02  0.4587E+02
     -6.730  0.2776E+02  0.2510E+02  0.4817E+02  0.4779E+02
     -6.657  0.2333E+02  0.2578E+02  0.4990E+02  0.4970E+02
     -6.583  0.3624E+02  0.3553E+02  0.5259E+02  0.5233E+02
     -6.509  0.3207E+02  0.3236E+02  0.5499E+02  0.5477E+02
     -6.436  0.3070E+02  0.3221E+02  0.5730E+02  0.5716E+02
     -6.362  0.4233E+02  0.4033E+02  0.6042E+02  0.6013E+02
     -6.289  0.2373E+02  0.2496E+02  0.6219E+02  0.6201E+02
     -6.215  0.4065E+02  0.3783E+02  0.6521E+02  0.6484E+02
     -6.141  0.3197E+02  0.3300E+02  0.6759E+02  0.6732E+02
     -6.068  0.3242E+02  0.3242E+02  0.6999E+02  0.6973E+02
     -5.994  0.2403E+02  0.2556E+02  0.7176E+02  0.7161E+02
     -5.921  0.3197E+02  0.3070E+02  0.7414E+02  0.7390E+02
     -5.847  0.2379E+02  0.2406E+02  0.7591E+02  0.7570E+02
     -5.773  0.2672E+02  0.2638E+02  0.7789E+02  0.7765E+02
     -5.700  0.3844E+02  0.3766E+02  0.8073E+02  0.8043E+02
     -5.626  0.2459E+02  0.2630E+02  0.8256E+02  0.8238E+02
     -5.553  0.2579E+02  0.2522E+02  0.8448E+02  0.8424E+02
     -5.479  0.2846E+02  0.2961E+02  0.8661E+02  0.8644E+02
     -5.406  0.2274E+02  0.2171E+02  0.8829E+02  0.8806E+02
     -5.332  0.1982E+02  0.2003E+02  0.8975E+02  0.8957E+02
     -5.258  0.8052E+01  0.9560E+01  0.9038E+02  0.9028E+02
     -5.185  0.1801E+02  0.1855E+02  0.9171E+02  0.9165E+02
     -5.111  0.2041E+02  0.1902E+02  0.9322E+02  0.9305E+02
     -5.038  0.1455E+02  0.1327E+02  0.9431E+02  0.9402E+02
     -4.964  0.2175E+02  0.2290E+02  0.9594E+02  0.9573E+02
     -4.890  0.2187E+02  0.2303E+02  0.9756E+02  0.9743E+02
     -4.817  0.2781E+02  0.2645E+02  0.9961E+02  0.9938E+02
     -4.743  0.2256E+02  0.2360E+02  0.1013E+03  0.1011E+03
     -4.670  0.2411E+02  0.2194E+02  0.1031E+03  0.1028E+03
     -4.596  0.2263E+02  0.2183E+02  0.1048E+03  0.1044E+03
     -4.522  0.2109E+02  0.2411E+02  0.1063E+03  0.1062E+03
     -4.449  0.3118E+02  0.2886E+02  0.1086E+03  0.1083E+03
     -4.375  0.3478E+02  0.3044E+02  0.1112E+03  0.1106E+03
     -4.302  0.2941E+02  0.3331E+02  0.1134E+03  0.1131E+03
     -4.228  0.1637E+02  0.1839E+02  0.1146E+03  0.1144E+03
     -4.155  0.1921E+02  0.2018E+02  0.1160E+03  0.1159E+03
     -4.081  0.2904E+02  0.2677E+02  0.1182E+03  0.1179E+03
     -4.007  0.1990E+02  0.1970E+02  0.1197E+03  0.1194E+03
     -3.934  0.1906E+02  0.2123E+02  0.1211E+03  0.1209E+03
     -3.860  0.3257E+02  0.2905E+02  0.1235E+03  0.1231E+03
     -3.787  0.3062E+02  0.3386E+02  0.1258E+03  0.1256E+03
     -3.713  0.2372E+02  0.2418E+02  0.1276E+03  0.1274E+03
     -3.639  0.2350E+02  0.2284E+02  0.1293E+03  0.1291E+03
     -3.566  0.3087E+02  0.2966E+02  0.1316E+03  0.1313E+03
     -3.492  0.2808E+02  0.2876E+02  0.1337E+03  0.1335E+03
     -3.419  0.2786E+02  0.2694E+02  0.1358E+03  0.1355E+03
     -3.345  0.3129E+02  0.3177E+02  0.1381E+03  0.1379E+03
     -3.272  0.3895E+02  0.3719E+02  0.1410E+03  0.1406E+03
     -3.198  0.2465E+02  0.2697E+02  0.1428E+03  0.1426E+03
     -3.124  0.2537E+02  0.2338E+02  0.1447E+03  0.1443E+03
     -3.051  0.2715E+02  0.3000E+02  0.1467E+03  0.1466E+03
     -2.977  0.3073E+02  0.2951E+02  0.1490E+03  0.1488E+03
     -2.904  0.2314E+02  0.2185E+02  0.1507E+03  0.1504E+03
     -2.830  0.1968E+02  0.2228E+02  0.1521E+03  0.1520E+03
     -2.756  0.2357E+02  0.2174E+02  0.1539E+03  0.1536E+03
     -2.683  0.2568E+02  0.2695E+02  0.1558E+03  0.1556E+03
     -2.609  0.2102E+02  0.2184E+02  0.1574E+03  0.1572E+03
     -2.536  0.1872E+02  0.1395E+02  0.1587E+03  0.1583E+03
     -2.462  0.2324E+02  0.2750E+02  0.1605E+03  0.1603E+03
     -2.388  0.2779E+02  0.2615E+02  0.1625E+03  0.1622E+03
     -2.315  0.2296E+02  0.2410E+02  0.1642E+03  0.1640E+03
     -2.241  0.1568E+02  0.1510E+02  0.1654E+03  0.1651E+03
     -2.168  0.3090E+02  0.3100E+02  0.1677E+03  0.1674E+03
     -2.094  0.2653E+02  0.2593E+02  0.1696E+03  0.1694E+03
     -2.021  0.2803E+02  0.2578E+02  0.1717E+03  0.1713E+03
     -1.947  0.3282E+02  0.3529E+02  0.1741E+03  0.1739E+03
     -1.873  0.2470E+02  0.2580E+02  0.1760E+03  0.1758E+03
     -1.800  0.2083E+02  0.1985E+02  0.1775E+03  0.1773E+03
     -1.726  0.2854E+02  0.2728E+02  0.1796E+03  0.1793E+03
     -1.653  0.2793E+02  0.2660E+02  0.1817E+03  0.1813E+03
     -1.579  0.3191E+02  0.3275E+02  0.1841E+03  0.1837E+03
     -1.505  0.2173E+02  0.2377E+02  0.1857E+03  0.1855E+03
     -1.432  0.1918E+02  0.1852E+02  0.1872E+03  0.1869E+03
     -1.358  0.2458E+02  0.2740E+02  0.1890E+03  0.1889E+03
     -1.285  0.2015E+02  0.1709E+02  0.1905E+03  0.1902E+03
     -1.211  0.2284E+02  0.2097E+02  0.1922E+03  0.1917E+03
     -1.137  0.2148E+02  0.2562E+02  0.1938E+03  0.1936E+03
     -1.064  0.2454E+02  0.2275E+02  0.1956E+03  0.1953E+03
     -0.990  0.2297E+02  0.2408E+02  0.1973E+03  0.1971E+03
     -0.917  0.1714E+02  0.1772E+02  0.1986E+03  0.1984E+03
     -0.843  0.1965E+02  0.1956E+02  0.2000E+03  0.1998E+03
     -0.770  0.2037E+02  0.1983E+02  0.2015E+03  0.2013E+03
     -0.696  0.1024E+02  0.1186E+02  0.2023E+03  0.2022E+03
     -0.622  0.1353E+02  0.1191E+02  0.2033E+03  0.2031E+03
     -0.549  0.1914E+02  0.2171E+02  0.2047E+03  0.2047E+03
     -0.475  0.1302E+02  0.1226E+02  0.2057E+03  0.2056E+03
     -0.402  0.1568E+02  0.1430E+02  0.2069E+03  0.2067E+03
     -0.328  0.2073E+02  0.2074E+02  0.2084E+03  0.2082E+03
     -0.254  0.1785E+02  0.2029E+02  0.2097E+03  0.2097E+03
     -0.181  0.1285E+02  0.1120E+02  0.2107E+03  0.2105E+03
     -0.107  0.2815E+02  0.2665E+02  0.2127E+03  0.2125E+03
     -0.034  0.2350E+02  0.2392E+02  0.2145E+03  0.2143E+03
      0.040  0.3723E+02  0.3681E+02  0.2173E+03  0.2170E+03
      0.113  0.3632E+02  0.3730E+02  0.2200E+03  0.2197E+03
      0.187  0.3437E+02  0.3421E+02  0.2225E+03  0.2223E+03
      0.261  0.3878E+02  0.3899E+02  0.2254E+03  0.2252E+03
      0.334  0.3614E+02  0.3463E+02  0.2281E+03  0.2278E+03
      0.408  0.4354E+02  0.4333E+02  0.2313E+03  0.2310E+03
      0.481  0.3712E+02  0.3852E+02  0.2341E+03  0.2338E+03
      0.555  0.3328E+02  0.3287E+02  0.2365E+03  0.2362E+03
      0.629  0.4572E+02  0.4304E+02  0.2399E+03  0.2394E+03
      0.702  0.4578E+02  0.4870E+02  0.2434E+03  0.2430E+03
      0.776  0.4123E+02  0.4339E+02  0.2464E+03  0.2463E+03
      0.849  0.4823E+02  0.4520E+02  0.2500E+03  0.2496E+03
      0.923  0.4267E+02  0.4322E+02  0.2532E+03  0.2528E+03
      0.997  0.4730E+02  0.4580E+02  0.2567E+03  0.2562E+03
      1.070  0.5899E+02  0.6079E+02  0.2611E+03  0.2607E+03
      1.144  0.5319E+02  0.5268E+02  0.2650E+03  0.2646E+03
      1.217  0.5913E+02  0.5826E+02  0.2694E+03  0.2689E+03
      1.291  0.5413E+02  0.5666E+02  0.2734E+03  0.2732E+03
      1.364  0.5482E+02  0.5454E+02  0.2775E+03  0.2772E+03
      1.438  0.5795E+02  0.5645E+02  0.2818E+03  0.2814E+03
      1.512  0.5324E+02  0.5232E+02  0.2857E+03  0.2853E+03
      1.585  0.5330E+02  0.5345E+02  0.2897E+03  0.2893E+03
      1.659  0.5366E+02  0.5239E+02  0.2937E+03  0.2932E+03
      1.732  0.4405E+02  0.4695E+02  0.2970E+03  0.2967E+03
      1.806  0.5245E+02  0.5303E+02  0.3009E+03  0.3006E+03
      1.880  0.4046E+02  0.4107E+02  0.3039E+03  0.3037E+03
      1.953  0.3830E+02  0.3866E+02  0.3068E+03  0.3065E+03
      2.027  0.4359E+02  0.4122E+02  0.3100E+03  0.3096E+03
      2.100  0.3990E+02  0.4171E+02  0.3130E+03  0.3127E+03
      2.174  0.4366E+02  0.4397E+02  0.3162E+03  0.3160E+03
      2.248  0.4034E+02  0.3986E+02  0.3192E+03  0.3189E+03
      2.321  0.3803E+02  0.3606E+02  0.3221E+03  0.3216E+03
      2.395  0.3468E+02  0.3651E+02  0.3247E+03  0.3244E+03
      2.468  0.3875E+02  0.3770E+02  0.3275E+03  0.3271E+03
      2.542  0.4214E+02  0.4214E+02  0.3306E+03  0.3303E+03
      2.615  0.3985E+02  0.3992E+02  0.3336E+03  0.3332E+03
      2.689  0.4142E+02  0.4077E+02  0.3366E+03  0.3363E+03
      2.763  0.3868E+02  0.3693E+02  0.3395E+03  0.3390E+03
      2.836  0.3280E+02  0.3580E+02  0.3419E+03  0.3417E+03
      2.910  0.2964E+02  0.2983E+02  0.3441E+03  0.3439E+03
      2.983  0.3464E+02  0.2992E+02  0.3467E+03  0.3461E+03
      3.057  0.3832E+02  0.3787E+02  0.3495E+03  0.3489E+03
      3.131  0.4164E+02  0.4329E+02  0.3526E+03  0.3521E+03
      3.204  0.3121E+02  0.3223E+02  0.3549E+03  0.3545E+03
      3.278  0.4003E+02  0.3780E+02  0.3579E+03  0.3574E+03
      3.351  0.3753E+02  0.3750E+02  0.3607E+03  0.3601E+03
      3.425  0.4203E+02  0.4167E+02  0.3638E+03  0.3632E+03
      3.498  0.3276E+02  0.3367E+02  0.3662E+03  0.3658E+03
      3.572  0.3782E+02  0.3717E+02  0.3690E+03  0.3685E+03
      3.646  0.2894E+02  0.3242E+02  0.3712E+03  0.3709E+03
      3.719  0.3886E+02  0.3591E+02  0.3740E+03  0.3736E+03
      3.793  0.3166E+02  0.2809E+02  0.3764E+03  0.3757E+03
      3.866  0.3032E+02  0.3406E+02  0.3787E+03  0.3782E+03
      3.940  0.3334E+02  0.2533E+02  0.3811E+03  0.3801E+03
      4.014  0.3486E+02  0.3982E+02  0.3837E+03  0.3831E+03
      4.087  0.2538E+02  0.2366E+02  0.3856E+03  0.3848E+03
      4.161  0.3608E+02  0.4044E+02  0.3883E+03  0.3878E+03
      4.234  0.3185E+02  0.2834E+02  0.3906E+03  0.3900E+03
      4.308  0.2682E+02  0.2982E+02  0.3926E+03  0.3922E+03
      4.382  0.2541E+02  0.2775E+02  0.3945E+03  0.3943E+03
      4.455  0.3325E+02  0.2691E+02  0.3970E+03  0.3963E+03
      4.529  0.3862E+02  0.4089E+02  0.3999E+03  0.3993E+03
      4.602  0.2681E+02  0.2892E+02  0.4019E+03  0.4014E+03
      4.676  0.2507E+02  0.2826E+02  0.4037E+03  0.4035E+03
      4.749  0.2493E+02  0.2163E+02  0.4056E+03  0.4051E+03
      4.823  0.2765E+02  0.2966E+02  0.4076E+03  0.4073E+03
      4.897  0.3123E+02  0.2943E+02  0.4100E+03  0.4095E+03
      4.970  0.3200E+02  0.3391E+02  0.4123E+03  0.4120E+03
      5.044  0.3405E+02  0.3474E+02  0.4149E+03  0.4146E+03
      5.117  0.2953E+02  0.2920E+02  0.4170E+03  0.4168E+03
      5.191  0.3770E+02  0.3403E+02  0.4198E+03  0.4193E+03
      5.265  0.4090E+02  0.3749E+02  0.4229E+03  0.4221E+03
      5.338  0.4916E+02  0.5251E+02  0.4266E+03  0.4260E+03
      5.412  0.3173E+02  0.3328E+02  0.4289E+03  0.4284E+03
      5.485  0.3815E+02  0.3778E+02  0.4318E+03  0.4312E+03
      5.559  0.4439E+02  0.4465E+02  0.4351E+03  0.4345E+03
      5.633  0.3815E+02  0.3722E+02  0.4379E+03  0.4373E+03
      5.706  0.3567E+02  0.3781E+02  0.4406E+03  0.4401E+03
      5.780  0.3658E+02  0.3647E+02  0.4433E+03  0.4428E+03
      5.853  0.4258E+02  0.4168E+02  0.4465E+03  0.4459E+03
      5.927  0.3913E+02  0.3978E+02  0.4494E+03  0.4489E+03
      6.000  0.4532E+02  0.4409E+02  0.4528E+03  0.4521E+03
      6.074  0.2746E+02  0.3100E+02  0.4548E+03  0.4544E+03
      6.148  0.3014E+02  0.3185E+02  0.4570E+03  0.4568E+03
      6.221  0.2195E+02  0.2122E+02  0.4587E+03  0.4584E+03
      6.295  0.3744E+02  0.3655E+02  0.4614E+03  0.4611E+03
      6.368  0.2344E+02  0.2641E+02  0.4632E+03  0.4631E+03
      6.442  0.8112E+01  0.1081E+02  0.4638E+03  0.4639E+03
      6.516  0.1618E+01  0.5496E+00  0.4639E+03  0.4639E+03
      6.589  0.9054E+00  0.1149E+01  0.4640E+03  0.4640E+03
      6.663  0.0000E+00  0.0000E+00  0.4640E+03  0.4640E+03
      6.736  0.0000E+00  0.0000E+00  0.4640E+03  0.4640E+03
      6.810  0.0000E+00  0.0000E+00  0.4640E+03  0.4640E+03
      6.883  0.0000E+00  0.0000E+00  0.4640E+03  0.4640E+03
      6.957  0.0000E+00  0.0000E+00  0.4640E+03  0.4640E+03
      7.031  0.0000E+00  0.0000E+00  0.4640E+03  0.4640E+03
      7.104  0.0000E+00  0.0000E+00  0.4640E+03  0.4640E+03
      7.178  0.0000E+00  0.0000E+00  0.4640E+03  0.4640E+03
      7.251  0.0000E+00  0.0000E+00  0.4640E+03  0.4640E+03
      7.325  0.0000E+00  0.0000E+00  0.4640E+03  0.4640E+03
      7.399  0.0000E+00  0.0000E+00  0.4640E+03  0.4640E+03
      7.472  0.0000E+00  0.0000E+00  0.4640E+03  0.4640E+03
      7.546  0.0000E+00  0.0000E+00  0.4640E+03  0.4640E+03
