       N       E                     dE             d eps       ncg     rms          rms(c)
DAV:   1     0.380826760564E+04    0.38083E+04   -0.40385E+05 17536   0.172E+03
DAV:   2    -0.641407691448E+03   -0.44497E+04   -0.42951E+04 20480   0.213E+02
DAV:   3    -0.106666744112E+04   -0.42526E+03   -0.41142E+03 21704   0.582E+01
DAV:   4    -0.108291332466E+04   -0.16246E+02   -0.15947E+02 20704   0.119E+01
DAV:   5    -0.108355250451E+04   -0.63918E+00   -0.63501E+00 23736   0.228E+00    0.423E+01
DAV:   6    -0.106489452436E+04    0.18658E+02   -0.42142E+01 21680   0.936E+00    0.189E+01
DAV:   7    -0.106438429371E+04    0.51023E+00   -0.30790E+01 20824   0.754E+00    0.974E+00
DAV:   8    -0.106357176206E+04    0.81253E+00   -0.66699E+00 20472   0.383E+00    0.238E+00
DAV:   9    -0.106356644300E+04    0.53191E-02   -0.14141E+00 21272   0.122E+00    0.132E+00
DAV:  10    -0.106355027742E+04    0.16166E-01   -0.21027E-01 21088   0.608E-01    0.760E-01
DAV:  11    -0.106354923332E+04    0.10441E-02   -0.65127E-02 21568   0.366E-01    0.391E-01
DAV:  12    -0.106354649825E+04    0.27351E-02   -0.19955E-02 21672   0.213E-01    0.197E-01
DAV:  13    -0.106354660455E+04   -0.10629E-03   -0.34827E-03 19712   0.688E-02    0.131E-01
DAV:  14    -0.106354666129E+04   -0.56743E-04   -0.76098E-04 20112   0.340E-02    0.505E-02
DAV:  15    -0.106354667269E+04   -0.11394E-04   -0.27059E-04 20064   0.192E-02    0.394E-02
DAV:  16    -0.106354667975E+04   -0.70626E-05   -0.63782E-05 19848   0.100E-02    0.230E-02
DAV:  17    -0.106354668106E+04   -0.13103E-05   -0.16096E-05 20192   0.464E-03    0.907E-03
DAV:  18    -0.106354668285E+04   -0.17880E-05   -0.37355E-06 19088   0.244E-03    0.623E-03
DAV:  19    -0.106354668480E+04   -0.19519E-05   -0.76023E-07 20064   0.108E-03    0.342E-03
DAV:  20    -0.106354668617E+04   -0.13741E-05   -0.26003E-07 12360   0.680E-04    0.150E-03
DAV:  21    -0.106354668679E+04   -0.62073E-06   -0.12685E-07 10384   0.455E-04    0.708E-04
DAV:  22    -0.106354668700E+04   -0.20905E-06   -0.46768E-08 10216   0.238E-04    0.381E-04
DAV:  23    -0.106354668707E+04   -0.65625E-07   -0.14046E-08 10112   0.143E-04
   1 F= -.10635467E+04 E0= -.10635447E+04  d E =-.403573E-02  mag=     1.0000
