 vasp.6.4.3 19Mar24 (build Oct 22 2024 11:23:12) complex                        
  
 executed on             LinuxIFC date 2025.06.08  11:22:50
 running   64 mpi-ranks, on    4 nodes
 distrk:  each k-point on   64 cores,    1 groups
 distr:  one band on NCORE=  16 cores,    4 groups


--------------------------------------------------------------------------------------------------------


 INCAR:
   SYSTEM = Si and Ge interface calculation
   ISTART = 0
   ICHARG = 2
   LWAVE = .FALSE.
   LREAL = AUTO
   ENCUT = 700
   ENAUG = 900
   ADDGRID = .TRUE.
   LMAXMIX = 6
   LASPH = .TRUE.
   LMIXTAU = .TRUE.
   NCORE = 16
   NELM = 100
   NBANDS = 288
   EDIFF = 1d-7
   AMIX = 0.6
   ISMEAR = 0
   SIGMA = 0.01
   NELECT = 480
   ISPIN = 2
   NUPDOWN = 1
   LVTOT = .FALSE.
   LVHAR = .TRUE.

 POTCAR:    PAW_PBE Si 05Jan2001                  
 POTCAR:    PAW_PBE Ge 05Jan2001                  
 -----------------------------------------------------------------------------
|                                                                             |
|           W    W    AA    RRRRR   N    N  II  N    N   GGGG   !!!           |
|           W    W   A  A   R    R  NN   N  II  NN   N  G    G  !!!           |
|           W    W  A    A  R    R  N N  N  II  N N  N  G       !!!           |
|           W WW W  AAAAAA  RRRRR   N  N N  II  N  N N  G  GGG   !            |
|           WW  WW  A    A  R   R   N   NN  II  N   NN  G    G                |
|           W    W  A    A  R    R  N    N  II  N    N   GGGG   !!!           |
|                                                                             |
|     You use a magnetic or noncollinear calculation, but did not specify     |
|     the initial magnetic moment with the MAGMOM tag. Note that a            |
|     default of 8.333e-3 will be used for all atoms. This ferromagnetic      |
|     setup may break the symmetry of the crystal, in particular it may       |
|     rule out finding an antiferromagnetic solution. Thence, we              |
|     recommend setting the initial magnetic moment manually or verifying     |
|     carefully that this magnetic setup is desired.                          |
|                                                                             |
 -----------------------------------------------------------------------------

 POTCAR:    PAW_PBE Si 05Jan2001                  
   VRHFIN =Si: s2p2                                                                                 
   LEXCH  = PE                                                                                      
   EATOM  =   103.0669 eV,    7.5752 Ry                                                             
                                                                                                    
   TITEL  = PAW_PBE Si 05Jan2001                                                                    
   LULTRA =        F    use ultrasoft PP ?                                                          
   IUNSCR =        1    unscreen: 0-lin 1-nonlin 2-no                                               
   RPACOR =    1.500    partial core radius                                                         
   POMASS =   28.085; ZVAL   =    4.000    mass and valenz                                          
   RCORE  =    1.900    outmost cutoff radius                                                       
   RWIGS  =    2.480; RWIGS  =    1.312    wigner-seitz radius (au A)                               
   ENMAX  =  245.345; ENMIN  =  184.009 eV                                                          
   ICORE  =        2    local potential                                                             
   LCOR   =        T    correct aug charges                                                         
   LPAW   =        T    paw PP                                                                      
   EAUG   =  322.069                                                                                
   DEXC   =    0.000                                                                                
   RMAX   =    1.950    core radius for proj-oper                                                   
   RAUG   =    1.300    factor for augmentation sphere                                              
   RDEP   =    1.993    radius for radial grids                                                     
   RDEPT  =    1.837    core radius for aug-charge                                                  
                                                                                                    
   Atomic configuration                                                                             
    6 entries                                                                                       
     n  l   j            E        occ.                                                              
     1  0  0.50     -1785.8828   2.0000                                                             
     2  0  0.50      -139.4969   2.0000                                                             
     2  1  1.50       -95.5546   6.0000                                                             
     3  0  0.50       -10.8127   2.0000                                                             
     3  1  0.50        -4.0811   2.0000                                                             
     3  2  1.50        -4.0817   0.0000                                                             
   Description                                                                                      
     l       E           TYP  RCUT    TYP  RCUT                                                     
     0    -10.8127223     23  1.900                                                                 
     0     -7.6451159     23  1.900                                                                 
     1     -4.0811372     23  1.900                                                                 
     1      2.4879257     23  1.900                                                                 
     2     -4.0817478      7  1.900                                                                 
  local pseudopotential read in
  partial core-charges read in
  partial kinetic energy density read in
  atomic valenz-charges read in
  non local Contribution for L=           0  read in
    real space projection operators read in
  non local Contribution for L=           0  read in
    real space projection operators read in
  non local Contribution for L=           1  read in
    real space projection operators read in
  non local Contribution for L=           1  read in
    real space projection operators read in
    PAW grid and wavefunctions read in
 
   number of l-projection  operators is LMAX  =           4
   number of lm-projection operators is LMMAX =           8
 
 POTCAR:    PAW_PBE Ge 05Jan2001                  
   VRHFIN =Ge: s2p2                                                                                 
   LEXCH  = PE                                                                                      
   EATOM  =   104.9960 eV,    7.7170 Ry                                                             
                                                                                                    
   TITEL  = PAW_PBE Ge 05Jan2001                                                                    
   LULTRA =        F    use ultrasoft PP ?                                                          
   IUNSCR =        1    unscreen: 0-lin 1-nonlin 2-no                                               
   RPACOR =    2.170    partial core radius                                                         
   POMASS =   72.610; ZVAL   =    4.000    mass and valenz                                          
   RCORE  =    2.300    outmost cutoff radius                                                       
   RWIGS  =    2.300; RWIGS  =    1.217    wigner-seitz radius (au A)                               
   ENMAX  =  173.807; ENMIN  =  130.355 eV                                                          
   ICORE  =        3    local potential                                                             
   LCOR   =        T    correct aug charges                                                         
   LPAW   =        T    paw PP                                                                      
   EAUG   =  385.843                                                                                
   DEXC   =    0.000                                                                                
   RMAX   =    2.342    core radius for proj-oper                                                   
   RAUG   =    1.300    factor for augmentation sphere                                              
   RDEP   =    2.318    radius for radial grids                                                     
   RDEPT  =    2.103    core radius for aug-charge                                                  
                                                                                                    
   Atomic configuration                                                                             
   10 entries                                                                                       
     n  l   j            E        occ.                                                              
     1  0  0.50    -10959.8463   2.0000                                                             
     2  0  0.50     -1371.6056   2.0000                                                             
     2  1  1.50     -1198.4791   6.0000                                                             
     3  0  0.50      -168.4733   2.0000                                                             
     3  1  1.50      -115.6019   6.0000                                                             
     3  2  2.50       -29.3106  10.0000                                                             
     4  0  0.50       -11.7309   2.0000                                                             
     4  1  0.50        -3.8952   2.0000                                                             
     4  2  1.50        -4.0817   0.0000                                                             
     4  3  2.50        -4.0817   0.0000                                                             
   Description                                                                                      
     l       E           TYP  RCUT    TYP  RCUT                                                     
     0    -11.7309493     23  2.300                                                                 
     0     -7.4578696     23  2.300                                                                 
     1     -3.8952261     23  2.300                                                                 
     1      6.1178114     23  2.300                                                                 
     2     -4.0817478     23  2.300                                                                 
     3     -1.3605826      7  2.300                                                                 
  local pseudopotential read in
  partial core-charges read in
  partial kinetic energy density read in
  atomic valenz-charges read in
  non local Contribution for L=           0  read in
    real space projection operators read in
  non local Contribution for L=           0  read in
    real space projection operators read in
  non local Contribution for L=           1  read in
    real space projection operators read in
  non local Contribution for L=           1  read in
    real space projection operators read in
  non local Contribution for L=           2  read in
    real space projection operators read in
    PAW grid and wavefunctions read in
 
   number of l-projection  operators is LMAX  =           5
   number of lm-projection operators is LMMAX =          13
 
 Optimization of the real space projectors (new method)

 maximal supplied QI-value         = 19.84
 optimisation between [QCUT,QGAM] = [ 13.49, 26.99] = [ 50.98,203.92] Ry 
 Optimized for a Real-space Cutoff    1.07 Angstroem

   l    n(q)    QCUT    max X(q) W(low)/X(q) W(high)/X(q)  e(spline) 
   0      9    13.493   159.560    0.22E-03    0.15E-03    0.72E-07
   0      9    13.493   115.863    0.21E-03    0.15E-03    0.71E-07
   1      8    13.493    88.339    0.15E-03    0.11E-03    0.13E-06
   1      8    13.493    48.592    0.15E-03    0.10E-03    0.13E-06
 Optimization of the real space projectors (new method)

 maximal supplied QI-value         = 16.25
 optimisation between [QCUT,QGAM] = [ 13.49, 26.98] = [ 50.95,203.80] Ry 
 Optimized for a Real-space Cutoff    1.25 Angstroem

   l    n(q)    QCUT    max X(q) W(low)/X(q) W(high)/X(q)  e(spline) 
   0     10    13.489    65.336    0.91E-04    0.11E-03    0.34E-06
   0     10    13.489    52.220    0.89E-04    0.11E-03    0.34E-06
   1     10    13.489    36.409    0.22E-03    0.27E-03    0.14E-06
   1     10    13.489    21.334    0.21E-03    0.27E-03    0.14E-06
   2      9    13.489     4.673    0.11E-03    0.12E-03    0.19E-06
  PAW_PBE Si 05Jan2001                  :
 energy of atom  1       EATOM= -103.0669
 kinetic energy error for atom=    0.0003 (will be added to EATOM!!)
  PAW_PBE Ge 05Jan2001                  :
 energy of atom  2       EATOM= -104.9960
 kinetic energy error for atom=    0.0001 (will be added to EATOM!!)
 
 
 POSCAR: Si+Ge
  positions in direct lattice
  No initial velocities read in


 exchange-correlation table for PE
   RHO(1)=    0.500       N(1)  =     2000
   RHO(2)=  100.500       N(2)  =     4000
 


--------------------------------------------------------------------------------------------------------


 ion  position               nearest neighbor table
   1  0.979  0.986  0.000- 114 2.35  67 2.35  56 2.35  25 2.46
   2  0.601  0.196  0.830- 111 2.38  55 2.38 116 2.48  95 2.48
   3  0.479  0.652  0.183-  51 2.35  69 2.35  58 2.35  50 2.35
   4  0.229  0.486  0.274-  52 2.35  51 2.35  70 2.35  59 2.35
   5  0.851  0.696  0.628-  73 2.38  48 2.38  98 2.48  80 2.48
   6  0.101  0.946  0.560-  88 2.38 109 2.38  72 3.09
   7  0.979  0.319  0.000-  37 2.35  90 2.35  62 2.35
   8  0.729  0.152  0.091-  38 2.35  56 2.35  63 2.35  37 2.35
   9  0.479  0.986  0.183-  64 2.35  39 2.35  57 2.35  38 2.35
  10  0.229  0.819  0.274-  39 2.35  40 2.35  65 2.35  58 2.35
  11  0.979  0.652  0.366-  41 2.35  59 2.35  66 2.35  40 2.35
  12  0.601  0.196  0.560-  91 2.38 118 2.38  97 2.48  54 3.14
  13  0.979  0.652  0.000-  43 2.35  68 2.35  61 2.35  49 2.48
  14  0.729  0.486  0.091-  44 2.35  62 2.35  69 2.35  43 2.35
  15  0.479  0.319  0.183-  70 2.35  45 2.35  63 2.35  44 2.35
  16  0.229  0.152  0.274-  45 2.35  46 2.35  71 2.35  64 2.35
  17  0.979  0.986  0.366-  72 2.35  47 2.35  65 2.35  46 2.35
  18  0.101  0.446  0.560- 112 2.38  94 2.38  30 2.46  79 2.47
  19  0.351  0.696  0.897-  84 2.38 102 2.38  93 2.48  61 3.14
  20  0.229  0.819  0.091-  68 2.35  50 2.35  39 2.35  67 2.35
  21  0.979  0.652  0.183-  51 2.35  69 2.35  40 2.35  68 2.35
  22  0.729  0.486  0.274-  69 2.35  70 2.35  52 2.35  41 2.35
  23  0.479  0.319  0.366-  42 2.35  71 2.35  53 2.35  70 2.35
  24  0.229  0.152  0.457-  72 2.35  54 2.35  71 2.35  60 2.48
  25  0.851  0.946  0.897- 105 2.38  75 2.38   1 2.46 114 2.47
  26  0.229  0.152  0.091-  90 2.35  45 2.35  56 2.35  38 2.35
  27  0.979  0.986  0.183-  46 2.35  56 2.35  39 2.35  57 2.35
  28  0.729  0.819  0.274-  57 2.35  58 2.35  40 2.35  47 2.35
  29  0.479  0.652  0.366- 103 2.35  59 2.35  41 2.35  58 2.35
  30  0.229  0.486  0.457-  59 2.35  79 2.35  42 2.35  18 2.46
  31  0.851  0.446  0.897-  81 2.38 108 2.38  43 3.09
  32  0.229  0.486  0.091-  62 2.35  51 2.35  44 2.35  61 2.35
  33  0.979  0.319  0.183-  52 2.35  45 2.35  63 2.35  62 2.35
  34  0.729  0.152  0.274-  63 2.35  64 2.35  46 2.35  53 2.35
  35  0.479  0.986  0.366-  54 2.35  65 2.35  47 2.35  64 2.35
  36  0.229  0.819  0.457-  66 2.35 103 2.35  65 2.35
  37  0.729  0.236  0.000-   7 2.35   8 2.35  87 2.35 111 2.45
  38  0.479  0.069  0.091-  96 2.35   8 2.35   9 2.35  26 2.35
  39  0.229  0.902  0.183-  10 2.35   9 2.35  20 2.35  27 2.35
  40  0.979  0.736  0.274-  21 2.35  10 2.35  28 2.35  11 2.35
  41  0.729  0.569  0.366-  11 2.35  29 2.35 106 2.35  22 2.35
  42  0.479  0.402  0.457-  23 2.35 106 2.35  30 2.35  82 2.47
  43  0.729  0.569  0.000-  13 2.35  93 2.35  14 2.35  31 3.09  49 3.14
  44  0.479  0.402  0.091-  14 2.35  32 2.35  87 2.35  15 2.35
  45  0.229  0.236  0.183-  15 2.35  16 2.35  33 2.35  26 2.35
  46  0.979  0.069  0.274-  16 2.35  34 2.35  27 2.35  17 2.35
  47  0.729  0.902  0.366-  17 2.35  35 2.35  28 2.35 100 2.35
  48  0.601  0.696  0.560-   5 2.38  85 2.38 103 2.45
  49  0.851  0.696  0.897- 102 2.38  84 2.38  13 2.48  43 3.14
  50  0.479  0.736  0.091-  99 2.35  93 2.35  20 2.35   3 2.35
  51  0.229  0.569  0.183-   3 2.35  21 2.35   4 2.35  32 2.35
  52  0.979  0.402  0.274-   4 2.35  22 2.35  33 2.35 115 2.35
  53  0.729  0.236  0.366- 115 2.35  23 2.35  34 2.35  97 2.35
  54  0.479  0.069  0.457-  35 2.35  97 2.35  24 2.35  12 3.14
  55  0.351  0.196  0.897-  78 2.38   2 2.38  90 2.45
  56  0.979  0.069  0.091-   1 2.35   8 2.35  26 2.35  27 2.35
  57  0.729  0.902  0.183-  28 2.35  99 2.35   9 2.35  27 2.35
  58  0.479  0.736  0.274-   3 2.35  28 2.35  10 2.35  29 2.35
  59  0.229  0.569  0.366-  11 2.35  29 2.35   4 2.35  30 2.35
  60  0.101  0.196  0.560- 118 2.38  91 2.38  24 2.48  72 3.14
  61  0.229  0.569  0.000-  13 2.35  93 2.35  32 2.35  19 3.14
  62  0.979  0.402  0.091-  14 2.35  32 2.35   7 2.35  33 2.35
  63  0.729  0.236  0.183-  34 2.35  15 2.35  33 2.35   8 2.35
  64  0.479  0.069  0.274-   9 2.35  34 2.35  16 2.35  35 2.35
  65  0.229  0.902  0.366-  17 2.35  35 2.35  10 2.35  36 2.35
  66  0.979  0.736  0.457- 100 2.35  11 2.35  36 2.35  73 2.45
  67  0.229  0.902  0.000-   1 2.35  96 2.35  20 2.35 117 2.47
  68  0.979  0.736  0.091-  99 2.35  20 2.35  13 2.35  21 2.35
  69  0.729  0.569  0.183-   3 2.35  22 2.35  21 2.35  14 2.35
  70  0.479  0.402  0.274-  15 2.35  22 2.35   4 2.35  23 2.35
  71  0.229  0.236  0.366-  23 2.35 115 2.35  16 2.35  24 2.35
  72  0.979  0.069  0.457-  97 2.35  17 2.35  24 2.35   6 3.09  60 3.14
  73  0.101  0.696  0.560-  85 2.38   5 2.38  66 2.45
  74  0.851  0.321  0.695-  86 2.38 116 2.38 118 2.48  94 2.48
  75  0.601  0.946  0.830-  25 2.38 117 2.38  95 2.48 119 2.48
  76  0.601  0.946  0.560- 109 2.38  88 2.38
  77  0.351  0.571  0.695-  89 2.38 110 2.38  85 2.48 112 2.48
  78  0.101  0.196  0.830-  55 2.38 111 2.38  86 2.48 113 2.48
  79  0.979  0.402  0.457- 115 2.35 106 2.35  30 2.35  18 2.47
  80  0.851  0.821  0.695-  92 2.38 119 2.38  88 2.48   5 2.48
  81  0.601  0.446  0.830-  31 2.38 120 2.38  89 2.48 116 2.48
  82  0.601  0.446  0.560- 112 2.38  94 2.38 106 2.46  42 2.47
  83  0.351  0.071  0.695-  95 2.38 113 2.38  91 2.48 109 2.48
  84  0.101  0.696  0.830-  19 2.38  49 2.38 110 2.48  92 2.48
  85  0.351  0.696  0.628-  73 2.38  48 2.38  77 2.48 107 2.48
  86  0.101  0.321  0.762-  74 2.38 104 2.38  78 2.48 108 2.48
  87  0.479  0.319  0.000-  90 2.35  44 2.35  37 2.35
  88  0.851  0.946  0.628-  76 2.38   6 2.38  80 2.48 101 2.48
  89  0.601  0.571  0.762-  77 2.38  98 2.38  81 2.48 102 2.48
  90  0.229  0.236  0.000-   7 2.35  87 2.35  26 2.35  55 2.45
  91  0.351  0.196  0.628-  12 2.38  60 2.38 104 2.48  83 2.48
  92  0.101  0.821  0.762-  80 2.38 107 2.38 105 2.48  84 2.48
  93  0.479  0.652  0.000-  50 2.35  61 2.35  43 2.35  19 2.48
  94  0.851  0.446  0.628-  82 2.38  18 2.38  74 2.48  98 2.48
  95  0.601  0.071  0.762-  83 2.38 101 2.38   2 2.48  75 2.48
  96  0.479  0.986  0.000-  67 2.35 114 2.35  38 2.35 117 2.46
  97  0.729  0.152  0.457-  72 2.35  54 2.35  53 2.35  12 2.48
  98  0.851  0.571  0.695- 110 2.38  89 2.38   5 2.48  94 2.48
  99  0.729  0.819  0.091-  50 2.35  68 2.35  57 2.35 114 2.35
 100  0.729  0.819  0.457-  66 2.35 103 2.35  47 2.35
 101  0.851  0.071  0.695- 113 2.38  95 2.38 118 2.48  88 2.48
 102  0.601  0.696  0.830-  49 2.38  19 2.38  89 2.48 119 2.48
 103  0.479  0.736  0.457-  29 2.35 100 2.35  36 2.35  48 2.45
 104  0.351  0.321  0.695- 116 2.38  86 2.38 112 2.48  91 2.48
 105  0.101  0.946  0.830- 117 2.38  25 2.38 113 2.48  92 2.48
 106  0.729  0.486  0.457-  79 2.35  41 2.35  42 2.35  82 2.46
 107  0.351  0.821  0.695-  92 2.38 119 2.38 109 2.48  85 2.48
 108  0.101  0.446  0.830- 120 2.38  31 2.38 110 2.48  86 2.48
 109  0.351  0.946  0.628-  76 2.38   6 2.38 107 2.48  83 2.48
 110  0.101  0.571  0.762-  98 2.38  77 2.38  84 2.48 108 2.48
 111  0.851  0.196  0.897-   2 2.38  78 2.38  37 2.45
 112  0.351  0.446  0.628-  82 2.38  18 2.38 104 2.48  77 2.48
 113  0.101  0.071  0.762- 101 2.38  83 2.38  78 2.48 105 2.48
 114  0.729  0.902  0.000-   1 2.35  96 2.35  99 2.35  25 2.47
 115  0.979  0.319  0.366-  53 2.35  79 2.35  71 2.35  52 2.35
 116  0.601  0.321  0.762- 104 2.38  74 2.38   2 2.48  81 2.48
 117  0.351  0.946  0.897- 105 2.38  75 2.38  96 2.46  67 2.47
 118  0.851  0.196  0.628-  12 2.38  60 2.38  74 2.48 101 2.48
 119  0.601  0.821  0.762- 107 2.38  80 2.38  75 2.48 102 2.48
 120  0.351  0.446  0.897- 108 2.38  81 2.38
 
  LATTYP: Found a simple orthorhombic cell.
 ALAT       =     7.6805944440
 B/A-ratio  =     2.1213200862
 C/A-ratio  =     2.7342758666
  
  Lattice vectors:
  
 A1 = (   7.6805944440,   0.0000000000,   0.0000000000)
 A2 = (   0.0000000000,  16.2929992680,   0.0000000000)
 A3 = (   0.0000000000,   0.0000000000,  21.0008640290)


Analysis of symmetry for initial positions (statically):
=====================================================================
 Subroutine PRICEL returns:
 Original cell was already a primitive cell.
 

 Routine SETGRP: Setting up the symmetry group for a 
 simple orthorhombic supercell.


 Subroutine GETGRP returns: Found  1 space group operations
 (whereof  1 operations were pure point group operations)
 out of a pool of  8 trial point group operations.


The static configuration has the point symmetry C_1 .


Analysis of symmetry for dynamics (positions and initial velocities):
=====================================================================
 Subroutine PRICEL returns:
 Original cell was already a primitive cell.
 

 Routine SETGRP: Setting up the symmetry group for a 
 simple orthorhombic supercell.


 Subroutine GETGRP returns: Found  1 space group operations
 (whereof  1 operations were pure point group operations)
 out of a pool of  8 trial point group operations.


The dynamic configuration has the point symmetry C_1 .


Analysis of structural, dynamic, and magnetic symmetry:
=====================================================================
 Subroutine PRICEL returns:
 Original cell was already a primitive cell.
 

 Routine SETGRP: Setting up the symmetry group for a 
 simple orthorhombic supercell.


 Subroutine GETGRP returns: Found  1 space group operations
 (whereof  1 operations were pure point group operations)
 out of a pool of  8 trial point group operations.


The overall configuration has the point symmetry C_1 .


 Subroutine INISYM returns: Found  1 space group operations
 (whereof  1 operations are pure point group operations),
 and found     1 'primitive' translations


----------------------------------------------------------------------------------------

                                     Primitive cell                                     

  volume of cell :    2628.0464

  direct lattice vectors                    reciprocal lattice vectors
     7.680594444  0.000000000  0.000000000     0.130198256  0.000000000  0.000000000
     0.000000000 16.292999268  0.000000000     0.000000000  0.061376054  0.000000000
     0.000000000  0.000000000 21.000864029     0.000000000  0.000000000  0.047617088

  length of vectors
     7.680594444 16.292999268 21.000864029     0.130198256  0.061376054  0.047617088

  position of ions in fractional coordinates (direct lattice)
     0.978517294  0.985678196  0.000000001
     0.601163685  0.196336150  0.829607725
     0.478517175  0.652344763  0.182863802
     0.228517234  0.485678136  0.274295658
     0.851163626  0.696336031  0.627551734
     0.101163626  0.946336091  0.560199738
     0.978517294  0.319011539  0.000000001
     0.728517234  0.152344853  0.091431901
     0.478517175  0.985678136  0.182863802
     0.228517234  0.819011509  0.274295658
     0.978517175  0.652344763  0.365727574
     0.601163626  0.196336150  0.560199738
     0.978517294  0.652344942  0.000000001
     0.728517234  0.485678196  0.091431901
     0.478517175  0.319011509  0.182863802
     0.228517234  0.152344868  0.274295658
     0.978517175  0.985678136  0.365727574
     0.101163626  0.446336091  0.560199738
     0.351163626  0.696336091  0.896959722
     0.228517249  0.819011450  0.091431901
     0.978517234  0.652344763  0.182863802
     0.728517294  0.485678136  0.274295628
     0.478517175  0.319011390  0.365727574
     0.228517115  0.152344704  0.457159460
     0.851163685  0.946336031  0.896959722
     0.228517249  0.152344853  0.091431901
     0.978517234  0.985678136  0.182863802
     0.728517294  0.819011509  0.274295628
     0.478517175  0.652344763  0.365727574
     0.228517115  0.485678077  0.457159460
     0.851163626  0.446336091  0.896959722
     0.228517249  0.485678196  0.091431901
     0.978517234  0.319011509  0.182863802
     0.728517294  0.152344868  0.274295628
     0.478517175  0.985678136  0.365727574
     0.228517115  0.819011390  0.457159460
     0.728517354  0.235678196  0.000000000
     0.478517294  0.069011487  0.091431893
     0.228517264  0.902344763  0.182863802
     0.978517294  0.735678136  0.274295658
     0.728517234  0.569011450  0.365727574
     0.478517234  0.402344644  0.457159400
     0.728517354  0.569011629  0.000000000
     0.478517294  0.402344882  0.091431893
     0.228517264  0.235678196  0.182863802
     0.978517294  0.069011539  0.274295658
     0.728517234  0.902344823  0.365727574
     0.601163626  0.696336091  0.560199738
     0.851163626  0.696336091  0.896959722
     0.478517294  0.735678196  0.091431893
     0.228517264  0.569011509  0.182863802
     0.978517294  0.402344853  0.274295658
     0.728517234  0.235678121  0.365727574
     0.478517234  0.069011383  0.457159400
     0.351163596  0.196336031  0.896959722
     0.978517234  0.069011487  0.091431901
     0.728517175  0.902344763  0.182863802
     0.478517294  0.735678136  0.274295628
     0.228517175  0.569011450  0.365727574
     0.101163626  0.196336150  0.560199738
     0.228517294  0.569011629  0.000000001
     0.978517234  0.402344882  0.091431901
     0.728517175  0.235678196  0.182863802
     0.478517294  0.069011539  0.274295628
     0.228517175  0.902344823  0.365727574
     0.978517056  0.735678077  0.457159460
     0.228517294  0.902344942  0.000000001
     0.978517234  0.735678196  0.091431901
     0.728517175  0.569011509  0.182863802
     0.478517294  0.402344853  0.274295628
     0.228517175  0.235678121  0.365727574
     0.978517056  0.069011383  0.457159460
     0.101163626  0.696336031  0.560199738
     0.851163685  0.321336091  0.694903731
     0.601163685  0.946336150  0.829607725
     0.601163626  0.946336031  0.560199738
     0.351163626  0.571336091  0.694903731
     0.101163626  0.196336150  0.829607725
     0.978517056  0.402344644  0.457159460
     0.851163685  0.821336150  0.694903731
     0.601163685  0.446336091  0.829607725
     0.601163566  0.446336061  0.560199738
     0.351163626  0.071336150  0.694903731
     0.101163626  0.696336091  0.829607725
     0.351163596  0.696336031  0.627551734
     0.101163626  0.321336091  0.762255728
     0.478517294  0.319011539  0.000000000
     0.851163626  0.946336031  0.627551734
     0.601163626  0.571336091  0.762255728
     0.228517294  0.235678196  0.000000001
     0.351163656  0.196336150  0.627551734
     0.101163626  0.821336150  0.762255728
     0.478517294  0.652344942  0.000000000
     0.851163566  0.446336061  0.627551734
     0.601163626  0.071336150  0.762255728
     0.478517294  0.985678196  0.000000000
     0.728517175  0.152344704  0.457159460
     0.851163745  0.571336150  0.694903731
     0.728517234  0.819011450  0.091431901
     0.728517175  0.819011390  0.457159460
     0.851163685  0.071336150  0.694903731
     0.601163685  0.696336091  0.829607725
     0.478517234  0.735678077  0.457159400
     0.351163656  0.321336150  0.694903731
     0.101163626  0.946336150  0.829607725
     0.728517175  0.485678077  0.457159460
     0.351163626  0.821336091  0.694903731
     0.101163626  0.446336150  0.829607725
     0.351163685  0.946336091  0.627551734
     0.101163626  0.571336150  0.762255728
     0.851163626  0.196336150  0.896959722
     0.351163626  0.446336091  0.627551734
     0.101163626  0.071336150  0.762255728
     0.728517354  0.902344942  0.000000000
     0.978517175  0.319011390  0.365727574
     0.601163626  0.321336061  0.762255728
     0.351163566  0.946336031  0.896959722
     0.851163626  0.196336150  0.627551734
     0.601163626  0.821336150  0.762255728
     0.351163596  0.446336091  0.896959722

  ion indices of the primitive-cell ions
   primitive index   ion index
                 1           1
                 2           2
                 3           3
                 4           4
                 5           5
                 6           6
                 7           7
                 8           8
                 9           9
                10          10
                11          11
                12          12
                13          13
                14          14
                15          15
                16          16
                17          17
                18          18
                19          19
                20          20
                21          21
                22          22
                23          23
                24          24
                25          25
                26          26
                27          27
                28          28
                29          29
                30          30
                31          31
                32          32
                33          33
                34          34
                35          35
                36          36
                37          37
                38          38
                39          39
                40          40
                41          41
                42          42
                43          43
                44          44
                45          45
                46          46
                47          47
                48          48
                49          49
                50          50
                51          51
                52          52
                53          53
                54          54
                55          55
                56          56
                57          57
                58          58
                59          59
                60          60
                61          61
                62          62
                63          63
                64          64
                65          65
                66          66
                67          67
                68          68
                69          69
                70          70
                71          71
                72          72
                73          73
                74          74
                75          75
                76          76
                77          77
                78          78
                79          79
                80          80
                81          81
                82          82
                83          83
                84          84
                85          85
                86          86
                87          87
                88          88
                89          89
                90          90
                91          91
                92          92
                93          93
                94          94
                95          95
                96          96
                97          97
                98          98
                99          99
               100         100
               101         101
               102         102
               103         103
               104         104
               105         105
               106         106
               107         107
               108         108
               109         109
               110         110
               111         111
               112         112
               113         113
               114         114
               115         115
               116         116
               117         117
               118         118
               119         119
               120         120

----------------------------------------------------------------------------------------

 
 
 KPOINTS: Automatic KPOINTS generated             

Automatic generation of k-mesh.
 Grid dimensions read from file:
 generate k-points for:    4    2    1

 Generating k-lattice:

  Cartesian coordinates                     Fractional coordinates (reciprocal lattice)
     0.032549564  0.000000000  0.000000000     0.250000000  0.000000000  0.000000000
     0.000000000  0.030688027  0.000000000     0.000000000  0.500000000  0.000000000
     0.000000000  0.000000000  0.047617088     0.000000000  0.000000000  1.000000000

  Length of vectors
     0.032549564  0.030688027  0.047617088

  Shift w.r.t. Gamma in fractional coordinates (k-lattice)
     0.000000000  0.000000000  0.000000000

 
 Subroutine IBZKPT returns following result:
 ===========================================
 
 Found      6 irreducible k-points:
 
 Following reciprocal coordinates:
            Coordinates               Weight
  0.000000  0.000000  0.000000      1.000000
  0.250000  0.000000  0.000000      2.000000
  0.500000  0.000000  0.000000      1.000000
  0.000000  0.500000  0.000000      1.000000
  0.250000  0.500000  0.000000      2.000000
  0.500000  0.500000  0.000000      1.000000
 
 Following cartesian coordinates:
            Coordinates               Weight
  0.000000  0.000000  0.000000      1.000000
  0.032550  0.000000  0.000000      2.000000
  0.065099  0.000000  0.000000      1.000000
  0.000000  0.030688  0.000000      1.000000
  0.032550  0.030688  0.000000      2.000000
  0.065099  0.030688  0.000000      1.000000
 


--------------------------------------------------------------------------------------------------------




 Dimension of arrays:
   k-points           NKPTS =      6   k-points in BZ     NKDIM =      6   number of bands    NBANDS=    288
   number of dos      NEDOS =    301   number of ions     NIONS =    120
   non local maximal  LDIM  =      5   non local SUM 2l+1 LMDIM =     13
   total plane-waves  NPLWV = 756000
   max r-space proj   IRMAX =   2381   max aug-charges    IRDMAX= 125263
   dimension x,y,z NGX =    50 NGY =  108 NGZ =  140
   dimension x,y,z NGXF=   100 NGYF=  216 NGZF=  280
   support grid    NGXF=   200 NGYF=  432 NGZF=  560
   ions per type =              72  48
   NGX,Y,Z   is equivalent  to a cutoff of  10.82, 11.02, 11.08 a.u.
   NGXF,Y,Z  is equivalent  to a cutoff of  21.64, 22.04, 22.17 a.u.

 SYSTEM =  Si and Ge interface calculation         
 POSCAR =  Si+Ge                                   

 Startparameter for this run:
   NWRITE =      2    write-flag & timer
   PREC   = normal    normal or accurate (medium, high low for compatibility)
   ISTART =      0    job   : 0-new  1-cont  2-samecut
   ICHARG =      2    charge: 1-file 2-atom 10-const
   ISPIN  =      2    spin polarized calculation?
   LNONCOLLINEAR =      F non collinear calculations
   LSORBIT =      F    spin-orbit coupling
   INIWAV =      1    electr: 0-lowe 1-rand  2-diag
   LASPH  =      T    aspherical Exc in radial PAW
 Electronic Relaxation 1
   ENCUT  =  700.0 eV  51.45 Ry    7.17 a.u.  16.57 35.15 45.30*2*pi/ulx,y,z
   ENINI  =  700.0     initial cutoff
   ENAUG  =  900.0 eV  augmentation charge cutoff
   NELM   =    100;   NELMIN=  2; NELMDL= -5     # of ELM steps 
   EDIFF  = 0.1E-06   stopping-criterion for ELM
   LREAL  =      T    real-space projection
   NLSPLINE    = F    spline interpolate recip. space projectors
   LCOMPAT=      F    compatible to vasp.4.4
   GGA_COMPAT  = T    GGA compatible to vasp.4.4-vasp.4.6
   LMAXPAW     = -100 max onsite density
   LMAXMIX     =    6 max onsite mixed and CHGCAR
   VOSKOWN=      0    Vosko Wilk Nusair interpolation
   ROPT   =   -0.00050  -0.00050
 Ionic relaxation
   EDIFFG = 0.1E-05   stopping-criterion for IOM
   NSW    =      0    number of steps for IOM
   NBLOCK =      1;   KBLOCK =      1    inner block; outer block 
   IBRION =     -1    ionic relax: 0-MD 1-quasi-New 2-CG
   NFREE  =      0    steps in history (QN), initial steepest desc. (CG)
   ISIF   =      2    stress and relaxation
   IWAVPR =     10    prediction:  0-non 1-charg 2-wave 3-comb
   ISYM   =      2    0-nonsym 1-usesym 2-fastsym
   LCORR  =      T    Harris-Foulkes like correction to forces

   POTIM  = 0.5000    time-step for ionic-motion
   TEIN   =    0.0    initial temperature
   TEBEG  =    0.0;   TEEND  =   0.0 temperature during run
   SMASS  =  -3.00    Nose mass-parameter (am)
   estimated Nose-frequenzy (Omega)   =  0.10E-29 period in steps = 0.13E+47 mass=  -0.135E-26a.u.
   SCALEE = 1.0000    scale energy and forces
   NPACO  =    256;   APACO  = 10.0  distance and # of slots for P.C.
   PSTRESS=    0.0 pullay stress

  Mass of Ions in am
   POMASS =  28.09 72.61
  Ionic Valenz
   ZVAL   =   4.00  4.00
  Atomic Wigner-Seitz radii
   RWIGS  =  -1.00 -1.00
  virtual crystal weights 
   VCA    =   1.00  1.00
   NELECT =     480.0000    total number of electrons
   NUPDOWN=       1.0000    fix difference up-down

 DOS related values:
   EMIN   =  10.00;   EMAX   =-10.00  energy-range for DOS
   EFERMI =   0.00;   METHOD = LEGACY      
   ISMEAR =     0;   SIGMA  =   0.01  broadening in eV -4-tet -1-fermi 0-gaus

 Electronic relaxation 2 (details)
   IALGO  =     38    algorithm
   LDIAG  =      T    sub-space diagonalisation (order eigenvalues)
   LSUBROT=      F    optimize rotation matrix (better conditioning)
   TURBO    =      0    0=normal 1=particle mesh
   IRESTART =      0    0=no restart 2=restart with 2 vectors
   NREBOOT  =      0    no. of reboots
   NMIN     =      0    reboot dimension
   EREF     =   0.00    reference energy to select bands
   IMIX   =      4    mixing-type and parameters
     AMIX     =   0.60;   BMIX     =  1.00
     AMIX_MAG =   2.40;   BMIX_MAG =  1.00
     AMIN     =   0.10
     WC   =   100.;   INIMIX=   1;  MIXPRE=   1;  MAXMIX= -45

 Intra band minimization:
   WEIMIN = 0.0000     energy-eigenvalue tresh-hold
   EBREAK =  0.87E-10  absolut break condition
   DEPER  =   0.30     relativ break condition  

   TIME   =   0.40     timestep for ELM

  volume/ion in A,a.u.               =      21.90       147.79
  Fermi-wavevector in a.u.,A,eV,Ry     =   0.928847  1.755267 11.738521  0.862757
  Thomas-Fermi vector in A             =   2.055067
 
 Write flags
   LWAVE        =      F    write WAVECAR
   LDOWNSAMPLE  =      F    k-point downsampling of WAVECAR
   LCHARG       =      T    write CHGCAR
   LVTOT        =      F    write LOCPOT, total local potential
   LVHAR        =      T    write LOCPOT, Hartree potential only
   WRT_POTENTIAL=  hartree ionic  ! write potential to hdf5 file
   LELF         =      F    write electronic localiz. function (ELF)
   LORBIT       =      0    0 simple, 1 ext, 2 COOP (PROOUT), +10 PAW based schemes


 Dipole corrections
   LMONO      =      F    monopole corrections only (constant potential shift)
   LDIPOL     =      F    correct potential (dipole corrections)
   IDIPOL     =      0    1-x, 2-y, 3-z, 4-all directions 
   EPSILON    =  1.0000000 bulk dielectric constant
   LVACPOTAV  =      F  vacuum potentials using an averaging scheme for the charge density
   VACPOTFLAT =  0.1000000 required flatness to determine vacuum potential
 Exchange correlation treatment:
   GGA     = PE    functional components
   XC_C    = 1    coefficients multiplying the functional components
   LIBXC   =     F    Libxc                    
   VOSKOWN =     0    Vosko Wilk Nusair interpolation
   LHFCALC =     F    Hartree Fock is set to
   LHFONE  =     F    Hartree Fock one center treatment
   AEXX    =    0.0000 exact exchange contribution

 Parameters of functionals:
   PE:
     No parameter
 
 Van der Waals corrections
   IVDW    =     0    specifies the selected vdW correction

 Linear response parameters
   LEPSILON=     F    determine dielectric tensor
   LRPA    =     F    only Hartree local field effects (RPA)
   LNABLA  =     F    use nabla operator in PAW spheres
   LVEL    =     F    velocity operator in full k-point grid
   CSHIFT  =0.1000    complex shift for real part using Kramers Kronig
   OMEGAMAX=  -1.0    maximum frequency
   DEG_THRESHOLD= 0.2000000E-02 threshold for treating states as degnerate
   RTIME   =   -0.100 relaxation time in fs
  (WPLASMAI=    0.000 imaginary part of plasma frequency in eV, 0.658/RTIME)
   DFIELD  = 0.0000000 0.0000000 0.0000000 field for delta impulse in time
 
  Optional k-point grid parameters
   LKPOINTS_OPT  =     F    use optional k-point grid
   KPOINTS_OPT_MODE=     1    mode for optional k-point grid
 
 Orbital magnetization related:
   ORBITALMAG=     F  switch on orbital magnetization
   LCHIMAG   =     F  perturbation theory with respect to B field
   DQ        =  0.001000  dq finite difference perturbation B field
   LLRAUG    =     F  two centre corrections for induced B field
   LBONE     =     F  B-component reconstruction in AE one-centre
   LVGVCALC  =     T  calculate vGv susceptibility
   LVGVAPPL  =     F  apply vGv susceptibility instead of pGv for G=0

 Random number generation:
   RANDOM_GENERATOR = DEFAULT
   PCG_SEED         = not used


--------------------------------------------------------------------------------------------------------


 Static calculation
 charge density and potential will be updated during run
 spin polarized calculation
 Variant of blocked Davidson
 Davidson routine will perform the subspace rotation
 perform sub-space diagonalisation
    after iterative eigenvector-optimisation
 modified Broyden-mixing scheme, WC =      100.0
 initial mixing is a Kerker type mixing with AMIX =  0.6000 and BMIX =      1.0000
 Hartree-type preconditioning will be used
 using additional bands           48
 real space projection scheme for non local part
 use partial core corrections
 calculate Harris-corrections to forces 
   (improved forces if not selfconsistent)
 use gradient corrections 
 use of overlap-Matrix (Vanderbilt PP)
 Gauss-broadening in eV      SIGMA  =   0.01


--------------------------------------------------------------------------------------------------------


  energy-cutoff  :      700.00
  volume of cell :     2628.05
      direct lattice vectors                 reciprocal lattice vectors
     7.680594444  0.000000000  0.000000000     0.130198256  0.000000000  0.000000000
     0.000000000 16.292999268  0.000000000     0.000000000  0.061376054  0.000000000
     0.000000000  0.000000000 21.000864029     0.000000000  0.000000000  0.047617088

  length of vectors
     7.680594444 16.292999268 21.000864029     0.130198256  0.061376054  0.047617088


 
 k-points in units of 2pi/SCALE and weight: Automatic KPOINTS generated             
   0.00000000  0.00000000  0.00000000       0.125
   0.03254956  0.00000000  0.00000000       0.250
   0.06509913  0.00000000  0.00000000       0.125
   0.00000000  0.03068803  0.00000000       0.125
   0.03254956  0.03068803  0.00000000       0.250
   0.06509913  0.03068803  0.00000000       0.125
 
 k-points in reciprocal lattice and weights: Automatic KPOINTS generated             
   0.00000000  0.00000000  0.00000000       0.125
   0.25000000  0.00000000  0.00000000       0.250
   0.50000000  0.00000000  0.00000000       0.125
   0.00000000  0.50000000  0.00000000       0.125
   0.25000000  0.50000000  0.00000000       0.250
   0.50000000  0.50000000  0.00000000       0.125
 
 position of ions in fractional coordinates (direct lattice) 
   0.97851729  0.98567820  0.00000000
   0.60116369  0.19633615  0.82960773
   0.47851718  0.65234476  0.18286380
   0.22851723  0.48567814  0.27429566
   0.85116363  0.69633603  0.62755173
   0.10116363  0.94633609  0.56019974
   0.97851729  0.31901154  0.00000000
   0.72851723  0.15234485  0.09143190
   0.47851718  0.98567814  0.18286380
   0.22851723  0.81901151  0.27429566
   0.97851718  0.65234476  0.36572757
   0.60116363  0.19633615  0.56019974
   0.97851729  0.65234494  0.00000000
   0.72851723  0.48567820  0.09143190
   0.47851718  0.31901151  0.18286380
   0.22851723  0.15234487  0.27429566
   0.97851718  0.98567814  0.36572757
   0.10116363  0.44633609  0.56019974
   0.35116363  0.69633609  0.89695972
   0.22851725  0.81901145  0.09143190
   0.97851723  0.65234476  0.18286380
   0.72851729  0.48567814  0.27429563
   0.47851718  0.31901139  0.36572757
   0.22851712  0.15234470  0.45715946
   0.85116369  0.94633603  0.89695972
   0.22851725  0.15234485  0.09143190
   0.97851723  0.98567814  0.18286380
   0.72851729  0.81901151  0.27429563
   0.47851718  0.65234476  0.36572757
   0.22851712  0.48567808  0.45715946
   0.85116363  0.44633609  0.89695972
   0.22851725  0.48567820  0.09143190
   0.97851723  0.31901151  0.18286380
   0.72851729  0.15234487  0.27429563
   0.47851718  0.98567814  0.36572757
   0.22851712  0.81901139  0.45715946
   0.72851735  0.23567820  0.00000000
   0.47851729  0.06901149  0.09143189
   0.22851726  0.90234476  0.18286380
   0.97851729  0.73567814  0.27429566
   0.72851723  0.56901145  0.36572757
   0.47851723  0.40234464  0.45715940
   0.72851735  0.56901163  0.00000000
   0.47851729  0.40234488  0.09143189
   0.22851726  0.23567820  0.18286380
   0.97851729  0.06901154  0.27429566
   0.72851723  0.90234482  0.36572757
   0.60116363  0.69633609  0.56019974
   0.85116363  0.69633609  0.89695972
   0.47851729  0.73567820  0.09143189
   0.22851726  0.56901151  0.18286380
   0.97851729  0.40234485  0.27429566
   0.72851723  0.23567812  0.36572757
   0.47851723  0.06901138  0.45715940
   0.35116360  0.19633603  0.89695972
   0.97851723  0.06901149  0.09143190
   0.72851718  0.90234476  0.18286380
   0.47851729  0.73567814  0.27429563
   0.22851718  0.56901145  0.36572757
   0.10116363  0.19633615  0.56019974
   0.22851729  0.56901163  0.00000000
   0.97851723  0.40234488  0.09143190
   0.72851718  0.23567820  0.18286380
   0.47851729  0.06901154  0.27429563
   0.22851718  0.90234482  0.36572757
   0.97851706  0.73567808  0.45715946
   0.22851729  0.90234494  0.00000000
   0.97851723  0.73567820  0.09143190
   0.72851718  0.56901151  0.18286380
   0.47851729  0.40234485  0.27429563
   0.22851718  0.23567812  0.36572757
   0.97851706  0.06901138  0.45715946
   0.10116363  0.69633603  0.56019974
   0.85116369  0.32133609  0.69490373
   0.60116369  0.94633615  0.82960773
   0.60116363  0.94633603  0.56019974
   0.35116363  0.57133609  0.69490373
   0.10116363  0.19633615  0.82960773
   0.97851706  0.40234464  0.45715946
   0.85116369  0.82133615  0.69490373
   0.60116369  0.44633609  0.82960773
   0.60116357  0.44633606  0.56019974
   0.35116363  0.07133615  0.69490373
   0.10116363  0.69633609  0.82960773
   0.35116360  0.69633603  0.62755173
   0.10116363  0.32133609  0.76225573
   0.47851729  0.31901154  0.00000000
   0.85116363  0.94633603  0.62755173
   0.60116363  0.57133609  0.76225573
   0.22851729  0.23567820  0.00000000
   0.35116366  0.19633615  0.62755173
   0.10116363  0.82133615  0.76225573
   0.47851729  0.65234494  0.00000000
   0.85116357  0.44633606  0.62755173
   0.60116363  0.07133615  0.76225573
   0.47851729  0.98567820  0.00000000
   0.72851718  0.15234470  0.45715946
   0.85116375  0.57133615  0.69490373
   0.72851723  0.81901145  0.09143190
   0.72851718  0.81901139  0.45715946
   0.85116369  0.07133615  0.69490373
   0.60116369  0.69633609  0.82960773
   0.47851723  0.73567808  0.45715940
   0.35116366  0.32133615  0.69490373
   0.10116363  0.94633615  0.82960773
   0.72851718  0.48567808  0.45715946
   0.35116363  0.82133609  0.69490373
   0.10116363  0.44633615  0.82960773
   0.35116369  0.94633609  0.62755173
   0.10116363  0.57133615  0.76225573
   0.85116363  0.19633615  0.89695972
   0.35116363  0.44633609  0.62755173
   0.10116363  0.07133615  0.76225573
   0.72851735  0.90234494  0.00000000
   0.97851718  0.31901139  0.36572757
   0.60116363  0.32133606  0.76225573
   0.35116357  0.94633603  0.89695972
   0.85116363  0.19633615  0.62755173
   0.60116363  0.82133615  0.76225573
   0.35116360  0.44633609  0.89695972
 
 position of ions in cartesian coordinates  (Angst):
   7.51559449 16.05965413  0.00000002
   4.61729446  3.19890475 17.42247903
   3.67529636 10.62865275  3.84029784
   1.75514820  7.91315351  5.76044582
   6.53744262 11.34540244 13.17912864
   0.77699678 15.41865324 11.76467853
   7.51559449  5.19765477  0.00000002
   5.59544542  2.48215458  1.92014892
   3.67529636 16.05965315  3.84029784
   1.75514820 13.34415392  5.76044582
   7.51559358 10.62865275  7.68059505
   4.61729401  3.19890475 11.76467853
   7.51559449 10.62865566  0.00000002
   5.59544542  7.91315449  1.92014892
   3.67529636  5.19765428  3.84029784
   1.75514820  2.48215482  5.76044582
   7.51559358 16.05965315  7.68059505
   0.77699678  7.27215360 11.76467853
   2.69714539 11.34540342 18.83692916
   1.75514831 13.34415296  1.92014892
   7.51559403 10.62865275  3.84029784
   5.59544588  7.91315351  5.76044519
   3.67529636  5.19765234  7.68059505
   1.75514728  2.48215215  9.60074366
   6.53744307 15.41865226 18.83692916
   1.75514831  2.48215458  1.92014892
   7.51559403 16.05965315  3.84029784
   5.59544588 13.34415392  5.76044519
   3.67529636 10.62865275  7.68059505
   1.75514728  7.91315255  9.60074366
   6.53744262  7.27215360 18.83692916
   1.75514831  7.91315449  1.92014892
   7.51559403  5.19765428  3.84029784
   5.59544588  2.48215482  5.76044519
   3.67529636 16.05965315  7.68059505
   1.75514728 13.34415198  9.60074366
   5.59544634  3.83990467  0.00000000
   3.67529727  1.12440411  1.92014875
   1.75514843 14.70190256  3.84029784
   7.51559449 11.98640333  5.76044582
   5.59544542  9.27090314  7.68059505
   3.67529681  6.55540099  9.60074240
   5.59544634  9.27090605  0.00000000
   3.67529727  6.55540487  1.92014875
   1.75514843  3.83990467  3.84029784
   7.51559449  1.12440495  5.76044582
   5.59544542 14.70190354  7.68059505
   4.61729401 11.34540342 11.76467853
   6.53744262 11.34540342 18.83692916
   3.67529727 11.98640431  1.92014875
   1.75514843  9.27090410  3.84029784
   7.51559449  6.55540440  5.76044582
   5.59544542  3.83990345  7.68059505
   3.67529681  1.12440241  9.60074240
   2.69714516  3.19890281 18.83692916
   7.51559403  1.12440411  1.92014892
   5.59544497 14.70190256  3.84029784
   3.67529727 11.98640333  5.76044519
   1.75514774  9.27090314  7.68059505
   0.77699678  3.19890475 11.76467853
   1.75514866  9.27090605  0.00000002
   7.51559403  6.55540487  1.92014892
   5.59544497  3.83990467  3.84029784
   3.67529727  1.12440495  5.76044519
   1.75514774 14.70190354  7.68059505
   7.51559266 11.98640237  9.60074366
   1.75514866 14.70190548  0.00000002
   7.51559403 11.98640431  1.92014892
   5.59544497  9.27090410  3.84029784
   3.67529727  6.55540440  5.76044519
   1.75514774  3.83990345  7.68059505
   7.51559266  1.12440241  9.60074366
   0.77699678 11.34540244 11.76467853
   6.53744307  5.23552870 14.59357877
   4.61729446 15.41865420 17.42247903
   4.61729401 15.41865226 11.76467853
   2.69714539  9.30877851 14.59357877
   0.77699678  3.19890475 17.42247903
   7.51559266  6.55540099  9.60074366
   6.53744307 13.38202929 14.59357877
   4.61729446  7.27215360 17.42247903
   4.61729354  7.27215312 11.76467853
   2.69714539  1.16227984 14.59357877
   0.77699678 11.34540342 17.42247903
   2.69714516 11.34540244 13.17912864
   0.77699678  5.23552870 16.00802890
   3.67529727  5.19765477  0.00000000
   6.53744262 15.41865226 13.17912864
   4.61729401  9.30877851 16.00802890
   1.75514866  3.83990467  0.00000002
   2.69714563  3.19890475 13.17912864
   0.77699678 13.38202929 16.00802890
   3.67529727 10.62865566  0.00000000
   6.53744216  7.27215312 13.17912864
   4.61729401  1.16227984 16.00802890
   3.67529727 16.05965413  0.00000000
   5.59544497  2.48215215  9.60074366
   6.53744353  9.30877947 14.59357877
   5.59544542 13.34415296  1.92014892
   5.59544497 13.34415198  9.60074366
   6.53744307  1.16227984 14.59357877
   4.61729446 11.34540342 17.42247903
   3.67529681 11.98640237  9.60074240
   2.69714563  5.23552966 14.59357877
   0.77699678 15.41865420 17.42247903
   5.59544497  7.91315255  9.60074366
   2.69714539 13.38202833 14.59357877
   0.77699678  7.27215457 17.42247903
   2.69714585 15.41865324 13.17912864
   0.77699678  9.30877947 16.00802890
   6.53744262  3.19890475 18.83692916
   2.69714539  7.27215360 13.17912864
   0.77699678  1.16227984 16.00802890
   5.59544634 14.70190548  0.00000000
   7.51559358  5.19765234  7.68059505
   4.61729401  5.23552821 16.00802890
   2.69714493 15.41865226 18.83692916
   6.53744262  3.19890475 13.17912864
   4.61729401 13.38202929 16.00802890
   2.69714516  7.27215360 18.83692916
 


--------------------------------------------------------------------------------------------------------


 k-point     1 :   0.0000 0.0000 0.0000  plane waves:  110549
 k-point     2 :   0.2500 0.0000 0.0000  plane waves:  110533
 k-point     3 :   0.5000 0.0000 0.0000  plane waves:  110530
 k-point     4 :   0.0000 0.5000 0.0000  plane waves:  110618
 k-point     5 :   0.2500 0.5000 0.0000  plane waves:  110556
 k-point     6 :   0.5000 0.5000 0.0000  plane waves:  110468

 maximum and minimum number of plane-waves per node :      6948     6873

 maximum number of plane-waves:    110618
 maximum index in each direction: 
   IXMAX=   16   IYMAX=   35   IZMAX=   45
   IXMIN=  -17   IYMIN=  -35   IZMIN=  -45


 real space projection operators:
  total allocation   :      17563.77 KBytes
  max/ min on nodes  :       1402.31       1021.78


 parallel 3D FFT for wavefunctions:
    minimum data exchange during FFTs selected (reduces bandwidth)
 parallel 3D FFT for charge:
    minimum data exchange during FFTs selected (reduces bandwidth)


 total amount of memory used by VASP MPI-rank0   166801. kBytes
=======================================================================

   base      :      30000. kBytes
   nonlr-proj:       6520. kBytes
   fftplans  :      18524. kBytes
   grid      :      14584. kBytes
   one-center:        129. kBytes
   wavefun   :      97044. kBytes
 
     INWAV:  cpu time      0.0000: real time      0.0003
 Broyden mixing: mesh for mixing (old mesh)
   NGX = 33   NGY = 71   NGZ = 91
  (NGX  =100   NGY  =216   NGZ  =280)
  gives a total of 213213 points

 initial charge density was supplied:
 charge density of overlapping atoms calculated
 number of electron     480.0000000 magnetization       1.0000000
 keeping initial charge density in first step


--------------------------------------------------------------------------------------------------------


 Maximum index for non-local projection operator          417
 Maximum index for augmentation-charges         5904 (set IRDMAX)


--------------------------------------------------------------------------------------------------------


 First call to EWALD:  gamma=   0.128
 Maximum number of real-space cells 5x 2x 2
 Maximum number of reciprocal cells 2x 3x 4

    FEWALD:  cpu time      0.0032: real time      0.0032


--------------------------------------- Ionic step        1  -------------------------------------------




--------------------------------------- Iteration      1(   1)  ---------------------------------------


    POTLOK:  cpu time      0.2034: real time      0.2052
    SETDIJ:  cpu time      1.0208: real time      1.0266
     EDDAV:  cpu time     18.0282: real time     18.1857
       DOS:  cpu time      0.0019: real time      0.0019
    --------------------------------------------
      LOOP:  cpu time     19.2544: real time     19.4195

 eigenvalue-minimisations  :  6912
 total energy-change (2. order) : 0.1966494E+04  (-0.2139699E+05)
 number of electron     480.0000000 magnetization       1.0000000
 augmentation part      480.0000000 magnetization       1.0000000

 Free energy of the ion-electron system (eV)
  ---------------------------------------------------
  alpha Z        PSCENC =       529.58409355
  Ewald energy   TEWEN  =    -12736.13709485
  -Hartree energ DENC   =     -1248.53107221
  -exchange      EXHF   =         0.00000000
  -V(xc)+E(xc)   XCENC  =     -1036.07503984
  PAW double counting   =     10575.88222728    -8613.76247617
  entropy T*S    EENTRO =        -0.00206699
  eigenvalues    EBANDS =      2034.93503560
  atomic energy  EATOM  =     12460.60057749
  Solvation  Ediel_sol  =         0.00000000
  ---------------------------------------------------
  free energy    TOTEN  =      1966.49418385 eV

  energy without entropy =     1966.49625084  energy(sigma->0) =     1966.49521735


--------------------------------------------------------------------------------------------------------




--------------------------------------- Iteration      1(   2)  ---------------------------------------


     EDDAV:  cpu time     20.3110: real time     20.4789
       DOS:  cpu time      0.0014: real time      0.0014
    --------------------------------------------
      LOOP:  cpu time     20.3123: real time     20.4802

 eigenvalue-minimisations  :  8096
 total energy-change (2. order) :-0.2326716E+04  (-0.2244508E+04)
 number of electron     480.0000000 magnetization       1.0000000
 augmentation part      480.0000000 magnetization       1.0000000

 Free energy of the ion-electron system (eV)
  ---------------------------------------------------
  alpha Z        PSCENC =       529.58409355
  Ewald energy   TEWEN  =    -12736.13709485
  -Hartree energ DENC   =     -1248.53107221
  -exchange      EXHF   =         0.00000000
  -V(xc)+E(xc)   XCENC  =     -1036.07503984
  PAW double counting   =     10575.88222728    -8613.76247617
  entropy T*S    EENTRO =        -0.00236837
  eigenvalues    EBANDS =      -291.78102352
  atomic energy  EATOM  =     12460.60057749
  Solvation  Ediel_sol  =         0.00000000
  ---------------------------------------------------
  free energy    TOTEN  =      -360.22217665 eV

  energy without entropy =     -360.21980828  energy(sigma->0) =     -360.22099247


--------------------------------------------------------------------------------------------------------




--------------------------------------- Iteration      1(   3)  ---------------------------------------


     EDDAV:  cpu time     21.1070: real time     21.2903
       DOS:  cpu time      0.0014: real time      0.0014
    --------------------------------------------
      LOOP:  cpu time     21.1084: real time     21.2916

 eigenvalue-minimisations  :  8504
 total energy-change (2. order) :-0.2162490E+03  (-0.2099130E+03)
 number of electron     480.0000000 magnetization       1.0000000
 augmentation part      480.0000000 magnetization       1.0000000

 Free energy of the ion-electron system (eV)
  ---------------------------------------------------
  alpha Z        PSCENC =       529.58409355
  Ewald energy   TEWEN  =    -12736.13709485
  -Hartree energ DENC   =     -1248.53107221
  -exchange      EXHF   =         0.00000000
  -V(xc)+E(xc)   XCENC  =     -1036.07503984
  PAW double counting   =     10575.88222728    -8613.76247617
  entropy T*S    EENTRO =        -0.00203680
  eigenvalues    EBANDS =      -508.03032270
  atomic energy  EATOM  =     12460.60057749
  Solvation  Ediel_sol  =         0.00000000
  ---------------------------------------------------
  free energy    TOTEN  =      -576.47114427 eV

  energy without entropy =     -576.46910746  energy(sigma->0) =     -576.47012586


--------------------------------------------------------------------------------------------------------




--------------------------------------- Iteration      1(   4)  ---------------------------------------


     EDDAV:  cpu time     20.3758: real time     20.5442
       DOS:  cpu time      0.0014: real time      0.0014
    --------------------------------------------
      LOOP:  cpu time     20.3772: real time     20.5456

 eigenvalue-minimisations  :  8176
 total energy-change (2. order) :-0.7867699E+01  (-0.7732118E+01)
 number of electron     480.0000000 magnetization       1.0000000
 augmentation part      480.0000000 magnetization       1.0000000

 Free energy of the ion-electron system (eV)
  ---------------------------------------------------
  alpha Z        PSCENC =       529.58409355
  Ewald energy   TEWEN  =    -12736.13709485
  -Hartree energ DENC   =     -1248.53107221
  -exchange      EXHF   =         0.00000000
  -V(xc)+E(xc)   XCENC  =     -1036.07503984
  PAW double counting   =     10575.88222728    -8613.76247617
  entropy T*S    EENTRO =        -0.00263424
  eigenvalues    EBANDS =      -515.89742377
  atomic energy  EATOM  =     12460.60057749
  Solvation  Ediel_sol  =         0.00000000
  ---------------------------------------------------
  free energy    TOTEN  =      -584.33884277 eV

  energy without entropy =     -584.33620853  energy(sigma->0) =     -584.33752565


--------------------------------------------------------------------------------------------------------




--------------------------------------- Iteration      1(   5)  ---------------------------------------


     EDDAV:  cpu time     22.4703: real time     22.6662
       DOS:  cpu time      0.0014: real time      0.0014
    CHARGE:  cpu time      1.0664: real time      1.0823
    MIXING:  cpu time      0.0047: real time      0.0048
    --------------------------------------------
      LOOP:  cpu time     23.5429: real time     23.7547

 eigenvalue-minimisations  :  9224
 total energy-change (2. order) :-0.2979708E+00  (-0.2962620E+00)
 number of electron     479.9999997 magnetization       1.0000000
 augmentation part      -48.5695367 magnetization      -0.0712528

 Broyden mixing:
  rms(total) = 0.31577E+01    rms(broyden)= 0.31577E+01
  rms(prec ) = 0.33058E+01
  weight for this iteration     100.00

 Free energy of the ion-electron system (eV)
  ---------------------------------------------------
  alpha Z        PSCENC =       529.58409355
  Ewald energy   TEWEN  =    -12736.13709485
  -Hartree energ DENC   =     -1248.53107221
  -exchange      EXHF   =         0.00000000
  -V(xc)+E(xc)   XCENC  =     -1036.07503984
  PAW double counting   =     10575.88222728    -8613.76247617
  entropy T*S    EENTRO =        -0.00293207
  eigenvalues    EBANDS =      -516.19509679
  atomic energy  EATOM  =     12460.60057749
  Solvation  Ediel_sol  =         0.00000000
  ---------------------------------------------------
  free energy    TOTEN  =      -584.63681362 eV

  energy without entropy =     -584.63388155  energy(sigma->0) =     -584.63534758


--------------------------------------------------------------------------------------------------------




--------------------------------------- Iteration      1(   6)  ---------------------------------------


    POTLOK:  cpu time      0.1744: real time      0.1768
    SETDIJ:  cpu time      1.0078: real time      1.0142
     EDDAV:  cpu time     20.6870: real time     20.9011
       DOS:  cpu time      0.0014: real time      0.0014
    CHARGE:  cpu time      1.0678: real time      1.0778
    MIXING:  cpu time      0.0048: real time      0.0048
    --------------------------------------------
      LOOP:  cpu time     22.9430: real time     23.1761

 eigenvalue-minimisations  :  8328
 total energy-change (2. order) : 0.8861333E+01  (-0.1411174E+01)
 number of electron     479.9999997 magnetization       1.0000000
 augmentation part      -48.1707487 magnetization      -0.0522362

 Broyden mixing:
  rms(total) = 0.14414E+01    rms(broyden)= 0.14414E+01
  rms(prec ) = 0.15385E+01
  weight for this iteration     100.00

 eigenvalues of (default mixing * dielectric matrix)
  average eigenvalue GAMMA=   1.7017
  1.7017

 Free energy of the ion-electron system (eV)
  ---------------------------------------------------
  alpha Z        PSCENC =       529.58409355
  Ewald energy   TEWEN  =    -12736.13709485
  -Hartree energ DENC   =     -1382.51446312
  -exchange      EXHF   =         0.00000000
  -V(xc)+E(xc)   XCENC  =     -1017.11925862
  PAW double counting   =     22309.42469935   -20356.13428692
  entropy T*S    EENTRO =        -0.00252860
  eigenvalues    EBANDS =      -383.47721852
  atomic energy  EATOM  =     12460.60057749
  Solvation  Ediel_sol  =         0.00000000
  ---------------------------------------------------
  free energy    TOTEN  =      -575.77548024 eV

  energy without entropy =     -575.77295164  energy(sigma->0) =     -575.77421594


--------------------------------------------------------------------------------------------------------




--------------------------------------- Iteration      1(   7)  ---------------------------------------


    POTLOK:  cpu time      0.1749: real time      0.1763
    SETDIJ:  cpu time      1.0096: real time      1.0150
     EDDAV:  cpu time     20.9466: real time     21.1228
       DOS:  cpu time      0.0016: real time      0.0017
    CHARGE:  cpu time      1.0633: real time      1.0723
    MIXING:  cpu time      0.0050: real time      0.0050
    --------------------------------------------
      LOOP:  cpu time     23.2010: real time     23.3931

 eigenvalue-minimisations  :  8456
 total energy-change (2. order) :-0.2367087E+00  (-0.1533372E+01)
 number of electron     479.9999997 magnetization       1.0000000
 augmentation part      -48.0488935 magnetization      -0.0490638

 Broyden mixing:
  rms(total) = 0.67241E+00    rms(broyden)= 0.67241E+00
  rms(prec ) = 0.93023E+00
  weight for this iteration     100.00

 eigenvalues of (default mixing * dielectric matrix)
  average eigenvalue GAMMA=   1.1871
  1.8580  0.5163

 Free energy of the ion-electron system (eV)
  ---------------------------------------------------
  alpha Z        PSCENC =       529.58409355
  Ewald energy   TEWEN  =    -12736.13709485
  -Hartree energ DENC   =     -1438.32804959
  -exchange      EXHF   =         0.00000000
  -V(xc)+E(xc)   XCENC  =     -1004.34975310
  PAW double counting   =     33812.92305690   -31865.24428027
  entropy T*S    EENTRO =        -0.00194789
  eigenvalues    EBANDS =      -335.05879119
  atomic energy  EATOM  =     12460.60057749
  Solvation  Ediel_sol  =         0.00000000
  ---------------------------------------------------
  free energy    TOTEN  =      -576.01218895 eV

  energy without entropy =     -576.01024106  energy(sigma->0) =     -576.01121501


--------------------------------------------------------------------------------------------------------




--------------------------------------- Iteration      1(   8)  ---------------------------------------


    POTLOK:  cpu time      0.1751: real time      0.1766
    SETDIJ:  cpu time      1.0080: real time      1.0135
     EDDAV:  cpu time     20.8441: real time     21.0178
       DOS:  cpu time      0.0014: real time      0.0013
    CHARGE:  cpu time      1.0713: real time      1.0800
    MIXING:  cpu time      0.0052: real time      0.0053
    --------------------------------------------
      LOOP:  cpu time     23.1050: real time     23.2945

 eigenvalue-minimisations  :  8400
 total energy-change (2. order) : 0.1166264E+01  (-0.4572739E+00)
 number of electron     479.9999997 magnetization       1.0000000
 augmentation part      -47.7907085 magnetization      -0.0531692

 Broyden mixing:
  rms(total) = 0.16120E+00    rms(broyden)= 0.16120E+00
  rms(prec ) = 0.17893E+00
  weight for this iteration     100.00

 eigenvalues of (default mixing * dielectric matrix)
  average eigenvalue GAMMA=   1.2267
  1.8398  1.2670  0.5733

 Free energy of the ion-electron system (eV)
  ---------------------------------------------------
  alpha Z        PSCENC =       529.58409355
  Ewald energy   TEWEN  =    -12736.13709485
  -Hartree energ DENC   =     -1464.14997397
  -exchange      EXHF   =         0.00000000
  -V(xc)+E(xc)   XCENC  =     -1001.33750769
  PAW double counting   =     38486.84256073   -36540.50452397
  entropy T*S    EENTRO =        -0.00270647
  eigenvalues    EBANDS =      -309.74135014
  atomic energy  EATOM  =     12460.60057749
  Solvation  Ediel_sol  =         0.00000000
  ---------------------------------------------------
  free energy    TOTEN  =      -574.84592531 eV

  energy without entropy =     -574.84321885  energy(sigma->0) =     -574.84457208


--------------------------------------------------------------------------------------------------------




--------------------------------------- Iteration      1(   9)  ---------------------------------------


    POTLOK:  cpu time      0.1759: real time      0.1775
    SETDIJ:  cpu time      1.0057: real time      1.0121
     EDDAV:  cpu time     20.1365: real time     20.3428
       DOS:  cpu time      0.0013: real time      0.0013
    CHARGE:  cpu time      1.0708: real time      1.0806
    MIXING:  cpu time      0.0052: real time      0.0052
    --------------------------------------------
      LOOP:  cpu time     22.3954: real time     22.6195

 eigenvalue-minimisations  :  8072
 total energy-change (2. order) :-0.6454557E-01  (-0.1433525E+00)
 number of electron     479.9999997 magnetization       1.0000000
 augmentation part      -47.8436938 magnetization      -0.0553812

 Broyden mixing:
  rms(total) = 0.12520E+00    rms(broyden)= 0.12520E+00
  rms(prec ) = 0.14380E+00
  weight for this iteration     100.00

 eigenvalues of (default mixing * dielectric matrix)
  average eigenvalue GAMMA=   1.1445
  1.7165  1.7165  0.6258  0.5192

 Free energy of the ion-electron system (eV)
  ---------------------------------------------------
  alpha Z        PSCENC =       529.58409355
  Ewald energy   TEWEN  =    -12736.13709485
  -Hartree energ DENC   =     -1454.95541996
  -exchange      EXHF   =         0.00000000
  -V(xc)+E(xc)   XCENC  =     -1002.15839998
  PAW double counting   =     39159.17888498   -37212.51291696
  entropy T*S    EENTRO =        -0.00264444
  eigenvalues    EBANDS =      -318.50755071
  atomic energy  EATOM  =     12460.60057749
  Solvation  Ediel_sol  =         0.00000000
  ---------------------------------------------------
  free energy    TOTEN  =      -574.91047088 eV

  energy without entropy =     -574.90782645  energy(sigma->0) =     -574.90914866


--------------------------------------------------------------------------------------------------------




--------------------------------------- Iteration      1(  10)  ---------------------------------------


    POTLOK:  cpu time      0.1744: real time      0.1760
    SETDIJ:  cpu time      1.0061: real time      1.0117
     EDDAV:  cpu time     20.4586: real time     20.6280
       DOS:  cpu time      0.0013: real time      0.0014
    CHARGE:  cpu time      1.0708: real time      1.0792
    MIXING:  cpu time      0.0054: real time      0.0055
    --------------------------------------------
      LOOP:  cpu time     22.7167: real time     22.9017

 eigenvalue-minimisations  :  8208
 total energy-change (2. order) : 0.1108624E-01  (-0.2027547E-01)
 number of electron     479.9999997 magnetization       1.0000000
 augmentation part      -47.8761073 magnetization      -0.0558956

 Broyden mixing:
  rms(total) = 0.83827E-01    rms(broyden)= 0.83827E-01
  rms(prec ) = 0.10050E+00
  weight for this iteration     100.00

 eigenvalues of (default mixing * dielectric matrix)
  average eigenvalue GAMMA=   1.0689
  1.7457  1.7457  0.7283  0.5624  0.5624

 Free energy of the ion-electron system (eV)
  ---------------------------------------------------
  alpha Z        PSCENC =       529.58409355
  Ewald energy   TEWEN  =    -12736.13709485
  -Hartree energ DENC   =     -1449.49229536
  -exchange      EXHF   =         0.00000000
  -V(xc)+E(xc)   XCENC  =     -1002.66264350
  PAW double counting   =     39338.38782038   -37391.50553269
  entropy T*S    EENTRO =        -0.00266710
  eigenvalues    EBANDS =      -323.67164256
  atomic energy  EATOM  =     12460.60057749
  Solvation  Ediel_sol  =         0.00000000
  ---------------------------------------------------
  free energy    TOTEN  =      -574.89938465 eV

  energy without entropy =     -574.89671754  energy(sigma->0) =     -574.89805110


--------------------------------------------------------------------------------------------------------




--------------------------------------- Iteration      1(  11)  ---------------------------------------


    POTLOK:  cpu time      0.1745: real time      0.1762
    SETDIJ:  cpu time      1.0098: real time      1.0155
     EDDAV:  cpu time     20.7436: real time     20.9148
       DOS:  cpu time      0.0014: real time      0.0014
    CHARGE:  cpu time      1.0627: real time      1.0710
    MIXING:  cpu time      0.0054: real time      0.0054
    --------------------------------------------
      LOOP:  cpu time     22.9975: real time     23.1844

 eigenvalue-minimisations  :  8328
 total energy-change (2. order) :-0.8377571E-04  (-0.8749765E-02)
 number of electron     479.9999997 magnetization       1.0000000
 augmentation part      -47.8770437 magnetization      -0.0556947

 Broyden mixing:
  rms(total) = 0.58843E-01    rms(broyden)= 0.58843E-01
  rms(prec ) = 0.80202E-01
  weight for this iteration     100.00

 eigenvalues of (default mixing * dielectric matrix)
  average eigenvalue GAMMA=   1.0072
  1.6150  1.6150  1.0141  0.7166  0.7166  0.3661

 Free energy of the ion-electron system (eV)
  ---------------------------------------------------
  alpha Z        PSCENC =       529.58409355
  Ewald energy   TEWEN  =    -12736.13709485
  -Hartree energ DENC   =     -1448.34942810
  -exchange      EXHF   =         0.00000000
  -V(xc)+E(xc)   XCENC  =     -1002.77961601
  PAW double counting   =     39397.87190184   -37450.94143433
  entropy T*S    EENTRO =        -0.00256023
  eigenvalues    EBANDS =      -324.74590777
  atomic energy  EATOM  =     12460.60057749
  Solvation  Ediel_sol  =         0.00000000
  ---------------------------------------------------
  free energy    TOTEN  =      -574.89946842 eV

  energy without entropy =     -574.89690820  energy(sigma->0) =     -574.89818831


--------------------------------------------------------------------------------------------------------




--------------------------------------- Iteration      1(  12)  ---------------------------------------


    POTLOK:  cpu time      0.1764: real time      0.1778
    SETDIJ:  cpu time      1.0080: real time      1.0134
     EDDAV:  cpu time     20.8075: real time     20.9798
       DOS:  cpu time      0.0014: real time      0.0014
    CHARGE:  cpu time      1.0595: real time      1.0689
    MIXING:  cpu time      0.0058: real time      0.0059
    --------------------------------------------
      LOOP:  cpu time     23.0584: real time     23.2470

 eigenvalue-minimisations  :  8344
 total energy-change (2. order) : 0.5142226E-02  (-0.3264317E-02)
 number of electron     479.9999997 magnetization       1.0000000
 augmentation part      -47.8742138 magnetization      -0.0552637

 Broyden mixing:
  rms(total) = 0.33607E-01    rms(broyden)= 0.33607E-01
  rms(prec ) = 0.37143E-01
  weight for this iteration     100.00

 eigenvalues of (default mixing * dielectric matrix)
  average eigenvalue GAMMA=   1.0234
  1.6019  1.5754  1.5754  0.8988  0.6369  0.5642  0.3113

 Free energy of the ion-electron system (eV)
  ---------------------------------------------------
  alpha Z        PSCENC =       529.58409355
  Ewald energy   TEWEN  =    -12736.13709485
  -Hartree energ DENC   =     -1449.18869611
  -exchange      EXHF   =         0.00000000
  -V(xc)+E(xc)   XCENC  =     -1002.72780805
  PAW double counting   =     39368.62500404   -37421.71886686
  entropy T*S    EENTRO =        -0.00302588
  eigenvalues    EBANDS =      -323.92850952
  atomic energy  EATOM  =     12460.60057749
  Solvation  Ediel_sol  =         0.00000000
  ---------------------------------------------------
  free energy    TOTEN  =      -574.89432620 eV

  energy without entropy =     -574.89130032  energy(sigma->0) =     -574.89281326


--------------------------------------------------------------------------------------------------------




--------------------------------------- Iteration      1(  13)  ---------------------------------------


    POTLOK:  cpu time      0.1742: real time      0.1766
    SETDIJ:  cpu time      1.0097: real time      1.0155
     EDDAV:  cpu time     20.0373: real time     20.2129
       DOS:  cpu time      0.0013: real time      0.0013
    CHARGE:  cpu time      1.0658: real time      1.0744
    MIXING:  cpu time      0.0058: real time      0.0059
    --------------------------------------------
      LOOP:  cpu time     22.2942: real time     22.4867

 eigenvalue-minimisations  :  7968
 total energy-change (2. order) :-0.8350406E-04  (-0.1030706E-02)
 number of electron     479.9999997 magnetization       1.0000000
 augmentation part      -47.8738159 magnetization      -0.0553190

 Broyden mixing:
  rms(total) = 0.19163E-01    rms(broyden)= 0.19163E-01
  rms(prec ) = 0.21606E-01
  weight for this iteration     100.00

 eigenvalues of (default mixing * dielectric matrix)
  average eigenvalue GAMMA=   1.0751
  2.0103  2.0103  1.6230  0.7747  0.7747  0.6149  0.4906  0.3021

 Free energy of the ion-electron system (eV)
  ---------------------------------------------------
  alpha Z        PSCENC =       529.58409355
  Ewald energy   TEWEN  =    -12736.13709485
  -Hartree energ DENC   =     -1449.01024387
  -exchange      EXHF   =         0.00000000
  -V(xc)+E(xc)   XCENC  =     -1002.76661562
  PAW double counting   =     39308.42254766   -37361.50041661
  entropy T*S    EENTRO =        -0.00300255
  eigenvalues    EBANDS =      -324.08425490
  atomic energy  EATOM  =     12460.60057749
  Solvation  Ediel_sol  =         0.00000000
  ---------------------------------------------------
  free energy    TOTEN  =      -574.89440970 eV

  energy without entropy =     -574.89140715  energy(sigma->0) =     -574.89290843


--------------------------------------------------------------------------------------------------------




--------------------------------------- Iteration      1(  14)  ---------------------------------------


    POTLOK:  cpu time      0.1763: real time      0.1777
    SETDIJ:  cpu time      1.0090: real time      1.0149
     EDDAV:  cpu time     20.0380: real time     20.2132
       DOS:  cpu time      0.0014: real time      0.0014
    CHARGE:  cpu time      1.0694: real time      1.0782
    MIXING:  cpu time      0.0060: real time      0.0060
    --------------------------------------------
      LOOP:  cpu time     22.3000: real time     22.4914

 eigenvalue-minimisations  :  7928
 total energy-change (2. order) : 0.1618960E-04  (-0.2964251E-03)
 number of electron     479.9999997 magnetization       1.0000000
 augmentation part      -47.8752075 magnetization      -0.0550942

 Broyden mixing:
  rms(total) = 0.10128E-01    rms(broyden)= 0.10128E-01
  rms(prec ) = 0.11555E-01
[...]
   0.436E-01 0.347E+00 0.117E+02   -.874E-02 -.127E+00 -.117E+02   -.197E-01 -.844E-01 -.546E-01   -.428E-05 -.181E-04 -.863E-04
   0.339E-01 0.217E+00 -.117E+02   -.820E-02 -.143E+00 0.117E+02   -.361E-02 0.158E-01 -.406E-01   0.785E-05 0.658E-04 0.392E-04
   0.185E+00 -.101E+01 -.371E+02   0.219E+00 0.106E+01 0.371E+02   -.213E+00 0.808E-01 0.259E-01   0.117E-04 0.813E-04 0.137E-03
   0.717E+01 0.122E+02 -.481E+02   -.585E+01 -.106E+02 0.459E+02   -.236E+00 -.167E+01 0.218E+01   -.102E-03 0.190E-04 0.116E-03
   0.559E+01 0.250E+02 0.485E+02   -.563E+01 -.235E+02 -.467E+02   -.368E+00 -.218E+01 -.165E+01   0.929E-04 0.701E-04 -.282E-03
   0.569E+00 -.161E+01 0.371E+02   0.221E+00 0.171E+01 -.371E+02   -.259E+00 -.271E+00 -.161E+00   -.535E-04 0.395E-04 -.193E-03
   0.592E-01 0.233E+00 0.117E+02   -.820E-02 -.143E+00 -.117E+02   -.299E-01 0.129E-01 0.234E-01   -.578E-05 0.158E-04 -.823E-04
   0.772E-03 0.143E+00 -.119E+02   -.871E-02 -.162E+00 0.117E+02   0.230E-01 0.107E+00 0.218E+00   0.121E-04 -.534E-04 0.164E-04
   0.567E+00 -.161E+01 -.371E+02   0.221E+00 0.171E+01 0.371E+02   -.255E+00 -.257E+00 0.155E+00   -.479E-04 -.265E-04 0.213E-03
   0.425E+01 0.177E+02 -.593E+02   -.289E+01 -.164E+02 0.567E+02   -.142E+00 -.211E+01 0.353E+01   -.428E-04 0.114E-03 0.265E-03
   -.535E+01 0.138E+02 -.177E+02   0.431E+01 -.145E+02 0.178E+02   0.899E-01 0.345E+00 -.572E+00   0.441E-04 0.487E-04 -.384E-04
   0.256E+00 0.347E+00 0.437E+01   -.113E-01 -.326E+00 -.388E+01   0.443E-01 -.131E-01 -.110E+01   -.136E-04 -.609E-04 -.220E-04
   0.365E+00 -.146E+00 0.139E+02   0.124E-01 0.117E+00 -.136E+02   0.955E-01 0.578E-02 -.697E+00   -.561E-04 0.120E-03 0.138E-03
   -.181E+00 0.628E+00 -.382E+01   0.135E+00 -.683E+00 0.282E+01   -.443E-01 0.105E+00 -.133E+01   -.504E-05 0.129E-03 0.257E-04
   -.254E+00 -.357E+00 0.441E+01   0.104E-01 0.299E+00 -.392E+01   -.801E-01 0.278E-01 -.110E+01   0.307E-04 -.115E-03 0.435E-05
   0.170E+01 0.288E+01 0.116E+02   -.252E+00 -.280E+01 -.109E+02   -.730E+00 -.248E-02 -.622E+00   0.531E-04 -.252E-04 0.112E-03
   0.637E+01 0.240E+02 -.467E+02   -.563E+01 -.235E+02 0.467E+02   -.118E+00 -.124E+01 0.770E+00   -.102E-03 -.131E-03 0.161E-03
   -.281E+00 -.558E+00 0.290E+01   0.118E-01 0.326E+00 -.299E+01   0.269E-01 -.935E-01 -.746E+00   0.364E-05 0.152E-03 0.235E-04
   0.360E+00 0.141E+00 0.881E+01   -.993E-02 -.118E+00 -.791E+01   0.166E+00 -.289E-01 -.104E+01   -.141E-04 -.102E-03 0.850E-04
   0.244E-01 -.850E+00 -.311E+02   -.228E+00 0.737E+00 0.311E+02   -.234E-01 -.322E-01 -.369E+00   0.363E-04 -.114E-03 0.268E-04
   0.227E+00 0.221E+00 0.306E+01   -.108E-01 -.299E+00 -.295E+01   -.352E-01 0.313E-01 -.657E+00   -.188E-04 0.549E-04 -.226E-04
   -.125E+01 -.290E+01 0.117E+02   0.250E+00 0.280E+01 -.106E+02   0.728E+00 -.134E-01 -.613E+00   -.487E-05 0.149E-04 0.703E-04
   0.175E+01 0.288E+01 -.116E+02   -.252E+00 -.280E+01 0.109E+02   -.760E+00 0.748E-02 0.620E+00   0.736E-04 0.183E-04 -.204E-05
   -.312E+00 -.188E+00 -.315E+01   0.118E-01 0.326E+00 0.299E+01   0.239E-01 -.496E-01 0.718E+00   0.142E-04 -.862E-04 0.875E-04
   -.296E+01 -.171E+02 0.575E+02   0.288E+01 0.172E+02 -.568E+02   0.131E+00 0.112E+01 -.176E+01   -.255E-04 -.836E-04 -.294E-03
   0.349E+00 0.134E+00 -.880E+01   -.991E-02 -.118E+00 0.791E+01   0.163E+00 -.238E-02 0.103E+01   -.169E-04 0.139E-03 -.219E-04
   0.247E+00 0.204E+00 -.306E+01   -.108E-01 -.299E+00 0.295E+01   -.332E-01 0.568E-01 0.661E+00   -.438E-05 -.106E-03 0.685E-04
   0.599E+01 0.110E+02 0.466E+02   -.585E+01 -.106E+02 -.459E+02   -.157E+00 -.927E+00 -.113E+01   0.518E-04 -.842E-04 -.317E-03
   -.127E+01 -.291E+01 -.117E+02   0.250E+00 0.280E+01 0.106E+02   0.733E+00 0.701E-02 0.607E+00   0.153E-04 -.413E-04 -.553E-04
   0.252E+00 0.363E+00 -.434E+01   -.113E-01 -.326E+00 0.388E+01   0.513E-01 -.847E-02 0.107E+01   -.361E-05 0.147E-03 0.847E-04
   -.627E+01 -.110E+02 0.478E+02   0.561E+01 0.103E+02 -.470E+02   0.955E-01 0.933E+00 -.128E+01   0.450E-04 0.332E-04 -.182E-03
   0.371E+00 -.145E+00 -.139E+02   0.124E-01 0.117E+00 0.136E+02   0.879E-01 0.164E-01 0.683E+00   -.810E-04 -.127E-03 -.471E-04
   -.248E+00 -.189E-02 -.418E+01   0.104E-01 0.299E+00 0.392E+01   -.678E-01 0.833E-01 0.114E+01   -.773E-05 0.346E-04 0.837E-04
   -.638E+01 -.230E+02 0.473E+02   0.582E+01 0.230E+02 -.463E+02   0.137E+00 0.126E+01 -.744E+00   0.342E-04 0.989E-04 -.278E-03
   -.628E+01 -.110E+02 -.478E+02   0.561E+01 0.103E+02 0.470E+02   0.801E-01 0.956E+00 0.129E+01   -.121E-04 0.541E-04 0.260E-03
   -.220E+00 -.504E-02 0.420E+01   0.103E-01 0.299E+00 -.392E+01   -.813E-01 0.808E-01 -.118E+01   -.226E-04 -.139E-03 0.273E-04
   -.894E-02 0.612E+00 0.381E+02   -.181E+00 -.137E+01 -.377E+02   0.119E+00 0.602E-01 -.134E+00   -.279E-04 0.668E-04 -.241E-03
   -.298E+01 -.171E+02 -.575E+02   0.288E+01 0.172E+02 0.568E+02   0.128E+00 0.112E+01 0.171E+01   -.626E-04 0.307E-04 0.192E-03
   0.317E+00 0.183E+00 0.308E+01   -.108E-01 -.299E+00 -.295E+01   -.875E-01 0.445E-01 -.681E+00   0.364E-05 0.527E-04 -.257E-04
   -.124E+01 -.290E+01 0.117E+02   0.250E+00 0.280E+01 -.106E+02   0.738E+00 -.507E-02 -.660E+00   0.119E-04 0.484E-05 0.869E-04
   0.599E+01 0.110E+02 -.466E+02   -.585E+01 -.106E+02 0.459E+02   -.150E+00 -.938E+00 0.112E+01   0.610E-04 0.127E-04 0.175E-03
   0.282E+00 0.373E+00 0.435E+01   -.113E-01 -.326E+00 -.388E+01   0.294E-01 -.359E-01 -.107E+01   -.442E-06 -.703E-04 -.234E-04
   -.524E+00 -.995E-01 0.140E+02   0.124E-01 0.117E+00 -.136E+02   0.405E-02 -.215E-01 -.739E+00   0.580E-04 0.129E-03 0.101E-03
   -.638E+01 -.230E+02 -.473E+02   0.582E+01 0.230E+02 0.463E+02   0.121E+00 0.128E+01 0.738E+00   0.210E-04 -.986E-04 0.224E-03
   -.313E+00 -.185E+00 0.315E+01   0.118E-01 0.326E+00 -.299E+01   0.175E-01 -.595E-01 -.711E+00   0.561E-05 0.133E-03 0.492E-05
   -.263E+00 0.128E+00 0.881E+01   -.990E-02 -.118E+00 -.791E+01   -.211E+00 -.155E-01 -.105E+01   0.159E-04 -.116E-03 0.807E-04
   -.243E+00 0.143E+00 -.880E+01   -.992E-02 -.118E+00 0.791E+01   -.231E+00 -.200E-01 0.102E+01   0.151E-04 0.144E-03 -.248E-04
   0.294E+00 0.195E+00 -.306E+01   -.108E-01 -.299E+00 0.295E+01   -.790E-01 0.446E-01 0.660E+00   -.419E-05 -.108E-03 0.727E-04
   -.534E+01 0.138E+02 0.177E+02   0.431E+01 -.145E+02 -.178E+02   0.945E-01 0.350E+00 0.589E+00   0.206E-04 -.329E-04 0.452E-04
   -.516E+00 -.105E+00 -.140E+02   0.124E-01 0.117E+00 0.136E+02   -.144E-01 0.213E-02 0.714E+00   0.809E-04 -.122E-03 -.213E-04
   -.230E+00 -.345E+00 -.442E+01   0.104E-01 0.299E+00 0.392E+01   -.819E-01 0.316E-01 0.111E+01   0.221E-04 0.419E-04 0.894E-04
   0.639E+01 0.240E+02 0.467E+02   -.563E+01 -.235E+02 -.467E+02   -.142E+00 -.121E+01 -.768E+00   -.983E-04 0.403E-04 -.195E-03
   -.925E-02 0.605E+00 -.381E+02   -.180E+00 -.137E+01 0.377E+02   0.137E+00 0.767E-01 0.142E+00   -.247E-04 -.619E-04 0.226E-03
   -.273E+00 -.556E+00 -.289E+01   0.118E-01 0.326E+00 0.299E+01   0.237E-01 -.874E-01 0.724E+00   0.483E-06 -.669E-04 0.746E-04
   0.245E-01 -.844E+00 0.311E+02   -.228E+00 0.737E+00 -.311E+02   -.636E-02 -.265E-01 0.390E+00   0.370E-04 0.129E-03 0.194E-04
   -.123E+01 -.288E+01 -.117E+02   0.250E+00 0.280E+01 0.106E+02   0.720E+00 -.598E-02 0.624E+00   -.224E-05 -.390E-04 -.561E-04
   0.293E+00 0.359E+00 -.436E+01   -.113E-01 -.326E+00 0.388E+01   0.266E-01 -.197E-01 0.108E+01   -.523E-05 0.134E-03 0.895E-04
   -.163E+00 0.654E+00 0.382E+01   0.135E+00 -.683E+00 -.282E+01   -.386E-01 0.984E-01 0.135E+01   0.122E-04 -.127E-03 0.572E-04
 -----------------------------------------------------------------------------------------------
   0.279E+01 0.307E+01 -.551E-01   0.386E-13 0.733E-13 -.322E-12   -.303E+01 -.293E+01 -.976E-01   -.295E-05 0.417E-04 -.209E-03
 
 
 POSITION                                       TOTAL-FORCE (eV/Angst)
 -----------------------------------------------------------------------------------
      7.51559     16.05965      0.00000         0.218366      0.542979     -0.176791
      4.61729      3.19890     17.42248        -0.264878      0.139758      0.287975
      3.67530     10.62865      3.84030        -0.013336     -0.133105     -0.047204
      1.75515      7.91315      5.76045        -0.005363     -0.087442      0.051570
      6.53744     11.34540     13.17913        -0.288999      0.142020     -0.291637
      0.77700     15.41865     11.76468        -0.029755      0.048192     -1.816248
      7.51559      5.19765      0.00000        -1.182348      0.909155     -0.744134
      5.59545      2.48215      1.92015        -0.049744     -0.194869     -0.123678
      3.67530     16.05965      3.84030         0.010571     -0.091353     -0.050982
      1.75515     13.34415      5.76045        -0.019050     -0.091072      0.034410
      7.51559     10.62865      7.68060        -0.056634     -0.203915      0.134816
      4.61729      3.19890     11.76468         0.570674      0.212800     -0.398374
      7.51559     10.62866      0.00000        -0.803561     -0.019338     -0.506206
      5.59545      7.91315      1.92015        -0.211907     -0.121193     -0.107584
      3.67530      5.19765      3.84030        -0.007654     -0.087571     -0.025301
      1.75515      2.48215      5.76045        -0.012750     -0.124726      0.047012
      7.51559     16.05965      7.68060        -0.218694     -0.134124      0.109351
      0.77700      7.27215     11.76468         0.257790      0.117457     -0.584117
      2.69715     11.34540     18.83693         0.557687      0.191534      0.379789
      1.75515     13.34415      1.92015        -0.073493     -0.328744     -0.232276
      7.51559     10.62865      3.84030        -0.009693     -0.125596     -0.036800
      5.59545      7.91315      5.76045         0.005136     -0.093092      0.055196
      3.67530      5.19765      7.68060        -0.081384     -0.334725      0.243287
      1.75515      2.48215      9.60074        -0.798517     -0.022157      0.499312
      6.53744     15.41865     18.83693         0.260979      0.112674      0.593489
      1.75515      2.48215      1.92015        -0.043343     -0.546363      0.366093
      7.51559     16.05965      3.84030        -0.001729     -0.099516     -0.040006
      5.59545     13.34415      5.76045        -0.013019     -0.078947      0.027589
      3.67530     10.62865      7.68060        -0.047461     -0.553987     -0.365593
      1.75515      7.91315      9.60074         0.218233      0.551217      0.179917
      6.53744      7.27215     18.83693        -0.034785      0.032781      1.817701
      1.75515      7.91315      1.92015        -0.191136     -0.099139     -0.112551
      7.51559      5.19765      3.84030        -0.016273     -0.091854     -0.023062
      5.59545      2.48215      5.76045        -0.016222     -0.124559      0.052405
      3.67530     16.05965      7.68060        -0.190258     -0.110594      0.122099
      1.75515     13.34415      9.60074        -1.186030      0.893249      0.760047
      5.59545      3.83990      0.00000         1.088104     -0.126582      0.020649
      3.67530      1.12440      1.92015         0.054480      0.648012      0.258960
      1.75515     14.70190      3.84030         0.009826      0.090919     -0.063647
      7.51559     11.98640      5.76045         0.024008      0.125503      0.029696
      5.59545      9.27090      7.68060         0.056106      0.656953     -0.261876
      3.67530      6.55540      9.60074        -0.409808     -0.671955     -0.197336
      5.59545      9.27091      0.00000         1.221113     -0.915092     -0.855721
      3.67530      6.55540      1.92015         0.194428      0.487342      0.390469
      1.75515      3.83990      3.84030         0.026457      0.121449     -0.042576
      7.51559      1.12440      5.76045         0.029325      0.095189      0.024305
      5.59545     14.70190      7.68060         0.198779      0.488351     -0.400398
      4.61729     11.34540     11.76468        -0.084341     -0.283942      0.203013
      6.53744     11.34540     18.83693         0.797588      0.089923      0.768878
      3.67530     11.98640      1.92015        -0.442209      0.194121      0.361151
      1.75515      9.27090      3.84030         0.019947      0.086677     -0.024442
      7.51559      6.55540      5.76045         0.012261      0.439748     -0.424183
      5.59545      3.83990      7.68060        -0.435951      0.199002     -0.358817
      3.67530      1.12440      9.60074         0.107521     -0.872848      0.763064
      2.69715      3.19890     18.83693        -0.083653     -0.294027     -0.192903
      7.51559      1.12440      1.92015         0.078757      0.294259     -0.252879
      5.59544     14.70190      3.84030         0.006612      0.441807      0.423206
      3.67530     11.98640      5.76045         0.031404      0.124835      0.042338
      1.75515      9.27090      7.68060         0.082117      0.297095      0.250127
      0.77700      3.19890     11.76468         0.789312      0.085059     -0.758581
      1.75515      9.27091      0.00000         0.107526     -0.868231     -0.756726
      7.51559      6.55540      1.92015         0.195177      0.113294     -0.110544
      5.59544      3.83990      3.84030         0.017263      0.134810     -0.037452
      3.67530      1.12440      5.76045         0.024123      0.088705      0.025510
      1.75515     14.70190      7.68060         0.193269      0.129471      0.110454
      7.51559     11.98640      9.60074         1.090147     -0.130516     -0.026939
      1.75515     14.70191      0.00000        -0.410505     -0.668042      0.207699
      7.51559     11.98640      1.92015         0.533499     -0.169341     -0.132580
      5.59544      9.27090      3.84030         0.023042      0.101978     -0.033750
      3.67530      6.55540      5.76045         0.017143      0.086607      0.059297
      1.75515      3.83990      7.68060         0.534687     -0.161774      0.127324
      7.51559      1.12440      9.60074         1.226255     -0.900102      0.861675
      0.77700     11.34540     11.76468        -0.954759     -0.338514     -0.496409
      6.53744      5.23553     14.59358         0.290863      0.007045     -0.607412
      4.61729     15.41865     17.42248         0.474851     -0.024224     -0.351454
      4.61729     15.41865     11.76468        -0.088921      0.049066     -2.331204
      2.69715      9.30878     14.59358        -0.322110     -0.031830     -0.603868
      0.77700      3.19890     17.42248         0.721462      0.078299      0.117297
      7.51559      6.55540      9.60074         0.619773     -0.711112      0.745400
      6.53744     13.38203     14.59358        -0.240108     -0.326946     -0.835212
      4.61729      7.27215     17.42248         0.517677     -0.007114     -0.146853
      4.61729      7.27215     11.76468        -0.224837     -0.146065     -0.309001
      2.69715      1.16228     14.59358         0.183082     -0.047851     -0.551594
      0.77700     11.34540     17.42248        -0.268287     -0.116318      0.459034
      2.69715     11.34540     13.17913         0.736039      0.085421     -0.122394
      0.77700      5.23553     16.00803        -0.274173      0.087487      0.560963
      3.67530      5.19765      0.00000         0.056657      1.219651     -1.046751
      6.53744     15.41865     13.17913         0.504794      0.013070      0.136443
      4.61729      9.30878     16.00803         0.204683     -0.039032      0.552726
      1.75515      3.83990      0.00000        -0.019262     -0.545879     -0.426124
      2.69715      3.19890     13.17913        -0.285559     -0.110114     -0.464437
      0.77700     13.38203     16.00803         0.293635      0.027802      0.607327
      3.67530     10.62866      0.00000        -0.565344      0.233171     -0.524716
      6.53744      7.27215     13.17913         0.473065     -0.013097      0.334732
      4.61729      1.16228     16.00803        -0.303036      0.379199      0.883202
      3.67530     16.05965      0.00000        -0.414037      1.212479      0.272239
      5.59544      2.48215      9.60074        -0.594694      0.261532      0.540606
      6.53744      9.30878     14.59358        -0.289264      0.373405     -0.898671
      5.59545     13.34415      1.92015        -0.068245     -0.703241      0.318043
      5.59544     13.34415      9.60074         0.037748      1.255172      1.044280
      6.53744      1.16228     14.59358         0.220469     -0.072732     -0.552287
      4.61729     11.34540     17.42248        -0.254207     -0.113094      0.434582
      3.67530     11.98640      9.60074        -0.005675     -0.562111      0.430911
      2.69715      5.23553     14.59358         0.302453      0.010200     -0.598521
      0.77700     15.41865     17.42248        -0.505797     -0.005206     -0.375137
      5.59544      7.91315      9.60074        -0.427806      1.231409     -0.273853
      2.69715     13.38203     14.59358        -0.281806      0.080572     -0.554745
      0.77700      7.27215     17.42248        -0.481287     -0.006629     -0.153513
      2.69715     15.41865     13.17913        -0.481723      0.004226      0.131068
      0.77700      9.30878     16.00803         0.206253     -0.060354      0.553148
      6.53744      3.19890     18.83693        -0.938237     -0.331365      0.495995
      2.69715      7.27215     13.17913        -0.516209      0.012205      0.350293
      0.77700      1.16228     16.00803        -0.299394     -0.015284      0.608766
      5.59545     14.70191      0.00000         0.614472     -0.695982     -0.745863
      7.51559      5.19765      7.68060        -0.050417     -0.694492     -0.314009
      4.61729      5.23553     16.00803        -0.235589     -0.318640      0.826722
      2.69714     15.41865     18.83693        -0.207568     -0.134395      0.326241
      6.53744      3.19890     13.17913        -0.260084     -0.085423     -0.464407
      4.61729     13.38203     16.00803         0.310496      0.012929      0.597815
      2.69715      7.27215     18.83693        -0.065271      0.068213      2.344629
 -----------------------------------------------------------------------------------
    total drift:                               -0.243475      0.133577     -0.152911


--------------------------------------------------------------------------------------------------------



  FREE ENERGIE OF THE ION-ELECTRON SYSTEM (eV)
  ---------------------------------------------------
  free  energy   TOTEN  =      -574.89449098 eV

  energy  without entropy=     -574.89153983  energy(sigma->0) =     -574.89301541
 


--------------------------------------------------------------------------------------------------------


    POTLOK:  cpu time      1.1891: real time      1.1958


--------------------------------------------------------------------------------------------------------


     LOOP+:  cpu time    656.7430: real time    663.4507
    4ORBIT:  cpu time      0.0000: real time      0.0000

 total amount of memory used by VASP MPI-rank0   166801. kBytes
=======================================================================

   base      :      30000. kBytes
   nonlr-proj:       6520. kBytes
   fftplans  :      18524. kBytes
   grid      :      14584. kBytes
   one-center:        129. kBytes
   wavefun   :      97044. kBytes
 
  
  
 General timing and accounting informations for this job:
 ========================================================
  
                  Total CPU time used (sec):      712.673
                            User time (sec):      676.623
                          System time (sec):       36.049
                         Elapsed time (sec):      721.611
  
                   Maximum memory used (kb):      422176.
                   Average memory used (kb):          N/A
  
                          Minor page faults:       187952
                          Major page faults:          200
                 Voluntary context switches:         2190
