 168 168   0   0
  0.2680331E+02  0.1600268E-08  0.1600268E-08  0.2030401E-08  0.5000000E-15
  1.000000000000000E-004
  CAR 
 Si and Ge interface calculation         
      6.62738694     -9.48857602  301      3.63555449      1.00000000
     -9.489  0.0000E+00  0.0000E+00  0.0000E+00  0.0000E+00
     -9.435  0.0000E+00  0.0000E+00  0.0000E+00  0.0000E+00
     -9.381  0.0000E+00  0.0000E+00  0.0000E+00  0.0000E+00
     -9.327  0.0000E+00  0.0000E+00  0.0000E+00  0.0000E+00
     -9.274  0.0000E+00  0.0000E+00  0.0000E+00  0.0000E+00
     -9.220  0.0000E+00  0.0000E+00  0.0000E+00  0.0000E+00
     -9.166  0.0000E+00  0.0000E+00  0.0000E+00  0.0000E+00
     -9.113  0.0000E+00  0.0000E+00  0.0000E+00  0.0000E+00
     -9.059  0.0000E+00  0.0000E+00  0.0000E+00  0.0000E+00
     -9.005  0.0000E+00  0.0000E+00  0.0000E+00  0.0000E+00
     -8.951  0.0000E+00  0.0000E+00  0.0000E+00  0.0000E+00
     -8.898  0.0000E+00  0.0000E+00  0.0000E+00  0.0000E+00
     -8.844  0.0000E+00  0.0000E+00  0.0000E+00  0.0000E+00
     -8.790  0.5664E-05  0.1300E-06  0.3043E-06  0.6981E-08
     -8.736  0.9279E+01  0.9116E+01  0.4985E+00  0.4897E+00
     -8.683  0.2834E-01  0.1916E+00  0.5000E+00  0.5000E+00
     -8.629  0.2819E-07  0.2814E-09  0.5000E+00  0.5000E+00
     -8.575  0.5203E+02  0.4386E+02  0.3295E+01  0.2856E+01
     -8.522  0.3819E+01  0.1199E+02  0.3500E+01  0.3500E+01
     -8.468  0.0000E+00  0.0000E+00  0.3500E+01  0.3500E+01
     -8.414  0.0000E+00  0.0000E+00  0.3500E+01  0.3500E+01
     -8.360  0.1034E-01  0.4821E-03  0.3501E+01  0.3500E+01
     -8.307  0.9297E+01  0.9306E+01  0.4000E+01  0.4000E+01
     -8.253  0.2337E+02  0.1041E+02  0.5256E+01  0.4559E+01
     -8.199  0.3247E+02  0.4544E+02  0.7000E+01  0.7000E+01
     -8.146  0.5579E+02  0.5518E+02  0.9997E+01  0.9964E+01
     -8.092  0.2590E+02  0.2278E+02  0.1139E+02  0.1119E+02
     -8.038  0.3000E+02  0.3374E+02  0.1300E+02  0.1300E+02
     -7.984  0.0000E+00  0.0000E+00  0.1300E+02  0.1300E+02
     -7.931  0.0000E+00  0.0000E+00  0.1300E+02  0.1300E+02
     -7.877  0.3429E-07  0.2116E-09  0.1300E+02  0.1300E+02
     -7.823  0.5206E+02  0.4272E+02  0.1580E+02  0.1529E+02
     -7.770  0.3789E+01  0.1313E+02  0.1600E+02  0.1600E+02
     -7.716  0.1187E-02  0.1583E-03  0.1600E+02  0.1600E+02
     -7.662  0.2848E+02  0.2770E+02  0.1753E+02  0.1749E+02
     -7.608  0.8409E+02  0.7974E+02  0.2205E+02  0.2177E+02
     -7.555  0.5496E+02  0.6010E+02  0.2500E+02  0.2500E+02
     -7.501  0.8533E+01  0.7466E+01  0.2546E+02  0.2540E+02
     -7.447  0.7741E+00  0.1842E+01  0.2550E+02  0.2550E+02
     -7.394  0.1351E-07  0.6433E-09  0.2550E+02  0.2550E+02
     -7.340  0.4347E+02  0.3494E+02  0.2784E+02  0.2738E+02
     -7.286  0.6822E+02  0.7674E+02  0.3150E+02  0.3150E+02
     -7.232  0.2736E+00  0.7407E-01  0.3151E+02  0.3150E+02
     -7.179  0.6600E+02  0.5745E+02  0.3506E+02  0.3459E+02
     -7.125  0.4542E+02  0.5417E+02  0.3750E+02  0.3750E+02
     -7.071  0.0000E+00  0.0000E+00  0.3750E+02  0.3750E+02
     -7.017  0.2223E+00  0.2877E-01  0.3751E+02  0.3750E+02
     -6.964  0.5562E+02  0.5581E+02  0.4050E+02  0.4050E+02
     -6.910  0.8271E+02  0.7963E+02  0.4494E+02  0.4478E+02
     -6.856  0.3481E+02  0.2689E+02  0.4681E+02  0.4622E+02
     -6.803  0.8438E+02  0.9002E+02  0.5135E+02  0.5106E+02
     -6.749  0.3451E+02  0.3339E+02  0.5320E+02  0.5285E+02
     -6.695  0.6144E+02  0.6791E+02  0.5650E+02  0.5650E+02
     -6.641  0.8513E+01  0.6063E+01  0.5696E+02  0.5683E+02
     -6.588  0.1537E+02  0.1319E+02  0.5778E+02  0.5753E+02
     -6.534  0.3527E+02  0.3488E+02  0.5968E+02  0.5941E+02
     -6.480  0.4482E+02  0.4737E+02  0.6209E+02  0.6195E+02
     -6.427  0.1781E+02  0.1932E+02  0.6304E+02  0.6299E+02
     -6.373  0.9700E+02  0.8812E+02  0.6825E+02  0.6772E+02
     -6.319  0.1091E+03  0.1031E+03  0.7412E+02  0.7326E+02
     -6.265  0.4443E+02  0.6030E+02  0.7650E+02  0.7650E+02
     -6.212  0.2688E+02  0.1674E+02  0.7795E+02  0.7740E+02
     -6.158  0.3844E+02  0.4847E+02  0.8001E+02  0.8000E+02
     -6.104  0.4545E+01  0.4609E+01  0.8026E+02  0.8025E+02
     -6.051  0.7891E+02  0.7406E+02  0.8449E+02  0.8423E+02
     -5.997  0.5684E+01  0.1000E+02  0.8480E+02  0.8477E+02
     -5.943  0.1118E+03  0.9249E+02  0.9080E+02  0.8973E+02
     -5.889  0.1802E+02  0.3764E+02  0.9177E+02  0.9176E+02
     -5.836  0.3488E+02  0.3116E+02  0.9365E+02  0.9343E+02
     -5.782  0.8156E+02  0.7557E+02  0.9803E+02  0.9749E+02
     -5.728  0.5534E+02  0.6533E+02  0.1010E+03  0.1010E+03
     -5.674  0.2405E+02  0.1889E+02  0.1023E+03  0.1020E+03
     -5.621  0.3875E+01  0.9036E+01  0.1025E+03  0.1025E+03
     -5.567  0.1194E+02  0.4731E+01  0.1031E+03  0.1028E+03
     -5.513  0.7960E+02  0.7896E+02  0.1074E+03  0.1070E+03
     -5.460  0.7551E+02  0.7400E+02  0.1115E+03  0.1110E+03
     -5.406  0.6687E+02  0.7054E+02  0.1151E+03  0.1148E+03
     -5.352  0.2316E+02  0.2157E+02  0.1163E+03  0.1159E+03
     -5.298  0.8147E+02  0.7595E+02  0.1207E+03  0.1200E+03
     -5.245  0.5053E+02  0.5955E+02  0.1234E+03  0.1232E+03
     -5.191  0.2073E+02  0.2427E+02  0.1245E+03  0.1245E+03
     -5.137  0.5581E+02  0.5545E+02  0.1275E+03  0.1275E+03
     -5.084  0.5847E+02  0.5610E+02  0.1307E+03  0.1305E+03
     -5.030  0.3887E+02  0.3866E+02  0.1327E+03  0.1326E+03
     -4.976  0.8515E+02  0.7739E+02  0.1373E+03  0.1367E+03
     -4.922  0.5747E+02  0.6173E+02  0.1404E+03  0.1400E+03
     -4.869  0.6867E+02  0.6792E+02  0.1441E+03  0.1437E+03
     -4.815  0.7041E+02  0.6998E+02  0.1479E+03  0.1475E+03
     -4.761  0.8483E+02  0.9059E+02  0.1524E+03  0.1523E+03
     -4.708  0.4576E+02  0.4015E+02  0.1549E+03  0.1545E+03
     -4.654  0.2359E+02  0.2919E+02  0.1562E+03  0.1560E+03
     -4.600  0.3897E+02  0.4102E+02  0.1583E+03  0.1582E+03
     -4.546  0.4049E+02  0.3650E+02  0.1604E+03  0.1602E+03
     -4.493  0.2365E+02  0.2570E+02  0.1617E+03  0.1616E+03
     -4.439  0.2447E+02  0.2414E+02  0.1630E+03  0.1629E+03
     -4.385  0.6005E+02  0.5065E+02  0.1662E+03  0.1656E+03
     -4.331  0.8432E+02  0.9289E+02  0.1708E+03  0.1706E+03
     -4.278  0.3835E+02  0.3617E+02  0.1728E+03  0.1725E+03
     -4.224  0.4848E+02  0.5104E+02  0.1754E+03  0.1753E+03
     -4.170  0.2925E+02  0.3197E+02  0.1770E+03  0.1770E+03
     -4.117  0.3817E+02  0.2902E+02  0.1791E+03  0.1786E+03
     -4.063  0.6532E+02  0.6652E+02  0.1826E+03  0.1821E+03
     -4.009  0.8341E+01  0.1619E+02  0.1830E+03  0.1830E+03
     -3.955  0.1432E+02  0.1401E+02  0.1838E+03  0.1838E+03
     -3.902  0.2982E+02  0.2804E+02  0.1854E+03  0.1853E+03
     -3.848  0.6174E+02  0.5981E+02  0.1887E+03  0.1885E+03
     -3.794  0.5660E+02  0.5912E+02  0.1917E+03  0.1917E+03
     -3.741  0.5812E+02  0.5481E+02  0.1949E+03  0.1946E+03
     -3.687  0.5720E+02  0.5826E+02  0.1979E+03  0.1977E+03
     -3.633  0.7622E+02  0.7136E+02  0.2020E+03  0.2016E+03
     -3.579  0.4187E+01  0.1288E+02  0.2023E+03  0.2023E+03
     -3.526  0.6951E+02  0.5912E+02  0.2060E+03  0.2054E+03
     -3.472  0.5570E+02  0.6440E+02  0.2090E+03  0.2089E+03
     -3.418  0.5621E+02  0.5792E+02  0.2120E+03  0.2120E+03
     -3.365  0.1131E+02  0.7250E+01  0.2126E+03  0.2124E+03
     -3.311  0.4454E+02  0.4864E+02  0.2150E+03  0.2150E+03
     -3.257  0.2866E+02  0.2084E+02  0.2165E+03  0.2161E+03
     -3.203  0.8227E+02  0.8795E+02  0.2210E+03  0.2208E+03
     -3.150  0.1129E+03  0.1065E+03  0.2270E+03  0.2266E+03
     -3.096  0.2279E+02  0.3121E+02  0.2282E+03  0.2282E+03
     -3.042  0.5903E+02  0.4646E+02  0.2314E+03  0.2307E+03
     -2.988  0.6188E+02  0.7035E+02  0.2347E+03  0.2345E+03
     -2.935  0.7743E+02  0.7601E+02  0.2389E+03  0.2386E+03
     -2.881  0.8555E+02  0.9110E+02  0.2435E+03  0.2435E+03
     -2.827  0.2807E+02  0.2790E+02  0.2450E+03  0.2450E+03
     -2.774  0.5878E+02  0.4712E+02  0.2482E+03  0.2475E+03
     -2.720  0.8336E+02  0.8798E+02  0.2526E+03  0.2523E+03
     -2.666  0.3743E+02  0.3604E+02  0.2547E+03  0.2542E+03
     -2.612  0.2972E+02  0.3837E+02  0.2562E+03  0.2562E+03
     -2.559  0.3942E+00  0.9773E-01  0.2563E+03  0.2563E+03
     -2.505  0.8323E+02  0.8300E+02  0.2607E+03  0.2607E+03
     -2.451  0.3042E+02  0.2931E+02  0.2624E+03  0.2623E+03
     -2.398  0.7090E+02  0.6667E+02  0.2662E+03  0.2659E+03
     -2.344  0.7079E+02  0.6521E+02  0.2700E+03  0.2694E+03
     -2.290  0.9634E+02  0.1034E+03  0.2752E+03  0.2749E+03
     -2.236  0.3965E+01  0.6762E+01  0.2754E+03  0.2753E+03
     -2.183  0.5400E+02  0.5525E+02  0.2783E+03  0.2783E+03
     -2.129  0.2742E+02  0.2778E+02  0.2797E+03  0.2797E+03
     -2.075  0.1567E+02  0.1196E+02  0.2806E+03  0.2804E+03
     -2.022  0.2621E+02  0.2996E+02  0.2820E+03  0.2820E+03
     -1.968  0.1263E+02  0.6362E+01  0.2827E+03  0.2823E+03
     -1.914  0.4543E+02  0.4980E+02  0.2851E+03  0.2850E+03
     -1.860  0.5517E+02  0.4748E+02  0.2881E+03  0.2876E+03
     -1.807  0.4042E+02  0.4994E+02  0.2903E+03  0.2903E+03
     -1.753  0.5571E+02  0.5528E+02  0.2932E+03  0.2932E+03
     -1.699  0.4458E+01  0.2313E+01  0.2935E+03  0.2933E+03
     -1.645  0.9727E+02  0.8126E+02  0.2987E+03  0.2977E+03
     -1.592  0.5949E+02  0.7063E+02  0.3019E+03  0.3015E+03
     -1.538  0.5292E+02  0.6036E+02  0.3047E+03  0.3047E+03
     -1.484  0.4656E+01  0.4722E+01  0.3050E+03  0.3050E+03
     -1.431  0.2032E+02  0.1596E+02  0.3061E+03  0.3059E+03
     -1.377  0.2155E+02  0.2588E+02  0.3072E+03  0.3072E+03
     -1.323  0.6449E-02  0.3940E-01  0.3072E+03  0.3072E+03
     -1.269  0.2744E+01  0.3187E+00  0.3074E+03  0.3073E+03
     -1.216  0.2918E+02  0.2917E+02  0.3090E+03  0.3088E+03
     -1.162  0.2392E+02  0.2636E+02  0.3102E+03  0.3102E+03
     -1.108  0.2105E-09  0.7347E-12  0.3103E+03  0.3103E+03
     -1.055  0.2233E+02  0.1470E+02  0.3114E+03  0.3110E+03
     -1.001  0.5595E+01  0.1322E+02  0.3118E+03  0.3118E+03
     -0.947  0.0000E+00  0.0000E+00  0.3118E+03  0.3118E+03
     -0.893  0.9365E-02  0.1290E-02  0.3118E+03  0.3118E+03
     -0.840  0.2755E+02  0.2495E+02  0.3132E+03  0.3131E+03
     -0.786  0.4219E+02  0.4257E+02  0.3155E+03  0.3154E+03
     -0.732  0.2812E+02  0.2958E+02  0.3170E+03  0.3170E+03
     -0.679  0.4364E+02  0.3768E+02  0.3194E+03  0.3190E+03
     -0.625  0.5282E+02  0.5719E+02  0.3222E+03  0.3221E+03
     -0.571  0.2874E+02  0.2929E+02  0.3237E+03  0.3236E+03
     -0.517  0.3156E+00  0.2134E+01  0.3238E+03  0.3238E+03
     -0.464  0.5167E-15  0.0000E+00  0.3238E+03  0.3238E+03
     -0.410  0.1241E+01  0.5898E+00  0.3238E+03  0.3238E+03
     -0.356  0.2487E+02  0.1753E+02  0.3252E+03  0.3247E+03
     -0.302  0.3981E+02  0.4717E+02  0.3273E+03  0.3273E+03
     -0.249  0.1510E+03  0.1398E+03  0.3354E+03  0.3348E+03
     -0.195  0.9599E+02  0.1042E+03  0.3406E+03  0.3404E+03
     -0.141  0.5761E+02  0.4397E+02  0.3437E+03  0.3427E+03
     -0.088  0.8948E+02  0.9982E+02  0.3485E+03  0.3481E+03
     -0.034  0.8374E+02  0.8670E+02  0.3530E+03  0.3527E+03
      0.020  0.1273E+03  0.1221E+03  0.3598E+03  0.3593E+03
      0.074  0.2176E+02  0.3007E+02  0.3610E+03  0.3609E+03
      0.127  0.4548E+02  0.3737E+02  0.3634E+03  0.3629E+03
      0.181  0.5768E+02  0.5334E+02  0.3665E+03  0.3658E+03
      0.235  0.1642E+03  0.1574E+03  0.3753E+03  0.3742E+03
      0.288  0.8323E+02  0.9884E+02  0.3798E+03  0.3796E+03
      0.342  0.1277E+03  0.1255E+03  0.3867E+03  0.3863E+03
      0.396  0.7336E+02  0.7216E+02  0.3906E+03  0.3902E+03
      0.450  0.1145E+03  0.1103E+03  0.3968E+03  0.3961E+03
      0.503  0.8035E+02  0.8752E+02  0.4011E+03  0.4008E+03
      0.557  0.4626E+02  0.4482E+02  0.4036E+03  0.4032E+03
      0.611  0.7539E+02  0.7909E+02  0.4076E+03  0.4075E+03
      0.664  0.3976E+02  0.3886E+02  0.4097E+03  0.4095E+03
      0.718  0.4840E+02  0.4749E+02  0.4123E+03  0.4121E+03
      0.772  0.1338E+03  0.1284E+03  0.4195E+03  0.4190E+03
      0.826  0.1324E+03  0.1242E+03  0.4266E+03  0.4257E+03
      0.879  0.8764E+02  0.9871E+02  0.4314E+03  0.4310E+03
      0.933  0.1862E+03  0.1810E+03  0.4414E+03  0.4407E+03
      0.987  0.1209E+03  0.1222E+03  0.4478E+03  0.4473E+03
      1.041  0.1041E+03  0.1092E+03  0.4534E+03  0.4531E+03
      1.094  0.8238E+02  0.7999E+02  0.4579E+03  0.4574E+03
      1.148  0.1532E+03  0.1518E+03  0.4661E+03  0.4656E+03
      1.202  0.1075E+03  0.1038E+03  0.4719E+03  0.4712E+03
      1.255  0.8654E+02  0.9606E+02  0.4765E+03  0.4763E+03
      1.309  0.1168E+03  0.1147E+03  0.4828E+03  0.4825E+03
      1.363  0.1076E+03  0.1052E+03  0.4886E+03  0.4881E+03
      1.417  0.1136E+03  0.1176E+03  0.4947E+03  0.4944E+03
      1.470  0.7271E+02  0.6264E+02  0.4986E+03  0.4978E+03
      1.524  0.1936E+03  0.1907E+03  0.5090E+03  0.5081E+03
      1.578  0.1104E+03  0.1174E+03  0.5149E+03  0.5144E+03
      1.631  0.1344E+03  0.1347E+03  0.5221E+03  0.5216E+03
      1.685  0.5715E+02  0.6226E+02  0.5252E+03  0.5249E+03
      1.739  0.1668E+03  0.1626E+03  0.5342E+03  0.5337E+03
      1.793  0.1007E+03  0.1026E+03  0.5396E+03  0.5392E+03
      1.846  0.7944E+02  0.8193E+02  0.5438E+03  0.5436E+03
      1.900  0.7447E+02  0.7532E+02  0.5478E+03  0.5476E+03
      1.954  0.9121E+02  0.8942E+02  0.5527E+03  0.5524E+03
      2.007  0.9128E+02  0.8870E+02  0.5576E+03  0.5572E+03
      2.061  0.7534E+02  0.7094E+02  0.5617E+03  0.5610E+03
      2.115  0.1005E+03  0.1014E+03  0.5671E+03  0.5665E+03
      2.169  0.1273E+03  0.1355E+03  0.5739E+03  0.5737E+03
      2.222  0.1107E+03  0.1064E+03  0.5799E+03  0.5794E+03
      2.276  0.8184E+02  0.8313E+02  0.5843E+03  0.5839E+03
      2.330  0.7122E+02  0.7285E+02  0.5881E+03  0.5878E+03
      2.384  0.5166E+02  0.5004E+02  0.5909E+03  0.5905E+03
      2.437  0.1064E+03  0.1065E+03  0.5966E+03  0.5962E+03
      2.491  0.5636E+02  0.5618E+02  0.5996E+03  0.5993E+03
      2.545  0.7815E+02  0.7971E+02  0.6038E+03  0.6035E+03
      2.598  0.4730E+02  0.4231E+02  0.6063E+03  0.6058E+03
      2.652  0.9788E+02  0.9704E+02  0.6116E+03  0.6110E+03
      2.706  0.1210E+03  0.1235E+03  0.6181E+03  0.6177E+03
      2.760  0.6496E+02  0.6135E+02  0.6216E+03  0.6210E+03
      2.813  0.9767E+02  0.1022E+03  0.6268E+03  0.6264E+03
      2.867  0.6510E+02  0.6328E+02  0.6303E+03  0.6298E+03
      2.921  0.3812E+02  0.4457E+02  0.6324E+03  0.6322E+03
      2.974  0.1325E+02  0.1168E+02  0.6331E+03  0.6329E+03
      3.028  0.1024E+03  0.9780E+02  0.6386E+03  0.6381E+03
      3.082  0.1838E+02  0.2583E+02  0.6396E+03  0.6395E+03
      3.136  0.4306E+02  0.3488E+02  0.6419E+03  0.6414E+03
      3.189  0.1094E+03  0.1135E+03  0.6478E+03  0.6475E+03
      3.243  0.4497E+02  0.4446E+02  0.6502E+03  0.6499E+03
      3.297  0.5158E+02  0.4744E+02  0.6530E+03  0.6524E+03
      3.350  0.9632E+02  0.6994E+02  0.6581E+03  0.6562E+03
      3.404  0.2738E+02  0.5771E+02  0.6596E+03  0.6593E+03
      3.458  0.6065E+02  0.5646E+02  0.6629E+03  0.6623E+03
      3.512  0.3657E+02  0.3948E+02  0.6648E+03  0.6644E+03
      3.565  0.4831E+02  0.2326E+02  0.6674E+03  0.6657E+03
      3.619  0.7645E+02  0.8076E+02  0.6715E+03  0.6700E+03
      3.673  0.2241E+02  0.4589E+02  0.6727E+03  0.6725E+03
      3.727  0.3741E+02  0.4092E+02  0.6747E+03  0.6747E+03
      3.780  0.3885E+02  0.9349E+01  0.6768E+03  0.6752E+03
      3.834  0.7811E+01  0.3850E+02  0.6773E+03  0.6772E+03
      3.888  0.3129E+02  0.2272E+02  0.6789E+03  0.6785E+03
      3.941  0.3927E+01  0.1126E+02  0.6791E+03  0.6791E+03
      3.995  0.2910E+02  0.2157E+02  0.6807E+03  0.6802E+03
      4.049  0.3795E+02  0.4682E+02  0.6828E+03  0.6827E+03
      4.103  0.4053E+02  0.2854E+02  0.6849E+03  0.6843E+03
      4.156  0.6823E+02  0.6588E+02  0.6886E+03  0.6878E+03
      4.210  0.3028E+02  0.4316E+02  0.6902E+03  0.6901E+03
      4.264  0.3822E+02  0.3060E+02  0.6923E+03  0.6918E+03
      4.317  0.4890E+02  0.5456E+02  0.6949E+03  0.6947E+03
      4.371  0.3402E+02  0.3221E+02  0.6967E+03  0.6964E+03
      4.425  0.2835E+02  0.3359E+02  0.6983E+03  0.6982E+03
      4.479  0.2809E+02  0.2326E+02  0.6998E+03  0.6995E+03
      4.532  0.9630E+02  0.9124E+02  0.7049E+03  0.7044E+03
      4.586  0.3384E+02  0.4374E+02  0.7068E+03  0.7067E+03
      4.640  0.4129E+02  0.3277E+02  0.7090E+03  0.7085E+03
      4.693  0.6883E+02  0.6923E+02  0.7127E+03  0.7122E+03
      4.747  0.9508E+02  0.9151E+02  0.7178E+03  0.7171E+03
      4.801  0.7187E+02  0.7965E+02  0.7216E+03  0.7214E+03
      4.855  0.8974E+02  0.8769E+02  0.7265E+03  0.7261E+03
      4.908  0.3245E+02  0.3304E+02  0.7282E+03  0.7279E+03
      4.962  0.3749E+02  0.3324E+02  0.7302E+03  0.7297E+03
      5.016  0.7211E+02  0.7606E+02  0.7341E+03  0.7338E+03
      5.070  0.3937E+02  0.4229E+02  0.7362E+03  0.7361E+03
      5.123  0.9338E+02  0.8549E+02  0.7412E+03  0.7406E+03
      5.177  0.1563E+03  0.1535E+03  0.7496E+03  0.7489E+03
      5.231  0.3766E+02  0.4949E+02  0.7516E+03  0.7515E+03
      5.284  0.1362E+03  0.1359E+03  0.7590E+03  0.7588E+03
      5.338  0.6507E+02  0.6237E+02  0.7625E+03  0.7622E+03
      5.392  0.9377E+02  0.8725E+02  0.7675E+03  0.7669E+03
      5.446  0.3713E+02  0.4224E+02  0.7695E+03  0.7692E+03
      5.499  0.9313E+02  0.9656E+02  0.7745E+03  0.7743E+03
      5.553  0.1361E+03  0.1338E+03  0.7818E+03  0.7815E+03
      5.607  0.7969E+02  0.7845E+02  0.7861E+03  0.7857E+03
      5.660  0.8571E+02  0.8376E+02  0.7907E+03  0.7902E+03
      5.714  0.1028E+03  0.1042E+03  0.7962E+03  0.7958E+03
      5.768  0.9828E+02  0.9922E+02  0.8015E+03  0.8012E+03
      5.822  0.8350E+02  0.7631E+02  0.8060E+03  0.8053E+03
      5.875  0.3693E+02  0.3774E+02  0.8080E+03  0.8073E+03
      5.929  0.8543E+00  0.1302E+02  0.8080E+03  0.8080E+03
      5.983  0.0000E+00  0.0000E+00  0.8080E+03  0.8080E+03
      6.036  0.0000E+00  0.0000E+00  0.8080E+03  0.8080E+03
      6.090  0.0000E+00  0.0000E+00  0.8080E+03  0.8080E+03
      6.144  0.0000E+00  0.0000E+00  0.8080E+03  0.8080E+03
      6.198  0.0000E+00  0.0000E+00  0.8080E+03  0.8080E+03
      6.251  0.0000E+00  0.0000E+00  0.8080E+03  0.8080E+03
      6.305  0.0000E+00  0.0000E+00  0.8080E+03  0.8080E+03
      6.359  0.0000E+00  0.0000E+00  0.8080E+03  0.8080E+03
      6.413  0.0000E+00  0.0000E+00  0.8080E+03  0.8080E+03
      6.466  0.0000E+00  0.0000E+00  0.8080E+03  0.8080E+03
      6.520  0.0000E+00  0.0000E+00  0.8080E+03  0.8080E+03
      6.574  0.0000E+00  0.0000E+00  0.8080E+03  0.8080E+03
      6.627  0.0000E+00  0.0000E+00  0.8080E+03  0.8080E+03
