Si and Ge interface calculation         
           1
    16.293001    0.000000    0.000000
   -10.862000   12.144086    0.000000
     0.000000    0.000000    6.663594
   Si   Sn
    36    24
Direct configuration=     1
   0.97435850  0.98290563  0.00000000
   0.67435843  0.78290558  0.18224531
   0.37435842  0.58290553  0.36449063
   0.30769178  0.98290563  0.00000000
   0.00769173  0.78290558  0.18224531
   0.70769167  0.58290553  0.36449063
   0.64102507  0.98290563  0.00000000
   0.34102503  0.78290558  0.18224531
   0.04102499  0.58290553  0.36449063
   0.15769197  0.63290560  0.09112248
   0.85769194  0.43290553  0.27336779
   0.55769193  0.23290551  0.45561314
   0.49102521  0.63290560  0.09112248
   0.19102515  0.43290553  0.27336779
   0.89102519  0.23290551  0.45561314
   0.82435846  0.63290560  0.09112248
   0.52435839  0.43290553  0.27336779
   0.22435850  0.23290551  0.45561314
   0.14102516  0.48290560  0.00000000
   0.84102511  0.28290549  0.18224531
   0.54102510  0.08290543  0.36449063
   0.47435844  0.48290560  0.00000000
   0.17435838  0.28290549  0.18224531
   0.87435836  0.08290543  0.36449063
   0.80769169  0.48290560  0.00000000
   0.50769168  0.28290549  0.18224531
   0.20769163  0.08290543  0.36449063
   0.99102521  0.13290566  0.09112249
   0.69102514  0.93290561  0.27336779
   0.39102519  0.73290557  0.45561314
   0.32435846  0.13290566  0.09112249
   0.02435841  0.93290561  0.27336779
   0.72435844  0.73290557  0.45561314
   0.65769166  0.13290566  0.09112249
   0.35769162  0.93290561  0.27336779
   0.05769165  0.73290557  0.45561314
   0.01282076  0.98717922  0.45561314
   0.16282086  0.83717918  0.67336792
   0.31282097  0.68717915  0.89112276
   0.51282078  0.48717925  0.45561314
   0.66282082  0.33717918  0.67336792
   0.81282097  0.18717916  0.89112276
   0.96282065  0.28717923  0.56449038
   0.11282075  0.13717924  0.78224510
   0.26282084  0.98717916  0.99999994
   0.46282062  0.78717929  0.56449038
   0.61282075  0.63717925  0.78224510
   0.76282078  0.48717922  0.99999994
   0.51282078  0.98717922  0.45561314
   0.66282088  0.83717918  0.67336786
   0.81282097  0.68717915  0.89112264
   0.01282078  0.48717922  0.45561314
   0.16282086  0.33717921  0.67336792
   0.31282097  0.18717913  0.89112276
   0.46282065  0.28717923  0.56449038
   0.61282075  0.13717920  0.78224510
   0.76282084  0.98717916  0.99999982
   0.96282059  0.78717917  0.56449038
   0.11282075  0.63717914  0.78224510
   0.26282072  0.48717910  0.99999982
