Si and Ge interface calculation         
           1
    13.303180    0.000000    0.000000
     6.651589   14.873406    0.000000
     0.000000    0.000000    7.994752
   Si   C 
    36    84
Direct configuration=     1
   0.28324950  0.64162475  0.00000005
   0.81658280  0.40829128  0.15190083
   0.34991598  0.17495777  0.30380166
   0.61658275  0.30829138  0.00000006
   0.14991605  0.07495793  0.15190083
   0.68324923  0.84162444  0.30380163
   0.94991612  0.97495806  0.00000004
   0.48324949  0.74162459  0.15190083
   0.01658267  0.50829112  0.30380163
   0.79991627  0.77495801  0.07595029
   0.33324951  0.54162455  0.22785109
   0.86658275  0.30829108  0.37975195
   0.13324969  0.44162476  0.07595030
   0.66658294  0.20829128  0.22785109
   0.19991624  0.97495776  0.37975195
   0.46658289  0.10829154  0.07595030
   0.99991614  0.87495804  0.22785109
   0.53324938  0.64162457  0.37975195
   0.78324956  0.64162475  0.00000000
   0.31658283  0.40829128  0.15190081
   0.84991604  0.17495778  0.30380166
   0.11658280  0.30829140  0.00000006
   0.64991605  0.07495795  0.15190086
   0.18324930  0.84162450  0.30380166
   0.44991612  0.97495806  0.00000006
   0.98324943  0.74162459  0.15190086
   0.51658267  0.50829112  0.30380166
   0.29991618  0.77495813  0.07595030
   0.83324945  0.54162467  0.22785115
   0.36658269  0.30829120  0.37975192
   0.63324940  0.44162473  0.07595032
   0.16658264  0.20829126  0.22785115
   0.69991595  0.97495782  0.37975189
   0.96658272  0.10829155  0.07595030
   0.49991596  0.87495804  0.22785115
   0.03324926  0.64162463  0.37975195
   0.01430893  0.83328432  0.76469648
   0.35716599  0.86185598  0.56517530
   0.68573749  0.84757018  0.66493589
   0.30002311  0.69042724  0.76469648
   0.64288032  0.71899885  0.56517530
   0.97145176  0.70471305  0.66493589
   0.58573741  0.54757011  0.76469648
   0.92859453  0.57614171  0.56517530
   0.25716594  0.56185591  0.66493589
   0.87145179  0.40471294  0.76469648
   0.21430886  0.43328455  0.56517523
   0.54288036  0.41899878  0.66493589
   0.15716603  0.26185581  0.76469648
   0.50002313  0.29042742  0.56517523
   0.82859457  0.27614164  0.66493589
   0.44288030  0.11899869  0.76469648
   0.78573739  0.14757030  0.56517523
   0.11430887  0.13328452  0.66493589
   0.72859472  0.97614157  0.76469654
   0.07145173  0.00471318  0.56517523
   0.40002319  0.99042738  0.66493589
   0.46430877  0.93328434  0.81457668
   0.80716592  0.96185595  0.61505550
   0.13573733  0.94757009  0.71481615
   0.75002307  0.79042721  0.81457668
   0.09288017  0.81899881  0.61505550
   0.42145160  0.80471295  0.71481615
   0.03573728  0.64757007  0.81457681
   0.37859446  0.67614168  0.61505544
   0.70716596  0.66185588  0.71481609
   0.32145169  0.50471300  0.81457668
   0.66430885  0.53328455  0.61505544
   0.99288023  0.51899880  0.71481615
   0.60716611  0.36185589  0.81457681
   0.95002317  0.39042747  0.61505544
   0.27859452  0.37614170  0.71481609
   0.89288026  0.21899870  0.81457681
   0.23573741  0.24757029  0.61505550
   0.56430888  0.23328449  0.71481615
   0.17859462  0.07614157  0.81457668
   0.52145177  0.10471316  0.61505550
   0.85002315  0.09042737  0.71481609
   0.51430887  0.83328438  0.76469648
   0.85716599  0.86185587  0.56517523
   0.18573728  0.84757018  0.66493595
   0.80002332  0.69042724  0.76469654
   0.14288032  0.71899885  0.56517523
   0.47145176  0.70471305  0.66493589
   0.08573762  0.54757011  0.76469654
   0.42859459  0.57614171  0.56517523
   0.75716609  0.56185591  0.66493589
   0.37145177  0.40471300  0.76469654
   0.71430886  0.43328458  0.56517523
   0.04288021  0.41899881  0.66493589
   0.65716595  0.26185593  0.76469654
   0.00002313  0.29042745  0.56517523
   0.32859459  0.27614164  0.66493589
   0.94288039  0.11899872  0.76469654
   0.28573743  0.14757027  0.56517530
   0.61430895  0.13328448  0.66493589
   0.22859457  0.97614163  0.76469654
   0.57145166  0.00471318  0.56517530
   0.90002316  0.99042738  0.66493589
   0.96430886  0.93328446  0.81457668
   0.30716595  0.96185601  0.61505550
   0.63573736  0.94757015  0.71481609
   0.25002316  0.79042727  0.81457668
   0.59288031  0.81899887  0.61505550
   0.92145169  0.80471301  0.71481609
   0.53573746  0.64757007  0.81457668
   0.87859464  0.67614168  0.61505550
   0.20716611  0.66185582  0.71481609
   0.82145160  0.50471300  0.81457663
   0.16430882  0.53328449  0.61505544
   0.49288026  0.51899874  0.71481609
   0.10716609  0.36185584  0.81457668
   0.45002323  0.39042741  0.61505544
   0.77859467  0.37614164  0.71481609
   0.39288011  0.21899866  0.81457668
   0.73573732  0.24757026  0.61505544
   0.06430868  0.23328449  0.71481609
   0.67859453  0.07614164  0.81457668
   0.02145171  0.10471314  0.61505550
   0.35002306  0.09042737  0.71481615
