  96  96   0   0
  0.2276159E+02  0.1265123E-08  0.1265123E-08  0.1393391E-08  0.5000000E-15
  1.000000000000000E-004
  CAR 
 Si and Ge interface calculation         
      6.53052252    -10.93992696  301      3.57859290      1.00000000
    -10.940  0.0000E+00  0.0000E+00  0.0000E+00  0.0000E+00
    -10.882  0.0000E+00  0.0000E+00  0.0000E+00  0.0000E+00
    -10.823  0.0000E+00  0.0000E+00  0.0000E+00  0.0000E+00
    -10.765  0.0000E+00  0.0000E+00  0.0000E+00  0.0000E+00
    -10.707  0.0000E+00  0.0000E+00  0.0000E+00  0.0000E+00
    -10.649  0.0000E+00  0.0000E+00  0.0000E+00  0.0000E+00
    -10.591  0.0000E+00  0.0000E+00  0.0000E+00  0.0000E+00
    -10.532  0.0000E+00  0.0000E+00  0.0000E+00  0.0000E+00
    -10.474  0.0000E+00  0.0000E+00  0.0000E+00  0.0000E+00
    -10.416  0.0000E+00  0.0000E+00  0.0000E+00  0.0000E+00
    -10.358  0.0000E+00  0.0000E+00  0.0000E+00  0.0000E+00
    -10.299  0.0000E+00  0.0000E+00  0.0000E+00  0.0000E+00
    -10.241  0.0000E+00  0.0000E+00  0.0000E+00  0.0000E+00
    -10.183  0.1525E-06  0.1371E-10  0.8879E-08  0.7985E-12
    -10.125  0.7451E+01  0.3125E+01  0.4339E+00  0.1820E+00
    -10.066  0.2057E+02  0.1723E+02  0.1632E+01  0.1186E+01
    -10.008  0.6319E+01  0.1398E+02  0.2000E+01  0.2000E+01
     -9.950  0.2355E-03  0.1791E-06  0.2000E+01  0.2000E+01
     -9.892  0.2197E+02  0.1480E+02  0.3279E+01  0.2862E+01
     -9.833  0.1261E+02  0.1936E+02  0.4014E+01  0.3989E+01
     -9.775  0.2266E+02  0.2268E+02  0.5333E+01  0.5310E+01
     -9.717  0.0000E+00  0.4012E+00  0.5333E+01  0.5333E+01
     -9.659  0.2146E+01  0.7515E-01  0.5458E+01  0.5338E+01
     -9.601  0.4365E+02  0.4566E+02  0.8000E+01  0.7997E+01
     -9.542  0.0000E+00  0.5429E-01  0.8000E+01  0.8000E+01
     -9.484  0.0000E+00  0.0000E+00  0.8000E+01  0.8000E+01
     -9.426  0.8371E-12  0.0000E+00  0.8000E+01  0.8000E+01
     -9.368  0.7244E+01  0.1241E+01  0.8422E+01  0.8072E+01
     -9.309  0.1736E+02  0.2180E+02  0.9433E+01  0.9342E+01
     -9.251  0.2119E+02  0.2275E+02  0.1067E+02  0.1067E+02
     -9.193  0.0000E+00  0.0000E+00  0.1067E+02  0.1067E+02
     -9.135  0.0000E+00  0.0000E+00  0.1067E+02  0.1067E+02
     -9.076  0.0000E+00  0.0000E+00  0.1067E+02  0.1067E+02
     -9.018  0.3466E+00  0.2849E-02  0.1069E+02  0.1067E+02
     -8.960  0.2272E+02  0.2251E+02  0.1201E+02  0.1198E+02
     -8.902  0.2272E+02  0.2327E+02  0.1333E+02  0.1333E+02
     -8.843  0.0000E+00  0.0000E+00  0.1333E+02  0.1333E+02
     -8.785  0.1601E-01  0.1048E-03  0.1333E+02  0.1333E+02
     -8.727  0.1143E+02  0.1145E+02  0.1400E+02  0.1400E+02
     -8.669  0.6567E-10  0.2542E-14  0.1400E+02  0.1400E+02
     -8.611  0.4981E+01  0.2596E+01  0.1429E+02  0.1415E+02
     -8.552  0.2094E+02  0.1277E+02  0.1551E+02  0.1489E+02
     -8.494  0.1861E+02  0.2854E+02  0.1659E+02  0.1656E+02
     -8.436  0.1271E+02  0.1333E+02  0.1733E+02  0.1733E+02
     -8.378  0.1138E+02  0.1065E+02  0.1800E+02  0.1795E+02
     -8.319  0.1026E+02  0.4330E+01  0.1859E+02  0.1821E+02
     -8.261  0.1462E+02  0.2124E+02  0.1945E+02  0.1944E+02
     -8.203  0.2521E+02  0.1953E+02  0.2091E+02  0.2058E+02
     -8.145  0.1497E+02  0.2057E+02  0.2178E+02  0.2178E+02
     -8.086  0.3989E+02  0.3890E+02  0.2411E+02  0.2404E+02
     -8.028  0.2407E+02  0.2402E+02  0.2551E+02  0.2544E+02
     -7.970  0.1609E+02  0.1721E+02  0.2645E+02  0.2644E+02
     -7.912  0.1765E+02  0.9715E+01  0.2747E+02  0.2701E+02
     -7.853  0.1663E+02  0.2143E+02  0.2844E+02  0.2826E+02
     -7.795  0.2153E+02  0.2009E+02  0.2970E+02  0.2943E+02
     -7.737  0.3254E+02  0.3358E+02  0.3159E+02  0.3138E+02
     -7.679  0.4854E+02  0.4437E+02  0.3442E+02  0.3397E+02
     -7.621  0.2633E+02  0.2863E+02  0.3595E+02  0.3563E+02
     -7.562  0.2451E+02  0.2914E+02  0.3738E+02  0.3733E+02
     -7.504  0.1087E+02  0.1132E+02  0.3801E+02  0.3799E+02
     -7.446  0.8491E+01  0.7916E+01  0.3851E+02  0.3845E+02
     -7.388  0.1982E+02  0.1850E+02  0.3966E+02  0.3953E+02
     -7.329  0.2488E+02  0.2123E+02  0.4111E+02  0.4077E+02
     -7.271  0.5769E+02  0.5287E+02  0.4447E+02  0.4384E+02
     -7.213  0.1740E+02  0.2547E+02  0.4548E+02  0.4533E+02
     -7.155  0.1684E+02  0.1561E+02  0.4646E+02  0.4624E+02
     -7.096  0.3090E+02  0.3221E+02  0.4826E+02  0.4811E+02
     -7.038  0.3031E+02  0.2716E+02  0.5003E+02  0.4969E+02
     -6.980  0.2060E+02  0.2614E+02  0.5123E+02  0.5122E+02
     -6.922  0.1107E+02  0.9525E+01  0.5187E+02  0.5177E+02
     -6.863  0.3424E+02  0.3304E+02  0.5387E+02  0.5370E+02
     -6.805  0.2640E+02  0.2518E+02  0.5540E+02  0.5516E+02
     -6.747  0.4484E+02  0.4475E+02  0.5802E+02  0.5777E+02
     -6.689  0.1724E+02  0.1687E+02  0.5902E+02  0.5875E+02
     -6.631  0.2082E+02  0.2043E+02  0.6023E+02  0.5994E+02
     -6.572  0.2955E+02  0.3194E+02  0.6195E+02  0.6180E+02
     -6.514  0.1740E+02  0.1678E+02  0.6297E+02  0.6278E+02
     -6.456  0.2856E+02  0.2487E+02  0.6463E+02  0.6423E+02
     -6.398  0.5029E+02  0.5078E+02  0.6756E+02  0.6718E+02
     -6.339  0.4559E+02  0.4518E+02  0.7021E+02  0.6982E+02
     -6.281  0.1696E+02  0.1996E+02  0.7120E+02  0.7098E+02
     -6.223  0.3229E+02  0.3038E+02  0.7308E+02  0.7275E+02
     -6.165  0.2773E+02  0.3233E+02  0.7470E+02  0.7463E+02
     -6.106  0.2638E+02  0.2180E+02  0.7623E+02  0.7590E+02
     -6.048  0.3076E+02  0.3406E+02  0.7802E+02  0.7788E+02
     -5.990  0.1683E+02  0.1728E+02  0.7900E+02  0.7889E+02
     -5.932  0.2279E+02  0.2178E+02  0.8033E+02  0.8016E+02
     -5.873  0.2346E+02  0.2229E+02  0.8170E+02  0.8146E+02
     -5.815  0.2506E+02  0.2291E+02  0.8316E+02  0.8279E+02
     -5.757  0.1037E+02  0.1488E+02  0.8376E+02  0.8366E+02
     -5.699  0.3110E+02  0.2880E+02  0.8557E+02  0.8533E+02
     -5.641  0.2320E+02  0.2503E+02  0.8692E+02  0.8679E+02
     -5.582  0.1172E+02  0.1069E+02  0.8761E+02  0.8741E+02
     -5.524  0.3376E+02  0.3295E+02  0.8957E+02  0.8933E+02
     -5.466  0.3237E+02  0.2843E+02  0.9146E+02  0.9099E+02
     -5.408  0.3905E+02  0.4213E+02  0.9373E+02  0.9344E+02
     -5.349  0.2648E+02  0.2876E+02  0.9527E+02  0.9512E+02
     -5.291  0.1856E+02  0.1882E+02  0.9635E+02  0.9621E+02
     -5.233  0.2689E+02  0.2805E+02  0.9792E+02  0.9785E+02
     -5.175  0.2973E+02  0.2607E+02  0.9965E+02  0.9937E+02
     -5.116  0.2102E+02  0.2268E+02  0.1009E+03  0.1007E+03
     -5.058  0.2548E+02  0.2262E+02  0.1024E+03  0.1020E+03
     -5.000  0.2600E+02  0.2935E+02  0.1039E+03  0.1037E+03
     -4.942  0.2431E+02  0.2148E+02  0.1053E+03  0.1050E+03
     -4.884  0.2568E+02  0.2502E+02  0.1068E+03  0.1064E+03
     -4.825  0.4231E+02  0.4147E+02  0.1092E+03  0.1088E+03
     -4.767  0.1805E+02  0.2277E+02  0.1103E+03  0.1102E+03
     -4.709  0.1730E+02  0.1628E+02  0.1113E+03  0.1111E+03
     -4.651  0.2873E+02  0.2904E+02  0.1130E+03  0.1128E+03
     -4.592  0.2555E+02  0.1847E+02  0.1145E+03  0.1139E+03
     -4.534  0.3097E+02  0.3534E+02  0.1163E+03  0.1159E+03
     -4.476  0.2012E+02  0.2530E+02  0.1174E+03  0.1174E+03
     -4.418  0.9328E+01  0.8623E+01  0.1180E+03  0.1179E+03
     -4.359  0.2121E+02  0.2049E+02  0.1192E+03  0.1191E+03
     -4.301  0.3969E+01  0.5851E+01  0.1195E+03  0.1194E+03
     -4.243  0.2394E+02  0.2129E+02  0.1208E+03  0.1207E+03
     -4.185  0.3249E+02  0.3015E+02  0.1227E+03  0.1224E+03
     -4.126  0.2741E+02  0.3059E+02  0.1243E+03  0.1242E+03
     -4.068  0.1141E+02  0.1337E+02  0.1250E+03  0.1250E+03
     -4.010  0.9021E+01  0.6533E+01  0.1255E+03  0.1254E+03
     -3.952  0.1613E+02  0.1557E+02  0.1265E+03  0.1263E+03
     -3.894  0.2682E+02  0.2498E+02  0.1280E+03  0.1277E+03
     -3.835  0.3924E+02  0.3552E+02  0.1303E+03  0.1298E+03
     -3.777  0.2268E+02  0.2791E+02  0.1316E+03  0.1314E+03
     -3.719  0.2099E+02  0.1778E+02  0.1329E+03  0.1325E+03
     -3.661  0.1775E+02  0.2268E+02  0.1339E+03  0.1338E+03
     -3.602  0.3321E+02  0.3291E+02  0.1358E+03  0.1357E+03
     -3.544  0.3370E+02  0.2724E+02  0.1378E+03  0.1373E+03
     -3.486  0.1639E+02  0.2205E+02  0.1387E+03  0.1386E+03
     -3.428  0.3110E+02  0.2890E+02  0.1406E+03  0.1403E+03
     -3.369  0.3641E+02  0.3967E+02  0.1427E+03  0.1426E+03
     -3.311  0.1563E+02  0.1645E+02  0.1436E+03  0.1435E+03
     -3.253  0.1899E+02  0.1591E+02  0.1447E+03  0.1445E+03
     -3.195  0.1514E+02  0.1497E+02  0.1456E+03  0.1453E+03
     -3.136  0.3640E+02  0.3327E+02  0.1477E+03  0.1473E+03
     -3.078  0.3381E+02  0.3874E+02  0.1497E+03  0.1495E+03
     -3.020  0.3020E+02  0.2847E+02  0.1514E+03  0.1512E+03
     -2.962  0.1922E+02  0.1882E+02  0.1525E+03  0.1523E+03
     -2.904  0.3688E+02  0.3686E+02  0.1547E+03  0.1544E+03
     -2.845  0.4361E+02  0.3785E+02  0.1572E+03  0.1566E+03
     -2.787  0.2487E+02  0.3135E+02  0.1587E+03  0.1585E+03
     -2.729  0.2633E+02  0.2371E+02  0.1602E+03  0.1598E+03
     -2.671  0.3279E+02  0.3328E+02  0.1621E+03  0.1618E+03
     -2.612  0.1368E+02  0.1524E+02  0.1629E+03  0.1627E+03
     -2.554  0.2243E+02  0.2434E+02  0.1642E+03  0.1641E+03
     -2.496  0.3118E+02  0.3001E+02  0.1660E+03  0.1658E+03
     -2.438  0.1699E+02  0.2014E+02  0.1670E+03  0.1670E+03
     -2.379  0.1957E+02  0.1771E+02  0.1682E+03  0.1680E+03
     -2.321  0.1982E+02  0.1721E+02  0.1693E+03  0.1690E+03
     -2.263  0.2734E+02  0.2843E+02  0.1709E+03  0.1707E+03
     -2.205  0.2064E+02  0.2143E+02  0.1721E+03  0.1719E+03
     -2.146  0.1552E+02  0.1797E+02  0.1730E+03  0.1730E+03
     -2.088  0.2306E+02  0.1810E+02  0.1744E+03  0.1740E+03
     -2.030  0.9802E+01  0.1457E+02  0.1749E+03  0.1749E+03
     -1.972  0.9350E+01  0.5791E+01  0.1755E+03  0.1752E+03
     -1.914  0.1560E+02  0.1862E+02  0.1764E+03  0.1763E+03
     -1.855  0.6798E+01  0.7784E+01  0.1768E+03  0.1768E+03
     -1.797  0.1269E+01  0.4979E+00  0.1769E+03  0.1768E+03
     -1.739  0.1410E+02  0.1353E+02  0.1777E+03  0.1776E+03
     -1.681  0.9101E+01  0.9371E+01  0.1782E+03  0.1781E+03
     -1.622  0.1585E+02  0.1528E+02  0.1791E+03  0.1790E+03
     -1.564  0.1764E+02  0.1699E+02  0.1802E+03  0.1800E+03
     -1.506  0.1069E+02  0.1237E+02  0.1808E+03  0.1807E+03
     -1.448  0.1083E+02  0.9392E+01  0.1814E+03  0.1813E+03
     -1.389  0.1104E+02  0.9244E+01  0.1820E+03  0.1818E+03
     -1.331  0.6751E+01  0.1022E+02  0.1824E+03  0.1824E+03
     -1.273  0.9180E+01  0.8288E+01  0.1830E+03  0.1829E+03
     -1.215  0.7558E+01  0.4730E+01  0.1834E+03  0.1832E+03
     -1.156  0.3293E+02  0.3524E+02  0.1853E+03  0.1852E+03
     -1.098  0.2586E+02  0.1853E+02  0.1868E+03  0.1863E+03
     -1.040  0.3771E+02  0.4217E+02  0.1890E+03  0.1887E+03
     -0.982  0.3121E+02  0.2889E+02  0.1909E+03  0.1904E+03
     -0.924  0.2759E+02  0.2756E+02  0.1925E+03  0.1920E+03
     -0.865  0.4356E+02  0.4439E+02  0.1950E+03  0.1946E+03
     -0.807  0.2007E+02  0.2433E+02  0.1962E+03  0.1960E+03
     -0.749  0.2962E+02  0.2781E+02  0.1979E+03  0.1977E+03
     -0.691  0.5484E+02  0.4928E+02  0.2011E+03  0.2005E+03
     -0.632  0.4846E+02  0.5498E+02  0.2039E+03  0.2037E+03
     -0.574  0.6001E+02  0.5230E+02  0.2074E+03  0.2068E+03
     -0.516  0.4252E+02  0.5143E+02  0.2099E+03  0.2098E+03
     -0.458  0.2971E+02  0.2778E+02  0.2116E+03  0.2114E+03
     -0.399  0.4004E+02  0.3542E+02  0.2139E+03  0.2134E+03
     -0.341  0.6319E+02  0.6080E+02  0.2176E+03  0.2170E+03
     -0.283  0.4753E+02  0.5324E+02  0.2204E+03  0.2201E+03
     -0.225  0.4956E+02  0.4364E+02  0.2233E+03  0.2226E+03
     -0.166  0.4414E+02  0.4800E+02  0.2258E+03  0.2254E+03
     -0.108  0.3450E+02  0.3096E+02  0.2279E+03  0.2272E+03
     -0.050  0.6392E+02  0.6459E+02  0.2316E+03  0.2310E+03
      0.008  0.4681E+02  0.5329E+02  0.2343E+03  0.2341E+03
      0.066  0.4314E+02  0.3885E+02  0.2368E+03  0.2364E+03
      0.125  0.3133E+02  0.3174E+02  0.2386E+03  0.2382E+03
      0.183  0.4664E+02  0.4914E+02  0.2414E+03  0.2411E+03
      0.241  0.6398E+02  0.6160E+02  0.2451E+03  0.2447E+03
      0.299  0.5146E+02  0.5003E+02  0.2481E+03  0.2476E+03
      0.358  0.3770E+02  0.4193E+02  0.2503E+03  0.2500E+03
      0.416  0.4340E+02  0.4458E+02  0.2528E+03  0.2526E+03
      0.474  0.3308E+02  0.3465E+02  0.2547E+03  0.2546E+03
      0.532  0.6350E+02  0.5639E+02  0.2584E+03  0.2579E+03
      0.591  0.5849E+02  0.5842E+02  0.2618E+03  0.2613E+03
      0.649  0.4415E+02  0.5013E+02  0.2644E+03  0.2642E+03
      0.707  0.6564E+02  0.5587E+02  0.2682E+03  0.2675E+03
      0.765  0.4322E+02  0.4894E+02  0.2707E+03  0.2703E+03
      0.824  0.3848E+02  0.3919E+02  0.2730E+03  0.2726E+03
      0.882  0.5737E+02  0.5505E+02  0.2763E+03  0.2758E+03
      0.940  0.5456E+02  0.5627E+02  0.2795E+03  0.2791E+03
      0.998  0.4580E+02  0.4786E+02  0.2822E+03  0.2819E+03
      1.056  0.5812E+02  0.5636E+02  0.2856E+03  0.2852E+03
      1.115  0.5053E+02  0.5100E+02  0.2885E+03  0.2881E+03
      1.173  0.7481E+02  0.7058E+02  0.2929E+03  0.2922E+03
      1.231  0.5562E+02  0.6247E+02  0.2961E+03  0.2959E+03
      1.289  0.2089E+02  0.1745E+02  0.2973E+03  0.2969E+03
      1.348  0.3386E+02  0.3671E+02  0.2993E+03  0.2990E+03
      1.406  0.4071E+02  0.3713E+02  0.3017E+03  0.3012E+03
      1.464  0.3936E+02  0.4163E+02  0.3039E+03  0.3036E+03
      1.522  0.4519E+02  0.4730E+02  0.3066E+03  0.3064E+03
      1.581  0.3551E+02  0.3268E+02  0.3086E+03  0.3083E+03
      1.639  0.5088E+02  0.4786E+02  0.3116E+03  0.3111E+03
      1.697  0.4316E+02  0.4810E+02  0.3141E+03  0.3139E+03
      1.755  0.4432E+02  0.3847E+02  0.3167E+03  0.3161E+03
      1.814  0.3130E+02  0.3454E+02  0.3185E+03  0.3181E+03
      1.872  0.4638E+02  0.4581E+02  0.3212E+03  0.3208E+03
      1.930  0.3678E+02  0.3959E+02  0.3234E+03  0.3231E+03
      1.988  0.3200E+02  0.3293E+02  0.3252E+03  0.3250E+03
      2.046  0.4358E+02  0.3639E+02  0.3278E+03  0.3271E+03
      2.105  0.5031E+02  0.5830E+02  0.3307E+03  0.3305E+03
      2.163  0.4173E+02  0.3645E+02  0.3331E+03  0.3327E+03
      2.221  0.2820E+02  0.2991E+02  0.3348E+03  0.3344E+03
      2.279  0.4091E+02  0.4201E+02  0.3372E+03  0.3368E+03
      2.338  0.3186E+02  0.2923E+02  0.3390E+03  0.3385E+03
      2.396  0.7121E+02  0.6506E+02  0.3432E+03  0.3423E+03
      2.454  0.4149E+02  0.4898E+02  0.3456E+03  0.3452E+03
      2.512  0.2553E+02  0.2657E+02  0.3471E+03  0.3467E+03
      2.571  0.2113E+02  0.2367E+02  0.3483E+03  0.3481E+03
      2.629  0.1150E+02  0.1122E+02  0.3490E+03  0.3488E+03
      2.687  0.3839E+02  0.3359E+02  0.3512E+03  0.3507E+03
      2.745  0.4338E+02  0.4425E+02  0.3537E+03  0.3533E+03
      2.803  0.2459E+02  0.2670E+02  0.3552E+03  0.3549E+03
      2.862  0.4524E+02  0.4220E+02  0.3578E+03  0.3573E+03
      2.920  0.4277E+02  0.4212E+02  0.3603E+03  0.3598E+03
      2.978  0.2905E+02  0.3085E+02  0.3620E+03  0.3616E+03
      3.036  0.4923E+02  0.4715E+02  0.3648E+03  0.3643E+03
      3.095  0.2288E+02  0.2776E+02  0.3662E+03  0.3659E+03
      3.153  0.3897E+02  0.4007E+02  0.3684E+03  0.3683E+03
      3.211  0.4530E+02  0.3510E+02  0.3711E+03  0.3703E+03
      3.269  0.3207E+02  0.3514E+02  0.3729E+03  0.3723E+03
      3.328  0.2436E+02  0.2536E+02  0.3744E+03  0.3738E+03
      3.386  0.3982E+02  0.4250E+02  0.3767E+03  0.3763E+03
      3.444  0.2842E+02  0.2406E+02  0.3783E+03  0.3777E+03
      3.502  0.4643E+02  0.4859E+02  0.3810E+03  0.3805E+03
      3.561  0.3077E+02  0.2725E+02  0.3828E+03  0.3821E+03
      3.619  0.5023E+02  0.4976E+02  0.3858E+03  0.3850E+03
      3.677  0.2083E+02  0.2807E+02  0.3870E+03  0.3866E+03
      3.735  0.4229E+02  0.3420E+02  0.3894E+03  0.3886E+03
      3.793  0.2309E+02  0.2726E+02  0.3908E+03  0.3902E+03
      3.852  0.3689E+02  0.3541E+02  0.3929E+03  0.3923E+03
      3.910  0.3323E+02  0.4209E+02  0.3949E+03  0.3947E+03
      3.968  0.1485E+02  0.1376E+02  0.3957E+03  0.3955E+03
      4.026  0.1629E+02  0.1600E+02  0.3967E+03  0.3965E+03
      4.085  0.5184E+02  0.3773E+02  0.3997E+03  0.3987E+03
      4.143  0.4399E+02  0.5448E+02  0.4023E+03  0.4018E+03
      4.201  0.2430E+02  0.2242E+02  0.4037E+03  0.4031E+03
      4.259  0.3606E+02  0.3859E+02  0.4058E+03  0.4054E+03
      4.318  0.4055E+02  0.3252E+02  0.4081E+03  0.4073E+03
      4.376  0.4890E+02  0.5064E+02  0.4110E+03  0.4102E+03
      4.434  0.3956E+02  0.4214E+02  0.4133E+03  0.4127E+03
      4.492  0.3924E+02  0.4025E+02  0.4156E+03  0.4150E+03
      4.551  0.2244E+02  0.2808E+02  0.4169E+03  0.4167E+03
      4.609  0.3932E+02  0.3502E+02  0.4192E+03  0.4187E+03
      4.667  0.2833E+02  0.2795E+02  0.4208E+03  0.4203E+03
      4.725  0.3257E+02  0.3416E+02  0.4227E+03  0.4223E+03
      4.783  0.4672E+02  0.4664E+02  0.4254E+03  0.4250E+03
      4.842  0.5117E+02  0.5234E+02  0.4284E+03  0.4281E+03
      4.900  0.2971E+02  0.2874E+02  0.4301E+03  0.4298E+03
      4.958  0.2492E+02  0.2374E+02  0.4316E+03  0.4312E+03
      5.016  0.4654E+02  0.4691E+02  0.4343E+03  0.4339E+03
      5.075  0.4353E+02  0.4217E+02  0.4368E+03  0.4363E+03
      5.133  0.4530E+02  0.4167E+02  0.4395E+03  0.4388E+03
      5.191  0.5293E+02  0.6187E+02  0.4426E+03  0.4424E+03
      5.249  0.3171E+02  0.2637E+02  0.4444E+03  0.4439E+03
      5.308  0.3870E+02  0.4058E+02  0.4467E+03  0.4463E+03
      5.366  0.4144E+02  0.4217E+02  0.4491E+03  0.4487E+03
      5.424  0.4394E+02  0.4264E+02  0.4516E+03  0.4512E+03
      5.482  0.4620E+02  0.4781E+02  0.4543E+03  0.4540E+03
      5.541  0.5816E+02  0.5717E+02  0.4577E+03  0.4573E+03
      5.599  0.4198E+02  0.4034E+02  0.4602E+03  0.4597E+03
      5.657  0.4092E+02  0.3811E+02  0.4625E+03  0.4619E+03
      5.715  0.1811E+02  0.2862E+02  0.4636E+03  0.4636E+03
      5.773  0.6905E+01  0.7638E+01  0.4640E+03  0.4640E+03
      5.832  0.0000E+00  0.0000E+00  0.4640E+03  0.4640E+03
      5.890  0.0000E+00  0.0000E+00  0.4640E+03  0.4640E+03
      5.948  0.0000E+00  0.0000E+00  0.4640E+03  0.4640E+03
      6.006  0.0000E+00  0.0000E+00  0.4640E+03  0.4640E+03
      6.065  0.0000E+00  0.0000E+00  0.4640E+03  0.4640E+03
      6.123  0.0000E+00  0.0000E+00  0.4640E+03  0.4640E+03
      6.181  0.0000E+00  0.0000E+00  0.4640E+03  0.4640E+03
      6.239  0.0000E+00  0.0000E+00  0.4640E+03  0.4640E+03
      6.298  0.0000E+00  0.0000E+00  0.4640E+03  0.4640E+03
      6.356  0.0000E+00  0.0000E+00  0.4640E+03  0.4640E+03
      6.414  0.0000E+00  0.0000E+00  0.4640E+03  0.4640E+03
      6.472  0.0000E+00  0.0000E+00  0.4640E+03  0.4640E+03
      6.531  0.0000E+00  0.0000E+00  0.4640E+03  0.4640E+03
