 vasp.6.4.3 19Mar24 (build Oct 22 2024 11:23:12) complex                        
  
 executed on             LinuxIFC date 2025.06.04  07:35:09
 running   64 mpi-ranks, on    4 nodes
 distrk:  each k-point on   64 cores,    1 groups
 distr:  one band on NCORE=  16 cores,    4 groups


--------------------------------------------------------------------------------------------------------


 INCAR:
   SYSTEM = Si and Ge interface calculation
   ISTART = 0
   ICHARG = 2
   LWAVE = .FALSE.
   LREAL = AUTO
   ENCUT = 700
   ENAUG = 900
   ADDGRID = .TRUE.
   LMAXMIX = 6
   LASPH = .TRUE.
   LMIXTAU = .TRUE.
   NCORE = 16
   NELM = 100
   NBANDS = 231
   EDIFF = 1d-7
   AMIX = 0.6
   ISMEAR = 0
   SIGMA = 0.01
   NELECT = 384
   ISPIN = 2
   NUPDOWN = 1
   LVTOT = .FALSE.
   LVHAR = .TRUE.

 POTCAR:    PAW_PBE Ge 05Jan2001                  
 -----------------------------------------------------------------------------
|                                                                             |
|           W    W    AA    RRRRR   N    N  II  N    N   GGGG   !!!           |
|           W    W   A  A   R    R  NN   N  II  NN   N  G    G  !!!           |
|           W    W  A    A  R    R  N N  N  II  N N  N  G       !!!           |
|           W WW W  AAAAAA  RRRRR   N  N N  II  N  N N  G  GGG   !            |
|           WW  WW  A    A  R   R   N   NN  II  N   NN  G    G                |
|           W    W  A    A  R    R  N    N  II  N    N   GGGG   !!!           |
|                                                                             |
|     You use a magnetic or noncollinear calculation, but did not specify     |
|     the initial magnetic moment with the MAGMOM tag. Note that a            |
|     default of 0.01 will be used for all atoms. This ferromagnetic          |
|     setup may break the symmetry of the crystal, in particular it may       |
|     rule out finding an antiferromagnetic solution. Thence, we              |
|     recommend setting the initial magnetic moment manually or verifying     |
|     carefully that this magnetic setup is desired.                          |
|                                                                             |
 -----------------------------------------------------------------------------

 POTCAR:    PAW_PBE Ge 05Jan2001                  
   VRHFIN =Ge: s2p2                                                                                 
   LEXCH  = PE                                                                                      
   EATOM  =   104.9960 eV,    7.7170 Ry                                                             
                                                                                                    
   TITEL  = PAW_PBE Ge 05Jan2001                                                                    
   LULTRA =        F    use ultrasoft PP ?                                                          
   IUNSCR =        1    unscreen: 0-lin 1-nonlin 2-no                                               
   RPACOR =    2.170    partial core radius                                                         
   POMASS =   72.610; ZVAL   =    4.000    mass and valenz                                          
   RCORE  =    2.300    outmost cutoff radius                                                       
   RWIGS  =    2.300; RWIGS  =    1.217    wigner-seitz radius (au A)                               
   ENMAX  =  173.807; ENMIN  =  130.355 eV                                                          
   ICORE  =        3    local potential                                                             
   LCOR   =        T    correct aug charges                                                         
   LPAW   =        T    paw PP                                                                      
   EAUG   =  385.843                                                                                
   DEXC   =    0.000                                                                                
   RMAX   =    2.342    core radius for proj-oper                                                   
   RAUG   =    1.300    factor for augmentation sphere                                              
   RDEP   =    2.318    radius for radial grids                                                     
   RDEPT  =    2.103    core radius for aug-charge                                                  
                                                                                                    
   Atomic configuration                                                                             
   10 entries                                                                                       
     n  l   j            E        occ.                                                              
     1  0  0.50    -10959.8463   2.0000                                                             
     2  0  0.50     -1371.6056   2.0000                                                             
     2  1  1.50     -1198.4791   6.0000                                                             
     3  0  0.50      -168.4733   2.0000                                                             
     3  1  1.50      -115.6019   6.0000                                                             
     3  2  2.50       -29.3106  10.0000                                                             
     4  0  0.50       -11.7309   2.0000                                                             
     4  1  0.50        -3.8952   2.0000                                                             
     4  2  1.50        -4.0817   0.0000                                                             
     4  3  2.50        -4.0817   0.0000                                                             
   Description                                                                                      
     l       E           TYP  RCUT    TYP  RCUT                                                     
     0    -11.7309493     23  2.300                                                                 
     0     -7.4578696     23  2.300                                                                 
     1     -3.8952261     23  2.300                                                                 
     1      6.1178114     23  2.300                                                                 
     2     -4.0817478     23  2.300                                                                 
     3     -1.3605826      7  2.300                                                                 
  local pseudopotential read in
  partial core-charges read in
  partial kinetic energy density read in
  atomic valenz-charges read in
  non local Contribution for L=           0  read in
    real space projection operators read in
  non local Contribution for L=           0  read in
    real space projection operators read in
  non local Contribution for L=           1  read in
    real space projection operators read in
  non local Contribution for L=           1  read in
    real space projection operators read in
  non local Contribution for L=           2  read in
    real space projection operators read in
    PAW grid and wavefunctions read in
 
   number of l-projection  operators is LMAX  =           5
   number of lm-projection operators is LMMAX =          13
 
 Optimization of the real space projectors (new method)

 maximal supplied QI-value         = 16.25
 optimisation between [QCUT,QGAM] = [ 13.49, 26.98] = [ 50.95,203.80] Ry 
 Optimized for a Real-space Cutoff    1.25 Angstroem

   l    n(q)    QCUT    max X(q) W(low)/X(q) W(high)/X(q)  e(spline) 
   0     10    13.489    65.336    0.91E-04    0.11E-03    0.34E-06
   0     10    13.489    52.220    0.89E-04    0.11E-03    0.34E-06
   1     10    13.489    36.409    0.22E-03    0.27E-03    0.14E-06
   1     10    13.489    21.334    0.21E-03    0.27E-03    0.14E-06
   2      9    13.489     4.673    0.11E-03    0.12E-03    0.19E-06
  PAW_PBE Ge 05Jan2001                  :
 energy of atom  1       EATOM= -104.9960
 kinetic energy error for atom=    0.0001 (will be added to EATOM!!)
 
 
 POSCAR: Ge+Ge
  positions in direct lattice
  No initial velocities read in


 exchange-correlation table for PE
   RHO(1)=    0.500       N(1)  =     2000
   RHO(2)=  100.500       N(2)  =     4000
 


--------------------------------------------------------------------------------------------------------


 ion  position               nearest neighbor table
   1  0.784  0.490  0.414-  23 2.45  37 2.45  75 2.48
   2  0.993  0.948  0.000-  49 2.14  38 2.45  21 2.45  39 2.45  79 2.74
   3  0.951  0.656  0.083-  22 2.45  39 2.45  40 2.45
   4  0.909  0.365  0.166-  20 2.45  41 2.45  23 2.45  40 2.45
   5  0.868  0.073  0.249-  21 2.45  41 2.45  24 2.45  42 2.45
   6  0.826  0.781  0.332-  22 2.45  19 2.45  42 2.45  37 2.45  56 2.48
   7  0.284  0.990  0.414-  17 2.45  43 2.45  81 2.48
   8  0.493  0.448  0.000-  55 2.14  45 2.45  15 2.45  44 2.45  73 2.74
   9  0.451  0.156  0.083-  45 2.45  16 2.45  46 2.45
  10  0.409  0.865  0.166-  14 2.45  47 2.45  17 2.45  46 2.45
  11  0.368  0.573  0.249-  15 2.45  47 2.45  18 2.45  48 2.45
  12  0.326  0.281  0.332-  16 2.45  43 2.45  48 2.45  13 2.45  50 2.48
  13  0.159  0.365  0.414-  25 2.45  12 2.45  30 2.45  87 2.48  74 2.53
  14  0.368  0.823  0.000-  67 2.14  10 2.45  26 2.45  79 2.67  91 2.74  84 2.82
  15  0.326  0.531  0.083-  11 2.45  27 2.45   8 2.45  26 2.45  55 2.82
  16  0.284  0.240  0.166-  12 2.45  28 2.45   9 2.45  27 2.45
  17  0.243  0.948  0.249-  28 2.45   7 2.45  10 2.45  29 2.45
  18  0.201  0.656  0.332-  11 2.45  29 2.45  30 2.45  62 2.48
  19  0.659  0.865  0.414-  31 2.45   6 2.45  36 2.45  93 2.48  80 2.53
  20  0.868  0.323  0.000-  61 2.14   4 2.45  32 2.45  73 2.67  85 2.74  78 2.82
  21  0.826  0.031  0.083-   5 2.45   2 2.45  32 2.45  33 2.45  49 2.82
  22  0.784  0.740  0.166-   6 2.45   3 2.45  34 2.45  33 2.45
  23  0.743  0.448  0.249-  35 2.45  34 2.45   1 2.45   4 2.45
  24  0.701  0.156  0.332-  36 2.45   5 2.45  35 2.45  68 2.48
  25  0.034  0.240  0.414-  41 2.45  13 2.45  51 2.48
  26  0.243  0.698  0.000-  79 2.14  14 2.45  39 2.45  15 2.45  55 2.74
  27  0.201  0.406  0.083-  15 2.45  40 2.45  16 2.45
  28  0.159  0.115  0.166-  17 2.45  38 2.45  16 2.45  41 2.45
  29  0.118  0.823  0.249-  42 2.45  39 2.45  17 2.45  18 2.45
  30  0.076  0.531  0.332-  40 2.45  37 2.45  13 2.45  18 2.45  74 2.48
  31  0.534  0.740  0.414-  19 2.45  47 2.45  57 2.48
  32  0.743  0.198  0.000-  73 2.14  21 2.45  20 2.45  45 2.45  49 2.74
  33  0.701  0.906  0.083-  46 2.45  21 2.45  22 2.45
  34  0.659  0.615  0.166-  23 2.45  44 2.45  22 2.45  47 2.45
  35  0.618  0.323  0.249-  23 2.45  24 2.45  45 2.45  48 2.45
  36  0.576  0.031  0.332-  46 2.45  24 2.45  19 2.45  43 2.45  80 2.48
  37  0.909  0.615  0.414-   1 2.45   6 2.45  30 2.45  63 2.48  56 2.53
  38  0.118  0.073  0.000-  85 2.14   2 2.45  28 2.45  49 2.67  67 2.74  54 2.82
  39  0.076  0.781  0.083-  29 2.45   3 2.45  26 2.45   2 2.45  79 2.82
  40  0.034  0.490  0.166-  30 2.45  27 2.45   4 2.45   3 2.45
  41  0.993  0.198  0.249-  25 2.45   5 2.45   4 2.45  28 2.45
  42  0.951  0.906  0.332-  29 2.45   5 2.45   6 2.45  92 2.48
  43  0.409  0.115  0.414-  12 2.45   7 2.45  36 2.45  69 2.48  50 2.53
  44  0.618  0.573  0.000-  91 2.14  34 2.45   8 2.45  55 2.67  61 2.74  60 2.82
  45  0.576  0.281  0.083-   8 2.45   9 2.45  35 2.45  32 2.45  73 2.82
  46  0.534  0.990  0.166-  36 2.45  33 2.45  10 2.45   9 2.45
  47  0.493  0.698  0.249-  31 2.45  11 2.45  10 2.45  34 2.45
  48  0.451  0.406  0.332-  12 2.45  11 2.45  35 2.45  86 2.48
  49  0.926  0.086  0.914-   2 2.14  71 2.45  85 2.45  38 2.67  32 2.74  21 2.82
  50  0.385  0.294  0.500-  69 2.45  86 2.45  87 2.45  12 2.48  43 2.53
  51  0.093  0.253  0.583-  88 2.45  87 2.45  70 2.45  25 2.48
  52  0.801  0.211  0.666-  89 2.45  71 2.45  68 2.45  88 2.45
  53  0.510  0.169  0.749-  89 2.45  90 2.45  69 2.45  72 2.45
  54  0.218  0.128  0.832-  67 2.45  90 2.45  70 2.45  85 2.45  38 2.82
  55  0.426  0.586  0.914-   8 2.14  65 2.45  91 2.45  44 2.67  26 2.74  15 2.82
  56  0.885  0.794  0.500-  93 2.45  63 2.45  92 2.45   6 2.48  37 2.53
  57  0.593  0.753  0.583-  93 2.45  94 2.45  64 2.45  31 2.48
  58  0.301  0.711  0.666-  94 2.45  95 2.45  62 2.45  65 2.45
  59  0.010  0.669  0.749-  66 2.45  96 2.45  95 2.45  63 2.45
  60  0.718  0.628  0.832-  64 2.45  61 2.45  91 2.45  96 2.45  44 2.82
  61  0.801  0.461  0.914-  20 2.14  60 2.45  73 2.45  78 2.45  44 2.74
  62  0.260  0.669  0.500-  58 2.45  74 2.45  18 2.48
  63  0.968  0.628  0.583-  74 2.45  75 2.45  56 2.45  59 2.45  37 2.48
  64  0.676  0.586  0.666-  60 2.45  75 2.45  76 2.45  57 2.45
  65  0.385  0.544  0.749-  55 2.45  76 2.45  58 2.45  77 2.45
  66  0.093  0.503  0.832-  77 2.45  59 2.45  78 2.45
  67  0.301  0.961  0.914-  14 2.14  79 2.45  54 2.45  84 2.45  38 2.74
  68  0.760  0.169  0.500-  80 2.45  52 2.45  24 2.48
  69  0.468  0.128  0.583-  50 2.45  81 2.45  80 2.45  53 2.45  43 2.48
  70  0.176  0.086  0.666-  82 2.45  54 2.45  81 2.45  51 2.45
  71  0.885  0.044  0.749-  49 2.45  52 2.45  82 2.45  83 2.45
  72  0.593  0.003  0.832-  84 2.45  83 2.45  53 2.45
  73  0.676  0.336  0.914-  32 2.14  61 2.45  89 2.45  20 2.67   8 2.74  45 2.82
  74  0.135  0.544  0.500-  63 2.45  87 2.45  62 2.45  30 2.48  13 2.53
  75  0.843  0.503  0.583-  63 2.45  64 2.45  88 2.45   1 2.48
  76  0.551  0.461  0.666-  65 2.45  89 2.45  64 2.45  86 2.45
  77  0.260  0.419  0.749-  87 2.45  66 2.45  90 2.45  65 2.45
  78  0.968  0.378  0.832-  88 2.45  85 2.45  61 2.45  66 2.45  20 2.82
  79  0.176  0.836  0.914-  26 2.14  67 2.45  95 2.45  14 2.67   2 2.74  39 2.82
  80  0.635  0.044  0.500-  68 2.45  69 2.45  93 2.45  36 2.48  19 2.53
  81  0.343  0.003  0.583-  69 2.45  70 2.45  94 2.45   7 2.48
  82  0.051  0.961  0.666-  95 2.45  70 2.45  71 2.45  92 2.45
  83  0.760  0.919  0.749-  72 2.45  71 2.45  96 2.45  93 2.45
  84  0.468  0.878  0.832-  72 2.45  94 2.45  67 2.45  91 2.45  14 2.82
  85  0.051  0.211  0.914-  38 2.14  49 2.45  78 2.45  54 2.45  20 2.74
  86  0.510  0.419  0.500-  50 2.45  76 2.45  48 2.48
  87  0.218  0.378  0.583-  77 2.45  50 2.45  74 2.45  51 2.45  13 2.48
  88  0.926  0.336  0.666-  78 2.45  51 2.45  52 2.45  75 2.45
  89  0.635  0.294  0.749-  76 2.45  52 2.45  53 2.45  73 2.45
  90  0.343  0.253  0.832-  54 2.45  53 2.45  77 2.45
  91  0.551  0.711  0.914-  44 2.14  60 2.45  84 2.45  55 2.45  14 2.74
  92  0.010  0.919  0.500-  56 2.45  82 2.45  42 2.48
  93  0.718  0.878  0.583-  57 2.45  56 2.45  83 2.45  80 2.45  19 2.48
  94  0.426  0.836  0.666-  84 2.45  58 2.45  57 2.45  81 2.45
  95  0.135  0.794  0.749-  79 2.45  82 2.45  58 2.45  59 2.45
  96  0.843  0.753  0.832-  83 2.45  59 2.45  60 2.45
 
  LATTYP: Found a base centered orthorhombic cell.
 ALAT       =    16.0026764918
 B/A-ratio  =     1.2247448613
 C/A-ratio  =     0.8707237428
  
  Lattice vectors:
  
 A1 = (  -2.5302453040, -12.3956203460,   0.0000000000)
 A2 = (  12.6512260440,   0.0000000000,   0.0000000000)
 A3 = (   0.0000000000,   0.0000000000,  13.9339103700)


Analysis of symmetry for initial positions (statically):
=====================================================================
 Subroutine PRICEL returns following result:
 
  LATTYP: Found a simple orthorhombic cell.
 ALAT       =     4.0006680508
 B/A-ratio  =     2.4494908887
 C/A-ratio  =     3.4828959047
  
  Lattice vectors:
  
 A1 = (   2.5302452963,  -3.0989036114,   0.0000000000)
 A2 = (   7.5907358967,   6.1978131232,   0.0000000000)
 A3 = (   0.0000000000,   0.0000000000,  13.9339103700)
 
   4 primitive cells build up your supercell.
 

 Routine SETGRP: Setting up the symmetry group for a 
 base centered orthorhombic supercell.


 Subroutine GETGRP returns: Found  2 space group operations
 (whereof  1 operations were pure point group operations)
 out of a pool of  8 trial point group operations.


The static configuration has the point symmetry C_1 .
 The point group associated with its full space group is S_2 .


Analysis of symmetry for dynamics (positions and initial velocities):
=====================================================================
 Subroutine PRICEL returns following result:
 
  LATTYP: Found a simple orthorhombic cell.
 ALAT       =     4.0006680508
 B/A-ratio  =     2.4494908887
 C/A-ratio  =     3.4828959047
  
  Lattice vectors:
  
 A1 = (   2.5302452963,  -3.0989036114,   0.0000000000)
 A2 = (   7.5907358967,   6.1978131232,   0.0000000000)
 A3 = (   0.0000000000,   0.0000000000,  13.9339103700)
 
   4 primitive cells build up your supercell.
 

 Routine SETGRP: Setting up the symmetry group for a 
 base centered orthorhombic supercell.


 Subroutine GETGRP returns: Found  2 space group operations
 (whereof  1 operations were pure point group operations)
 out of a pool of  8 trial point group operations.


The dynamic configuration has the point symmetry C_1 .
 The point group associated with its full space group is S_2 .


Analysis of structural, dynamic, and magnetic symmetry:
=====================================================================
 Subroutine PRICEL returns following result:
 
  LATTYP: Found a simple orthorhombic cell.
 ALAT       =     4.0006680508
 B/A-ratio  =     2.4494908887
 C/A-ratio  =     3.4828959047
  
  Lattice vectors:
  
 A1 = (   2.5302452963,  -3.0989036114,   0.0000000000)
 A2 = (   7.5907358967,   6.1978131232,   0.0000000000)
 A3 = (   0.0000000000,   0.0000000000,  13.9339103700)
 
   4 primitive cells build up your supercell.
 

 Routine SETGRP: Setting up the symmetry group for a 
 base centered orthorhombic supercell.


 Subroutine GETGRP returns: Found  2 space group operations
 (whereof  1 operations were pure point group operations)
 out of a pool of  8 trial point group operations.


The overall configuration has the point symmetry C_1 .
 The point group associated with its full space group is S_2 .


 Subroutine INISYM returns: Found  2 space group operations
 (whereof  1 operations are pure point group operations),
 and found     4 'primitive' translations


----------------------------------------------------------------------------------------

                                     Primitive cell                                     

  volume of cell :     546.2782

  direct lattice vectors                    reciprocal lattice vectors
     2.530245296 -3.098903611  0.000000000     0.158087530 -0.193616791  0.000000000
     7.590735897  6.197813123  0.000000000     0.079043690  0.064538930  0.000000000
     0.000000000  0.000000000 13.933910370     0.000000000  0.000000000  0.071767363

  length of vectors
     4.000668051  9.799599939 13.933910370     0.249958254  0.102044982  0.071767363

  position of ions in fractional coordinates (direct lattice)
     0.588916665  0.274054916  0.414418638
     0.088916620  0.940722633  0.000000021
     0.588916605  0.607388935  0.082883760
     0.088916653  0.274055505  0.165767506
     0.588916488  0.940722328  0.248651221
     0.088915699  0.607388837  0.331534892
     0.588916561  0.524054983  0.414418697
     0.088916486  0.190722805  0.000000012
     0.588916205  0.857389210  0.082883753
     0.088916787  0.524055453  0.165767506
     0.588916382  0.190722156  0.248651192
     0.088916309  0.857388785  0.331534952
     0.680926273  0.012150275  0.914418697
     0.180926556  0.678817738  0.500000000
     0.680926512  0.345484263  0.582883716
     0.180926199  0.012150893  0.665767550
     0.680925618  0.678817626  0.748651266
     0.180926258  0.345483779  0.831534982
     0.680926349  0.262150372  0.914418697
     0.180926094  0.928817924  0.500000000
     0.680926766  0.595484271  0.582883716
     0.180926333  0.262150961  0.665767550
     0.680926168  0.928817306  0.748651147
     0.180926274  0.595483906  0.831534982

  ion indices of the primitive-cell ions
   primitive index   ion index
                 1           1
                 2          32
                 3           3
                 4          34
                 5          35
                 6          30
                 7          37
                 8          44
                 9          45
                10          22
                11          23
                12          48
                13          73
                14          56
                15          75
                16          76
                17          59
                18          60
                19          61
                20          86
                21          63
                22          64
                23          89
                24          96

----------------------------------------------------------------------------------------

 
 
 KPOINTS: Automatic KPOINTS generated             

Automatic generation of k-mesh.
 Grid dimensions read from file:
 generate k-points for:    3    3    2

 Generating k-lattice:

  Cartesian coordinates                     Fractional coordinates (reciprocal lattice)
     0.026347907 -0.005378244  0.000000000     0.333333333 -0.000000000  0.000000000
     0.000000000  0.026891218  0.000000000     0.000000000  0.333333333  0.000000000
     0.000000000  0.000000000  0.035883681     0.000000000  0.000000000  0.500000000

  Length of vectors
     0.026891220  0.026891218  0.035883681

  Shift w.r.t. Gamma in fractional coordinates (k-lattice)
     0.000000000  0.000000000  0.000000000

 
 Subroutine IBZKPT returns following result:
 ===========================================
 
 Found     10 irreducible k-points:
 
 Following reciprocal coordinates:
            Coordinates               Weight
  0.000000  0.000000  0.000000      1.000000
  0.333333  0.000000  0.000000      2.000000
  0.000000 -0.333333  0.000000      2.000000
  0.333333  0.333333  0.000000      2.000000
 -0.333333  0.333333  0.000000      2.000000
  0.000000  0.000000  0.500000      1.000000
  0.333333  0.000000  0.500000      2.000000
  0.000000 -0.333333  0.500000      2.000000
  0.333333  0.333333  0.500000      2.000000
 -0.333333  0.333333  0.500000      2.000000
 
 Following cartesian coordinates:
            Coordinates               Weight
  0.000000  0.000000  0.000000      1.000000
  0.026348 -0.005378  0.000000      2.000000
  0.000000 -0.026891  0.000000      2.000000
  0.026348  0.021513  0.000000      2.000000
 -0.026348  0.032269  0.000000      2.000000
  0.000000  0.000000  0.035884      1.000000
  0.026348 -0.005378  0.035884      2.000000
  0.000000 -0.026891  0.035884      2.000000
  0.026348  0.021513  0.035884      2.000000
 -0.026348  0.032269  0.035884      2.000000
 
 -----------------------------------------------------------------------------
|                                                                             |
|           W    W    AA    RRRRR   N    N  II  N    N   GGGG   !!!           |
|           W    W   A  A   R    R  NN   N  II  NN   N  G    G  !!!           |
|           W    W  A    A  R    R  N N  N  II  N N  N  G       !!!           |
|           W WW W  AAAAAA  RRRRR   N  N N  II  N  N N  G  GGG   !            |
|           WW  WW  A    A  R   R   N   NN  II  N   NN  G    G                |
|           W    W  A    A  R    R  N    N  II  N    N   GGGG   !!!           |
|                                                                             |
|     The number of bands has been changed from the values supplied in        |
|     the INCAR file. This is a result of running the parallel version.       |
|     The orbitals not found in the WAVECAR file will be initialized with     |
|     random numbers, which is usually adequate. For correlated               |
|     calculations, however, you should redo the groundstate calculation.     |
|     I found NBANDS = 231. Now, NBANDS = 232.                                |
|                                                                             |
 -----------------------------------------------------------------------------



--------------------------------------------------------------------------------------------------------




 Dimension of arrays:
   k-points           NKPTS =     10   k-points in BZ     NKDIM =     10   number of bands    NBANDS=    232
   number of dos      NEDOS =    301   number of ions     NIONS =     96
   non local maximal  LDIM  =      5   non local SUM 2l+1 LMDIM =     13
   total plane-waves  NPLWV = 635040
   max r-space proj   IRMAX =   2405   max aug-charges    IRDMAX= 126548
   dimension x,y,z NGX =    84 NGY =   84 NGZ =   90
   dimension x,y,z NGXF=   168 NGYF=  168 NGZF=  180
   support grid    NGXF=   336 NGYF=  336 NGZF=  360
   ions per type =              96
   NGX,Y,Z   is equivalent  to a cutoff of  11.04, 11.04, 10.74 a.u.
   NGXF,Y,Z  is equivalent  to a cutoff of  22.08, 22.08, 21.48 a.u.

 SYSTEM =  Si and Ge interface calculation         
 POSCAR =  Ge+Ge                                   

 Startparameter for this run:
   NWRITE =      2    write-flag & timer
   PREC   = normal    normal or accurate (medium, high low for compatibility)
   ISTART =      0    job   : 0-new  1-cont  2-samecut
   ICHARG =      2    charge: 1-file 2-atom 10-const
   ISPIN  =      2    spin polarized calculation?
   LNONCOLLINEAR =      F non collinear calculations
   LSORBIT =      F    spin-orbit coupling
   INIWAV =      1    electr: 0-lowe 1-rand  2-diag
   LASPH  =      T    aspherical Exc in radial PAW
 Electronic Relaxation 1
   ENCUT  =  700.0 eV  51.45 Ry    7.17 a.u.  27.29 27.29 30.06*2*pi/ulx,y,z
   ENINI  =  700.0     initial cutoff
   ENAUG  =  900.0 eV  augmentation charge cutoff
   NELM   =    100;   NELMIN=  2; NELMDL= -5     # of ELM steps 
   EDIFF  = 0.1E-06   stopping-criterion for ELM
   LREAL  =      T    real-space projection
   NLSPLINE    = F    spline interpolate recip. space projectors
   LCOMPAT=      F    compatible to vasp.4.4
   GGA_COMPAT  = T    GGA compatible to vasp.4.4-vasp.4.6
   LMAXPAW     = -100 max onsite density
   LMAXMIX     =    6 max onsite mixed and CHGCAR
   VOSKOWN=      0    Vosko Wilk Nusair interpolation
   ROPT   =   -0.00050
 Ionic relaxation
   EDIFFG = 0.1E-05   stopping-criterion for IOM
   NSW    =      0    number of steps for IOM
   NBLOCK =      1;   KBLOCK =      1    inner block; outer block 
   IBRION =     -1    ionic relax: 0-MD 1-quasi-New 2-CG
   NFREE  =      0    steps in history (QN), initial steepest desc. (CG)
   ISIF   =      2    stress and relaxation
   IWAVPR =     10    prediction:  0-non 1-charg 2-wave 3-comb
   ISYM   =      2    0-nonsym 1-usesym 2-fastsym
   LCORR  =      T    Harris-Foulkes like correction to forces

   POTIM  = 0.5000    time-step for ionic-motion
   TEIN   =    0.0    initial temperature
   TEBEG  =    0.0;   TEEND  =   0.0 temperature during run
   SMASS  =  -3.00    Nose mass-parameter (am)
   estimated Nose-frequenzy (Omega)   =  0.10E-29 period in steps = 0.13E+47 mass=  -0.366E-26a.u.
   SCALEE = 1.0000    scale energy and forces
   NPACO  =    256;   APACO  = 10.0  distance and # of slots for P.C.
   PSTRESS=    0.0 pullay stress

  Mass of Ions in am
   POMASS =  72.61
  Ionic Valenz
   ZVAL   =   4.00
  Atomic Wigner-Seitz radii
   RWIGS  =  -1.00
  virtual crystal weights 
   VCA    =   1.00
   NELECT =     384.0000    total number of electrons
   NUPDOWN=       1.0000    fix difference up-down

 DOS related values:
   EMIN   =  10.00;   EMAX   =-10.00  energy-range for DOS
   EFERMI =   0.00;   METHOD = LEGACY      
   ISMEAR =     0;   SIGMA  =   0.01  broadening in eV -4-tet -1-fermi 0-gaus

 Electronic relaxation 2 (details)
   IALGO  =     38    algorithm
   LDIAG  =      T    sub-space diagonalisation (order eigenvalues)
   LSUBROT=      F    optimize rotation matrix (better conditioning)
   TURBO    =      0    0=normal 1=particle mesh
   IRESTART =      0    0=no restart 2=restart with 2 vectors
   NREBOOT  =      0    no. of reboots
   NMIN     =      0    reboot dimension
   EREF     =   0.00    reference energy to select bands
   IMIX   =      4    mixing-type and parameters
     AMIX     =   0.60;   BMIX     =  1.00
     AMIX_MAG =   2.40;   BMIX_MAG =  1.00
     AMIN     =   0.10
     WC   =   100.;   INIMIX=   1;  MIXPRE=   1;  MAXMIX= -45

 Intra band minimization:
   WEIMIN = 0.0000     energy-eigenvalue tresh-hold
   EBREAK =  0.11E-09  absolut break condition
   DEPER  =   0.30     relativ break condition  

   TIME   =   0.40     timestep for ELM

  volume/ion in A,a.u.               =      22.76       153.60
  Fermi-wavevector in a.u.,A,eV,Ry     =   0.916982  1.732844 11.440530  0.840855
  Thomas-Fermi vector in A             =   2.041899
 
 Write flags
   LWAVE        =      F    write WAVECAR
   LDOWNSAMPLE  =      F    k-point downsampling of WAVECAR
   LCHARG       =      T    write CHGCAR
   LVTOT        =      F    write LOCPOT, total local potential
   LVHAR        =      T    write LOCPOT, Hartree potential only
   WRT_POTENTIAL=  hartree ionic  ! write potential to hdf5 file
   LELF         =      F    write electronic localiz. function (ELF)
   LORBIT       =      0    0 simple, 1 ext, 2 COOP (PROOUT), +10 PAW based schemes


 Dipole corrections
   LMONO      =      F    monopole corrections only (constant potential shift)
   LDIPOL     =      F    correct potential (dipole corrections)
   IDIPOL     =      0    1-x, 2-y, 3-z, 4-all directions 
   EPSILON    =  1.0000000 bulk dielectric constant
   LVACPOTAV  =      F  vacuum potentials using an averaging scheme for the charge density
   VACPOTFLAT =  0.1000000 required flatness to determine vacuum potential
 Exchange correlation treatment:
   GGA     = PE    functional components
   XC_C    = 1    coefficients multiplying the functional components
   LIBXC   =     F    Libxc                    
   VOSKOWN =     0    Vosko Wilk Nusair interpolation
   LHFCALC =     F    Hartree Fock is set to
   LHFONE  =     F    Hartree Fock one center treatment
   AEXX    =    0.0000 exact exchange contribution

 Parameters of functionals:
   PE:
     No parameter
 
 Van der Waals corrections
   IVDW    =     0    specifies the selected vdW correction

 Linear response parameters
   LEPSILON=     F    determine dielectric tensor
   LRPA    =     F    only Hartree local field effects (RPA)
   LNABLA  =     F    use nabla operator in PAW spheres
   LVEL    =     F    velocity operator in full k-point grid
   CSHIFT  =0.1000    complex shift for real part using Kramers Kronig
   OMEGAMAX=  -1.0    maximum frequency
   DEG_THRESHOLD= 0.2000000E-02 threshold for treating states as degnerate
   RTIME   =   -0.100 relaxation time in fs
  (WPLASMAI=    0.000 imaginary part of plasma frequency in eV, 0.658/RTIME)
   DFIELD  = 0.0000000 0.0000000 0.0000000 field for delta impulse in time
 
  Optional k-point grid parameters
   LKPOINTS_OPT  =     F    use optional k-point grid
   KPOINTS_OPT_MODE=     1    mode for optional k-point grid
 
 Orbital magnetization related:
   ORBITALMAG=     F  switch on orbital magnetization
   LCHIMAG   =     F  perturbation theory with respect to B field
   DQ        =  0.001000  dq finite difference perturbation B field
   LLRAUG    =     F  two centre corrections for induced B field
   LBONE     =     F  B-component reconstruction in AE one-centre
   LVGVCALC  =     T  calculate vGv susceptibility
   LVGVAPPL  =     F  apply vGv susceptibility instead of pGv for G=0

 Random number generation:
   RANDOM_GENERATOR = DEFAULT
   PCG_SEED         = not used


--------------------------------------------------------------------------------------------------------


 Static calculation
 charge density and potential will be updated during run
 spin polarized calculation
 Variant of blocked Davidson
 Davidson routine will perform the subspace rotation
 perform sub-space diagonalisation
    after iterative eigenvector-optimisation
 modified Broyden-mixing scheme, WC =      100.0
 initial mixing is a Kerker type mixing with AMIX =  0.6000 and BMIX =      1.0000
 Hartree-type preconditioning will be used
 using additional bands           40
 real space projection scheme for non local part
 use partial core corrections
 calculate Harris-corrections to forces 
   (improved forces if not selfconsistent)
 use gradient corrections 
 use of overlap-Matrix (Vanderbilt PP)
 Gauss-broadening in eV      SIGMA  =   0.01


--------------------------------------------------------------------------------------------------------


  energy-cutoff  :      700.00
  volume of cell :     2185.11
      direct lattice vectors                 reciprocal lattice vectors
    12.651226044  0.000000000  0.000000000     0.079043722 -0.016134732  0.000000000
     2.530245304 12.395620346  0.000000000     0.000000000  0.080673655  0.000000000
     0.000000000  0.000000000 13.933910370     0.000000000  0.000000000  0.071767363

  length of vectors
    12.651226044 12.651227018 13.933910370     0.080673661  0.080673655  0.071767363


 
 k-points in units of 2pi/SCALE and weight: Automatic KPOINTS generated             
   0.00000000  0.00000000  0.00000000       0.056
   0.02634791 -0.00537824  0.00000000       0.111
   0.00000000 -0.02689122  0.00000000       0.111
   0.02634791  0.02151297  0.00000000       0.111
  -0.02634791  0.03226946  0.00000000       0.111
   0.00000000  0.00000000  0.03588368       0.056
   0.02634791 -0.00537824  0.03588368       0.111
   0.00000000 -0.02689122  0.03588368       0.111
   0.02634791  0.02151297  0.03588368       0.111
  -0.02634791  0.03226946  0.03588368       0.111
 
 k-points in reciprocal lattice and weights: Automatic KPOINTS generated             
   0.00000000  0.00000000  0.00000000       0.056
   0.33333333  0.00000000  0.00000000       0.111
   0.00000000 -0.33333333  0.00000000       0.111
   0.33333333  0.33333333  0.00000000       0.111
  -0.33333333  0.33333333  0.00000000       0.111
   0.00000000  0.00000000  0.50000000       0.056
   0.33333333  0.00000000  0.50000000       0.111
   0.00000000 -0.33333333  0.50000000       0.111
   0.33333333  0.33333333  0.50000000       0.111
  -0.33333333  0.33333333  0.50000000       0.111
 
 position of ions in fractional coordinates (direct lattice) 
   0.78425658  0.48979867  0.41441864
   0.99259037  0.94813251  0.00000002
   0.95092356  0.65646577  0.08288376
   0.90925682  0.36479890  0.16576751
   0.86759007  0.07313222  0.24865122
   0.82592332  0.78146553  0.33153489
   0.28425661  0.98979878  0.41441870
   0.49259037  0.44813251  0.00000003
   0.45092362  0.15646577  0.08288376
   0.40925688  0.86479896  0.16576751
   0.36759013  0.57313228  0.24865122
   0.32592338  0.28146553  0.33153492
   0.15925664  0.36479878  0.41441870
   0.36759040  0.82313263  0.00000001
   0.32592362  0.53146583  0.08288376
   0.28425688  0.23979901  0.16576754
   0.24259017  0.94813240  0.24865119
   0.20092338  0.65646565  0.33153492
   0.65925658  0.86479867  0.41441864
   0.86759049  0.32313258  0.00000001
   0.82592368  0.03146578  0.08288376
   0.78425688  0.73979890  0.16576751
   0.74259013  0.44813234  0.24865119
   0.70092338  0.15646553  0.33153489
   0.03425656  0.23979878  0.41441864
   0.24259035  0.69813263  0.00000000
   0.20092359  0.40646580  0.08288375
   0.15925685  0.11479896  0.16576751
   0.11759009  0.82313240  0.24865118
   0.07592334  0.53146553  0.33153489
   0.53425670  0.73979867  0.41441870
   0.74259043  0.19813251  0.00000002
   0.70092362  0.90646571  0.08288377
   0.65925688  0.61479890  0.16576751
   0.61759025  0.32313234  0.24865122
   0.57592344  0.03146547  0.33153489
   0.90925658  0.61479878  0.41441870
   0.11759036  0.07313251  0.00000002
   0.07592360  0.78146577  0.08288376
   0.03425685  0.48979896  0.16576751
   0.99259007  0.19813222  0.24865122
   0.95092338  0.90646553  0.33153492
   0.40925661  0.11479884  0.41441870
   0.61759049  0.57313258  0.00000001
   0.57592362  0.28146583  0.08288375
   0.53425694  0.98979902  0.16576754
   0.49259019  0.69813228  0.24865125
   0.45092344  0.40646553  0.33153495
   0.92630661  0.08584392  0.91441870
   0.38464046  0.29417765  0.50000000
   0.09297359  0.25251091  0.58288372
   0.80130690  0.21084416  0.66576755
   0.50964016  0.16917741  0.74865127
   0.21797347  0.12751067  0.83153498
   0.42630661  0.58584392  0.91441870
   0.88464046  0.79417765  0.50000000
   0.59297365  0.75251091  0.58288372
   0.30130696  0.71084422  0.66576755
   0.00964022  0.66917741  0.74865127
   0.71797341  0.62751067  0.83153498
   0.80130673  0.46084398  0.91441870
   0.25964057  0.66917771  0.50000000
   0.96797377  0.62751091  0.58288372
   0.67630702  0.58584422  0.66576755
   0.38464034  0.54417747  0.74865127
   0.09297359  0.50251073  0.83153498
   0.30130661  0.96084392  0.91441858
   0.75964052  0.16917777  0.50000000
   0.46797371  0.12751102  0.58288372
   0.17630696  0.08584416  0.66576755
   0.88464028  0.04417753  0.74865127
   0.59297347  0.00251067  0.83153498
   0.67630666  0.33584389  0.91441870
   0.13464046  0.54417765  0.50000000
   0.84297371  0.50251091  0.58288372
   0.55130696  0.46084416  0.66576755
   0.25964022  0.41917741  0.74865115
   0.96797347  0.37751067  0.83153486
   0.17630661  0.83584404  0.91441870
   0.63464046  0.04417777  0.50000000
   0.34297371  0.00251102  0.58288372
   0.05130696  0.96084416  0.66576755
   0.75964022  0.91917753  0.74865127
   0.46797341  0.87751079  0.83153498
   0.05130661  0.21084392  0.91441870
   0.50964046  0.41917768  0.50000000
   0.21797371  0.37751091  0.58288372
   0.92630696  0.33584419  0.66576755
   0.63464016  0.29417741  0.74865115
   0.34297347  0.25251067  0.83153498
   0.55130673  0.71084404  0.91441870
   0.00964046  0.91917777  0.50000000
   0.71797371  0.87751091  0.58288372
   0.42630696  0.83584428  0.66576755
   0.13464022  0.79417753  0.74865127
   0.84297347  0.75251079  0.83153498
 
 position of ions in cartesian coordinates  (Angst):
  11.16111800  6.07135830  5.77447216
  14.95649296 11.75269069  0.00000031
  13.69136836  8.13730044  1.15489488
  12.42624422  4.52190870  2.30978957
  11.16112054  0.90651920  3.46468383
  12.42624215  9.68675002  4.61957747
   6.10062831 12.26916995  5.77447298
   7.36575728  5.55488052  0.00000039
   6.10063345  1.93949027  1.15489488
   7.36575476 10.71971962  2.30978957
   6.10063107  7.10433011  3.46468383
   4.83550723  3.48893985  4.61957789
   2.93782212  4.52190723  5.77447298
   6.73319670 10.20323963  0.00000017
   5.46807233  6.58784863  1.15489488
   4.20294831  2.97245746  2.30978999
   5.46807067 11.75268922  3.46468342
   4.20294626  8.13729897  4.61957789
  10.52855674 10.71971593  5.77447216
  11.79368805  4.00542872  0.00000017
  10.52856332  0.39003781  1.15489488
  11.79368372  9.17026633  2.30978957
  10.52856032  5.55487830  3.46468342
   9.26343633  1.93948731  4.61957747
   1.04013722  2.97245469  5.77447216
   4.83551221  8.65378708  0.00000000
   3.57038796  5.03839573  1.15489479
   2.30526388  1.42300427  2.30978957
   3.57038563 10.20323668  3.46468321
   2.30526149  6.58784494  4.61957747
   8.63087434  9.17026338  5.77447298
   9.89600322  2.45597543  0.00000029
  11.16112378 11.23620479  1.15489499
   9.89599980  7.62081379  2.30978957
   8.63087792  4.00542576  3.46468383
   7.36575302  0.39003403  4.61957747
  13.05880222  7.62081232  5.77447298
   1.67270543  0.90652289  0.00000029
   2.93782671  9.68675299  1.15489488
   1.67270263  6.07136199  2.30978957
  13.05880446  2.45597174  3.46468383
  14.32392682 11.23620257  4.61957789
   5.46806708  1.42300289  5.77447298
   9.26344286  7.10433381  0.00000017
   7.99831752  3.48894354  1.15489479
   9.26343958 12.26917291  2.30978999
   7.99831574  8.65378266  3.46468424
   6.73319190  5.03839239  4.61957831
  11.93612042  1.06408865 12.74142816
   5.61051496  3.64651448  6.96695518
   1.81514443  3.13002931  8.12184945
  10.67100220  2.61354415  9.27674537
   6.87563318  2.09705898 10.43163964
   3.08026492  1.58057382 11.58653391
   6.87563005  7.26189883 12.74142816
  13.20125064  9.84432465  6.96695518
   9.40588087  9.32783948  8.12184945
   5.61051274  8.81135506  9.27674537
   1.81514357  8.29486916 10.43163964
  10.67099983  7.77838399 11.58653391
  11.30356082  5.71244701 12.74142816
   4.97795535  8.29487285  6.96695518
  13.83381148  7.77838694  8.12184945
  10.03844261  7.26190252  9.27674537
   6.24307433  6.74541736 10.43163964
   2.44770531  6.22893218 11.58653391
   6.24306879 11.91025646 12.74142651
  10.03844513  2.09706342  6.96695518
   6.24307534  1.58057824  8.12184945
   2.44770602  1.06409160  9.27674537
  11.30356409  0.54760791 10.43163964
   7.50819402  0.03112127 11.58653391
   9.40587592  4.16299337 12.74142816
   3.08026978  6.74541956  6.96695518
  11.93612680  6.22893440  8.12184945
   8.14075778  5.71244923  9.27674537
   4.34538876  5.19596407 10.43163798
  13.20124578  4.67947890 11.58653225
   4.34538517 10.36080539 12.74142816
   8.14076045  0.54761088  6.96695518
   4.34539143  0.03112570  8.12184945
   3.08026741 11.91025941  9.27674537
  11.93612473 11.39377572 10.43163964
   8.14075495 10.87729055 11.58653391
   1.18257830  2.61354120 12.74142816
   7.50819896  5.19596739  6.96695518
   3.71282986  4.67948185  8.12184945
  12.56868696  4.16299706  9.27674537
   8.77331710  3.64651153 10.43163798
   4.97794884  3.13002636 11.58653391
   8.77331579  8.81135285 12.74142816
   2.44770881 11.39377868  6.96695518
  11.30356553 10.87729203  8.12184945
   7.50819681 10.36080834  9.27674537
   3.71282779  9.84432317 10.43163964
  12.56868481  9.32783801 11.58653391
 


--------------------------------------------------------------------------------------------------------


 k-point     1 :   0.0000 0.0000 0.0000  plane waves:   91969
 k-point     2 :   0.3333 0.0000 0.0000  plane waves:   91887
 k-point     3 :   0.0000-0.3333 0.0000  plane waves:   91887
 k-point     4 :   0.3333 0.3333 0.0000  plane waves:   91872
 k-point     5 :  -0.3333 0.3333 0.0000  plane waves:   91872
 k-point     6 :   0.0000 0.0000 0.5000  plane waves:   91840
 k-point     7 :   0.3333 0.0000 0.5000  plane waves:   91922
 k-point     8 :   0.0000-0.3333 0.5000  plane waves:   91922
 k-point     9 :   0.3333 0.3333 0.5000  plane waves:   91906
 k-point    10 :  -0.3333 0.3333 0.5000  plane waves:   91900

 maximum and minimum number of plane-waves per node :      5801     5702

 maximum number of plane-waves:     91969
 maximum index in each direction: 
   IXMAX=   27   IYMAX=   27   IZMAX=   30
   IXMIN=  -27   IYMIN=  -27   IZMIN=  -30


 real space projection operators:
  total allocation   :      22308.91 KBytes
  max/ min on nodes  :       1596.05       1326.71


 parallel 3D FFT for wavefunctions:
    minimum data exchange during FFTs selected (reduces bandwidth)
 parallel 3D FFT for charge:
    minimum data exchange during FFTs selected (reduces bandwidth)


 total amount of memory used by VASP MPI-rank0   168804. kBytes
=======================================================================

   base      :      30000. kBytes
   nonlr-proj:       5847. kBytes
   fftplans  :      14311. kBytes
   grid      :      10233. kBytes
   one-center:         97. kBytes
   wavefun   :     108316. kBytes
 
     INWAV:  cpu time      0.0000: real time      0.0001
 Broyden mixing: mesh for mixing (old mesh)
   NGX = 55   NGY = 55   NGZ = 61
  (NGX  =168   NGY  =168   NGZ  =180)
  gives a total of 184525 points

 initial charge density was supplied:
 charge density of overlapping atoms calculated
 number of electron     384.0000000 magnetization       1.0000000
 keeping initial charge density in first step


--------------------------------------------------------------------------------------------------------


 Maximum index for non-local projection operator          386
 Maximum index for augmentation-charges         5418 (set IRDMAX)


--------------------------------------------------------------------------------------------------------


 First call to EWALD:  gamma=   0.137
 Maximum number of real-space cells 3x 3x 3
 Maximum number of reciprocal cells 3x 3x 3

    FEWALD:  cpu time      0.0025: real time      0.0026


--------------------------------------- Ionic step        1  -------------------------------------------




--------------------------------------- Iteration      1(   1)  ---------------------------------------


    POTLOK:  cpu time      0.1800: real time      0.1815
    SETDIJ:  cpu time      1.5079: real time      1.5139
     EDDAV:  cpu time     19.6465: real time     19.8127
       DOS:  cpu time      0.0037: real time      0.0037
    --------------------------------------------
      LOOP:  cpu time     21.3381: real time     21.5118

 eigenvalue-minimisations  :  9280
 total energy-change (2. order) : 0.1934479E+04  (-0.1682294E+05)
 number of electron     384.0000000 magnetization       1.0000000
 augmentation part      384.0000000 magnetization       1.0000000

 Free energy of the ion-electron system (eV)
  ---------------------------------------------------
  alpha Z        PSCENC =       806.12556457
  Ewald energy   TEWEN  =    -10086.23071299
  -Hartree energ DENC   =      -969.18729308
  -exchange      EXHF   =         0.00000000
  -V(xc)+E(xc)   XCENC  =      -717.67364310
  PAW double counting   =      8461.93788731    -7071.13096423
  entropy T*S    EENTRO =        -0.00152903
  eigenvalues    EBANDS =      1431.03221373
  atomic energy  EATOM  =     10079.60734648
  Solvation  Ediel_sol  =         0.00000000
  ---------------------------------------------------
  free energy    TOTEN  =      1934.47886965 eV

  energy without entropy =     1934.48039868  energy(sigma->0) =     1934.47963417


--------------------------------------------------------------------------------------------------------




--------------------------------------- Iteration      1(   2)  ---------------------------------------


     EDDAV:  cpu time     21.7306: real time     21.9063
       DOS:  cpu time      0.0030: real time      0.0030
    --------------------------------------------
      LOOP:  cpu time     21.7336: real time     21.9093

 eigenvalue-minimisations  : 10824
 total energy-change (2. order) :-0.2100484E+04  (-0.2033109E+04)
 number of electron     384.0000000 magnetization       1.0000000
 augmentation part      384.0000000 magnetization       1.0000000

 Free energy of the ion-electron system (eV)
  ---------------------------------------------------
  alpha Z        PSCENC =       806.12556457
  Ewald energy   TEWEN  =    -10086.23071299
  -Hartree energ DENC   =      -969.18729308
  -exchange      EXHF   =         0.00000000
  -V(xc)+E(xc)   XCENC  =      -717.67364310
  PAW double counting   =      8461.93788731    -7071.13096423
  entropy T*S    EENTRO =        -0.00180005
  eigenvalues    EBANDS =      -669.45118050
  atomic energy  EATOM  =     10079.60734648
  Solvation  Ediel_sol  =         0.00000000
  ---------------------------------------------------
  free energy    TOTEN  =      -166.00479559 eV

  energy without entropy =     -166.00299555  energy(sigma->0) =     -166.00389557


--------------------------------------------------------------------------------------------------------




--------------------------------------- Iteration      1(   3)  ---------------------------------------


     EDDAV:  cpu time     22.5756: real time     22.7544
       DOS:  cpu time      0.0017: real time      0.0017
    --------------------------------------------
      LOOP:  cpu time     22.5773: real time     22.7561

 eigenvalue-minimisations  : 11368
 total energy-change (2. order) :-0.2159926E+03  (-0.2078789E+03)
 number of electron     384.0000000 magnetization       1.0000000
 augmentation part      384.0000000 magnetization       1.0000000

 Free energy of the ion-electron system (eV)
  ---------------------------------------------------
  alpha Z        PSCENC =       806.12556457
  Ewald energy   TEWEN  =    -10086.23071299
  -Hartree energ DENC   =      -969.18729308
  -exchange      EXHF   =         0.00000000
  -V(xc)+E(xc)   XCENC  =      -717.67364310
  PAW double counting   =      8461.93788731    -7071.13096423
  entropy T*S    EENTRO =        -0.00124549
  eigenvalues    EBANDS =      -885.44437113
  atomic energy  EATOM  =     10079.60734648
  Solvation  Ediel_sol  =         0.00000000
  ---------------------------------------------------
  free energy    TOTEN  =      -381.99743166 eV

  energy without entropy =     -381.99618617  energy(sigma->0) =     -381.99680891


--------------------------------------------------------------------------------------------------------




--------------------------------------- Iteration      1(   4)  ---------------------------------------


     EDDAV:  cpu time     22.0677: real time     22.2421
       DOS:  cpu time      0.0018: real time      0.0018
    --------------------------------------------
      LOOP:  cpu time     22.0695: real time     22.2440

 eigenvalue-minimisations  : 11072
 total energy-change (2. order) :-0.8694685E+01  (-0.8450484E+01)
 number of electron     384.0000000 magnetization       1.0000000
 augmentation part      384.0000000 magnetization       1.0000000

 Free energy of the ion-electron system (eV)
  ---------------------------------------------------
  alpha Z        PSCENC =       806.12556457
  Ewald energy   TEWEN  =    -10086.23071299
  -Hartree energ DENC   =      -969.18729308
  -exchange      EXHF   =         0.00000000
  -V(xc)+E(xc)   XCENC  =      -717.67364310
  PAW double counting   =      8461.93788731    -7071.13096423
  entropy T*S    EENTRO =        -0.00378684
  eigenvalues    EBANDS =      -894.13651461
  atomic energy  EATOM  =     10079.60734648
  Solvation  Ediel_sol  =         0.00000000
  ---------------------------------------------------
  free energy    TOTEN  =      -390.69211649 eV

  energy without entropy =     -390.68832965  energy(sigma->0) =     -390.69022307


--------------------------------------------------------------------------------------------------------




--------------------------------------- Iteration      1(   5)  ---------------------------------------


     EDDAV:  cpu time     23.3633: real time     23.5503
       DOS:  cpu time      0.0026: real time      0.0027
    CHARGE:  cpu time      1.2398: real time      1.2470
    MIXING:  cpu time      0.0114: real time      0.0114
    --------------------------------------------
      LOOP:  cpu time     24.6171: real time     24.8114

 eigenvalue-minimisations  : 11904
 total energy-change (2. order) :-0.3379423E+00  (-0.3352478E+00)
 number of electron     383.9999997 magnetization       1.0000000
 augmentation part      -64.3305288 magnetization      -0.1091787

 Broyden mixing:
  rms(total) = 0.20387E+01    rms(broyden)= 0.20387E+01
  rms(prec ) = 0.22667E+01
  weight for this iteration     100.00

 Free energy of the ion-electron system (eV)
  ---------------------------------------------------
  alpha Z        PSCENC =       806.12556457
  Ewald energy   TEWEN  =    -10086.23071299
  -Hartree energ DENC   =      -969.18729308
  -exchange      EXHF   =         0.00000000
  -V(xc)+E(xc)   XCENC  =      -717.67364310
  PAW double counting   =      8461.93788731    -7071.13096423
  entropy T*S    EENTRO =        -0.00371412
  eigenvalues    EBANDS =      -894.47452961
  atomic energy  EATOM  =     10079.60734648
  Solvation  Ediel_sol  =         0.00000000
  ---------------------------------------------------
  free energy    TOTEN  =      -391.03005877 eV

  energy without entropy =     -391.02634465  energy(sigma->0) =     -391.02820171


--------------------------------------------------------------------------------------------------------




--------------------------------------- Iteration      1(   6)  ---------------------------------------


    POTLOK:  cpu time      0.1602: real time      0.1616
    SETDIJ:  cpu time      1.4924: real time      1.4985
     EDDAV:  cpu time     21.8819: real time     22.0718
       DOS:  cpu time      0.0020: real time      0.0020
    CHARGE:  cpu time      1.2369: real time      1.2440
    MIXING:  cpu time      0.0075: real time      0.0076
    --------------------------------------------
      LOOP:  cpu time     24.7810: real time     24.9856

 eigenvalue-minimisations  : 10984
 total energy-change (2. order) : 0.4225767E+01  (-0.1005630E+01)
 number of electron     383.9999997 magnetization       1.0000000
 augmentation part      -63.7922159 magnetization      -0.1056866

 Broyden mixing:
  rms(total) = 0.95720E+00    rms(broyden)= 0.95720E+00
  rms(prec ) = 0.10877E+01
  weight for this iteration     100.00

 eigenvalues of (default mixing * dielectric matrix)
  average eigenvalue GAMMA=   1.7000
  1.7000

 Free energy of the ion-electron system (eV)
  ---------------------------------------------------
  alpha Z        PSCENC =       806.12556457
  Ewald energy   TEWEN  =    -10086.23071299
  -Hartree energ DENC   =     -1050.08070127
  -exchange      EXHF   =         0.00000000
  -V(xc)+E(xc)   XCENC  =      -705.22015504
  PAW double counting   =     14185.89712632   -12803.89605236
  entropy T*S    EENTRO =        -0.00148556
  eigenvalues    EBANDS =      -813.00522144
  atomic energy  EATOM  =     10079.60734648
  Solvation  Ediel_sol  =         0.00000000
  ---------------------------------------------------
  free energy    TOTEN  =      -386.80429130 eV

  energy without entropy =     -386.80280574  energy(sigma->0) =     -386.80354852


--------------------------------------------------------------------------------------------------------




--------------------------------------- Iteration      1(   7)  ---------------------------------------


    POTLOK:  cpu time      0.1539: real time      0.1560
    SETDIJ:  cpu time      1.4914: real time      1.4975
     EDDAV:  cpu time     21.8813: real time     22.0690
       DOS:  cpu time      0.0017: real time      0.0018
    CHARGE:  cpu time      1.2374: real time      1.2444
    MIXING:  cpu time      0.0038: real time      0.0039
    --------------------------------------------
      LOOP:  cpu time     24.7696: real time     24.9726

 eigenvalue-minimisations  : 11008
 total energy-change (2. order) : 0.2538131E+00  (-0.6099659E+00)
 number of electron     383.9999997 magnetization       1.0000000
 augmentation part      -63.6620171 magnetization      -0.1085770

 Broyden mixing:
  rms(total) = 0.38863E+00    rms(broyden)= 0.38863E+00
  rms(prec ) = 0.61381E+00
  weight for this iteration     100.00

 eigenvalues of (default mixing * dielectric matrix)
  average eigenvalue GAMMA=   1.2437
  1.8634  0.6240

 Free energy of the ion-electron system (eV)
  ---------------------------------------------------
  alpha Z        PSCENC =       806.12556457
  Ewald energy   TEWEN  =    -10086.23071299
  -Hartree energ DENC   =     -1074.01289026
  -exchange      EXHF   =         0.00000000
  -V(xc)+E(xc)   XCENC  =      -697.67687356
  PAW double counting   =     18885.18554569   -17508.43664403
  entropy T*S    EENTRO =        -0.00241187
  eigenvalues    EBANDS =      -791.10940225
  atomic energy  EATOM  =     10079.60734648
  Solvation  Ediel_sol  =         0.00000000
  ---------------------------------------------------
  free energy    TOTEN  =      -386.55047823 eV

  energy without entropy =     -386.54806636  energy(sigma->0) =     -386.54927230


--------------------------------------------------------------------------------------------------------




--------------------------------------- Iteration      1(   8)  ---------------------------------------


    POTLOK:  cpu time      0.1553: real time      0.1567
    SETDIJ:  cpu time      1.4949: real time      1.5013
     EDDAV:  cpu time     21.8941: real time     22.0788
       DOS:  cpu time      0.0018: real time      0.0018
    CHARGE:  cpu time      1.2354: real time      1.2423
    MIXING:  cpu time      0.0038: real time      0.0038
    --------------------------------------------
      LOOP:  cpu time     24.7854: real time     24.9846

 eigenvalue-minimisations  : 11016
 total energy-change (2. order) : 0.3032946E+00  (-0.1518759E+00)
 number of electron     383.9999997 magnetization       1.0000000
 augmentation part      -63.5205385 magnetization      -0.1071988

 Broyden mixing:
  rms(total) = 0.10627E+00    rms(broyden)= 0.10627E+00
  rms(prec ) = 0.16685E+00
  weight for this iteration     100.00

 eigenvalues of (default mixing * dielectric matrix)
  average eigenvalue GAMMA=   1.1406
  1.8823  0.9362  0.6034

 Free energy of the ion-electron system (eV)
  ---------------------------------------------------
  alpha Z        PSCENC =       806.12556457
  Ewald energy   TEWEN  =    -10086.23071299
  -Hartree energ DENC   =     -1090.96904800
  -exchange      EXHF   =         0.00000000
  -V(xc)+E(xc)   XCENC  =      -694.57260079
  PAW double counting   =     21204.97952063   -19830.50150974
  entropy T*S    EENTRO =        -0.00268221
  eigenvalues    EBANDS =      -774.68306154
  atomic energy  EATOM  =     10079.60734648
  Solvation  Ediel_sol  =         0.00000000
  ---------------------------------------------------
  free energy    TOTEN  =      -386.24718360 eV

  energy without entropy =     -386.24450139  energy(sigma->0) =     -386.24584249


--------------------------------------------------------------------------------------------------------




--------------------------------------- Iteration      1(   9)  ---------------------------------------


    POTLOK:  cpu time      0.1523: real time      0.1550
    SETDIJ:  cpu time      1.4926: real time      1.4987
     EDDAV:  cpu time     21.6652: real time     21.8369
       DOS:  cpu time      0.0019: real time      0.0020
    CHARGE:  cpu time      1.2422: real time      1.2492
    MIXING:  cpu time      0.0040: real time      0.0040
    --------------------------------------------
      LOOP:  cpu time     24.5581: real time     24.7458

 eigenvalue-minimisations  : 10864
 total energy-change (2. order) : 0.1451846E-01  (-0.3752552E-01)
 number of electron     383.9999997 magnetization       1.0000000
 augmentation part      -63.4642408 magnetization      -0.1072004

 Broyden mixing:
  rms(total) = 0.65366E-01    rms(broyden)= 0.65366E-01
  rms(prec ) = 0.79802E-01
  weight for this iteration     100.00

 eigenvalues of (default mixing * dielectric matrix)
  average eigenvalue GAMMA=   1.1762
  1.8901  1.7070  0.6180  0.4895

 Free energy of the ion-electron system (eV)
  ---------------------------------------------------
  alpha Z        PSCENC =       806.12556457
  Ewald energy   TEWEN  =    -10086.23071299
  -Hartree energ DENC   =     -1091.68293494
  -exchange      EXHF   =         0.00000000
  -V(xc)+E(xc)   XCENC  =      -694.47228893
  PAW double counting   =     21501.76917973   -20127.47883342
  entropy T*S    EENTRO =        -0.00258649
  eigenvalues    EBANDS =      -773.86739913
  atomic energy  EATOM  =     10079.60734648
  Solvation  Ediel_sol  =         0.00000000
  ---------------------------------------------------
  free energy    TOTEN  =      -386.23266513 eV

  energy without entropy =     -386.23007864  energy(sigma->0) =     -386.23137189


--------------------------------------------------------------------------------------------------------




--------------------------------------- Iteration      1(  10)  ---------------------------------------


    POTLOK:  cpu time      0.1567: real time      0.1578
    SETDIJ:  cpu time      1.4912: real time      1.4972
     EDDAV:  cpu time     21.1933: real time     21.3760
       DOS:  cpu time      0.0017: real time      0.0017
    CHARGE:  cpu time      1.2369: real time      1.2440
    MIXING:  cpu time      0.0060: real time      0.0060
    --------------------------------------------
      LOOP:  cpu time     24.0857: real time     24.2827

 eigenvalue-minimisations  : 10544
 total energy-change (2. order) :-0.1198667E-02  (-0.9931161E-02)
 number of electron     383.9999997 magnetization       1.0000000
 augmentation part      -63.4874461 magnetization      -0.1059749

 Broyden mixing:
  rms(total) = 0.24094E-01    rms(broyden)= 0.24094E-01
  rms(prec ) = 0.31323E-01
  weight for this iteration     100.00

 eigenvalues of (default mixing * dielectric matrix)
  average eigenvalue GAMMA=   1.1041
  1.9963  1.6932  0.6554  0.6554  0.5202

 Free energy of the ion-electron system (eV)
  ---------------------------------------------------
  alpha Z        PSCENC =       806.12556457
  Ewald energy   TEWEN  =    -10086.23071299
  -Hartree energ DENC   =     -1087.74174566
  -exchange      EXHF   =         0.00000000
  -V(xc)+E(xc)   XCENC  =      -694.62597307
  PAW double counting   =     21761.94123357   -20387.68020684
  entropy T*S    EENTRO =        -0.00274517
  eigenvalues    EBANDS =      -777.62662468
  atomic energy  EATOM  =     10079.60734648
  Solvation  Ediel_sol  =         0.00000000
  ---------------------------------------------------
  free energy    TOTEN  =      -386.23386380 eV

  energy without entropy =     -386.23111863  energy(sigma->0) =     -386.23249122


--------------------------------------------------------------------------------------------------------




--------------------------------------- Iteration      1(  11)  ---------------------------------------


    POTLOK:  cpu time      0.1575: real time      0.1586
    SETDIJ:  cpu time      1.4948: real time      1.5007
     EDDAV:  cpu time     21.5863: real time     21.7690
       DOS:  cpu time      0.0018: real time      0.0019
    CHARGE:  cpu time      1.2376: real time      1.2447
    MIXING:  cpu time      0.0065: real time      0.0065
    --------------------------------------------
      LOOP:  cpu time     24.4845: real time     24.6813

 eigenvalue-minimisations  : 10744
 total energy-change (2. order) : 0.8730373E-03  (-0.1053228E-02)
 number of electron     383.9999997 magnetization       1.0000000
 augmentation part      -63.4880287 magnetization      -0.1063104

 Broyden mixing:
  rms(total) = 0.13900E-01    rms(broyden)= 0.13900E-01
  rms(prec ) = 0.15660E-01
  weight for this iteration     100.00

 eigenvalues of (default mixing * dielectric matrix)
  average eigenvalue GAMMA=   1.0515
  2.0038  1.6996  0.7101  0.7101  0.4889  0.6966

 Free energy of the ion-electron system (eV)
  ---------------------------------------------------
  alpha Z        PSCENC =       806.12556457
  Ewald energy   TEWEN  =    -10086.23071299
  -Hartree energ DENC   =     -1087.87448706
  -exchange      EXHF   =         0.00000000
  -V(xc)+E(xc)   XCENC  =      -694.57172052
  PAW double counting   =     21809.48748578   -20435.26020908
  entropy T*S    EENTRO =        -0.00269332
  eigenvalues    EBANDS =      -777.51356461
  atomic energy  EATOM  =     10079.60734648
  Solvation  Ediel_sol  =         0.00000000
  ---------------------------------------------------
  free energy    TOTEN  =      -386.23299076 eV

  energy without entropy =     -386.23029744  energy(sigma->0) =     -386.23164410


--------------------------------------------------------------------------------------------------------




--------------------------------------- Iteration      1(  12)  ---------------------------------------


    POTLOK:  cpu time      0.1570: real time      0.1587
    SETDIJ:  cpu time      1.4915: real time      1.4978
     EDDAV:  cpu time     21.6644: real time     21.8428
       DOS:  cpu time      0.0017: real time      0.0017
    CHARGE:  cpu time      1.2373: real time      1.2447
    MIXING:  cpu time      0.0052: real time      0.0052
    --------------------------------------------
      LOOP:  cpu time     24.5571: real time     24.7510

 eigenvalue-minimisations  : 10752
 total energy-change (2. order) : 0.6420647E-04  (-0.2510039E-03)
 number of electron     383.9999997 magnetization       1.0000000
 augmentation part      -63.4859641 magnetization      -0.1059516

 Broyden mixing:
  rms(total) = 0.80909E-02    rms(broyden)= 0.80909E-02
  rms(prec ) = 0.86749E-02
  weight for this iteration     100.00

 eigenvalues of (default mixing * dielectric matrix)
  average eigenvalue GAMMA=   1.0580
  1.9993  1.7747  0.9815  0.9815  0.6793  0.4948  0.4948

 Free energy of the ion-electron system (eV)
  ---------------------------------------------------
  alpha Z        PSCENC =       806.12556457
  Ewald energy   TEWEN  =    -10086.23071299
  -Hartree energ DENC   =     -1087.98132880
  -exchange      EXHF   =         0.00000000
  -V(xc)+E(xc)   XCENC  =      -694.56803147
  PAW double counting   =     21816.17794950   -20441.94988330
  entropy T*S    EENTRO =        -0.00270599
  eigenvalues    EBANDS =      -777.41112456
  atomic energy  EATOM  =     10079.60734648
  Solvation  Ediel_sol  =         0.00000000
  ---------------------------------------------------
  free energy    TOTEN  =      -386.23292656 eV

  energy without entropy =     -386.23022057  energy(sigma->0) =     -386.23157356


--------------------------------------------------------------------------------------------------------




--------------------------------------- Iteration      1(  13)  ---------------------------------------


    POTLOK:  cpu time      0.1557: real time      0.1568
    SETDIJ:  cpu time      1.4939: real time      1.5002
     EDDAV:  cpu time     20.9148: real time     21.0924
       DOS:  cpu time      0.0017: real time      0.0018
    CHARGE:  cpu time      1.2373: real time      1.2443
    MIXING:  cpu time      0.0047: real time      0.0047
    --------------------------------------------
      LOOP:  cpu time     23.8081: real time     24.0001

 eigenvalue-minimisations  : 10304
 total energy-change (2. order) :-0.1008422E-03  (-0.5464797E-04)
 number of electron     383.9999997 magnetization       1.0000000
 augmentation part      -63.4849689 magnetization      -0.1064299

 Broyden mixing:
  rms(total) = 0.38103E-02    rms(broyden)= 0.38103E-02
  rms(prec ) = 0.40515E-02
  weight for this iteration     100.00

 eigenvalues of (default mixing * dielectric matrix)
  average eigenvalue GAMMA=   1.0426
  2.0021  1.7513  1.1020  1.1020  0.7374  0.6239  0.5334  0.4890

 Free energy of the ion-electron system (eV)
  ---------------------------------------------------
  alpha Z        PSCENC =       806.12556457
  Ewald energy   TEWEN  =    -10086.23071299
  -Hartree energ DENC   =     -1088.09296626
  -exchange      EXHF   =         0.00000000
  -V(xc)+E(xc)   XCENC  =      -694.56459887
  PAW double counting   =     21817.29504156   -20443.06539540
  entropy T*S    EENTRO =        -0.00269232
  eigenvalues    EBANDS =      -777.30461415
  atomic energy  EATOM  =     10079.60734648
  Solvation  Ediel_sol  =         0.00000000
  ---------------------------------------------------
  free energy    TOTEN  =      -386.23302740 eV

  energy without entropy =     -386.23033508  energy(sigma->0) =     -386.23168124


--------------------------------------------------------------------------------------------------------




--------------------------------------- Iteration      1(  14)  ---------------------------------------


    POTLOK:  cpu time      0.1563: real time      0.1581
    SETDIJ:  cpu time      1.4931: real time      1.4990
     EDDAV:  cpu time     22.1602: real time     22.3355
       DOS:  cpu time      0.0019: real time      0.0019
    CHARGE:  cpu time      1.2717: real time      1.2832
    MIXING:  cpu time      0.0053: real time      0.0053
    --------------------------------------------
      LOOP:  cpu time     25.0885: real time     25.2831

 eigenvalue-minimisations  : 11104
 total energy-change (2. order) :-0.2846371E-04  (-0.7861937E-05)
 number of electron     383.9999997 magnetization       1.0000000
 augmentation part      -63.4843935 magnetization      -0.1063340

 Broyden mixing:
  rms(total) = 0.13841E-02    rms(broyden)= 0.13841E-02
  rms(prec ) = 0.15254E-02
  weight for this iteration     100.00

 eigenvalues of (default mixing * dielectric matrix)
  average eigenvalue GAMMA=   1.0123
  2.0278  1.7344  1.3644  0.8360  0.8360  0.7253  0.5660  0.5481  0.4728

 Free energy of the ion-electron system (eV)
  ---------------------------------------------------
  alpha Z        PSCENC =       806.12556457
  Ewald energy   TEWEN  =    -10086.23071299
  -Hartree energ DENC   =     -1088.16614747
  -exchange      EXHF   =         0.00000000
  -V(xc)+E(xc)   XCENC  =      -694.55900884
  PAW double counting   =     21818.11959086   -20443.89017748
  entropy T*S    EENTRO =        -0.00268754
  eigenvalues    EBANDS =      -777.23682345
  atomic energy  EATOM  =     10079.60734648
  Solvation  Ediel_sol  =         0.00000000
  ---------------------------------------------------
  free energy    TOTEN  =      -386.23305586 eV

  energy without entropy =     -386.23036833  energy(sigma->0) =     -386.23171209


--------------------------------------------------------------------------------------------------------




--------------------------------------- Iteration      1(  15)  ---------------------------------------


    POTLOK:  cpu time      0.1573: real time      0.1584
    SETDIJ:  cpu time      1.4919: real time      1.4979
     EDDAV:  cpu time     21.1744: real time     21.3420
       DOS:  cpu time      0.0018: real time      0.0018
    CHARGE:  cpu time      1.2389: real time      1.2463
    MIXING:  cpu time      0.0051: real time      0.0051
    --------------------------------------------
      LOOP:  cpu time     24.0694: real time     24.2515

 eigenvalue-minimisations  : 10504
 total energy-change (2. order) :-0.5317990E-05  (-0.1991335E-05)
 number of electron     383.9999997 magnetization       1.0000000
 augmentation part      -63.4842716 magnetization      -0.1062983

 Broyden mixing:
  rms(total) = 0.80696E-03    rms(broyden)= 0.80689E-03
  rms(prec ) = 0.82606E-03
  weight for this iteration     100.00

 eigenvalues of (default mixing * dielectric matrix)
  average eigenvalue GAMMA=   1.0262
  2.0965  1.7561  1.6106  0.9376  0.9376  0.7268  0.6788  0.5237  0.5237  0.4711

 Free energy of the ion-electron system (eV)
  ---------------------------------------------------
  alpha Z        PSCENC =       806.12556457
  Ewald energy   TEWEN  =    -10086.23071299
  -Hartree energ DENC   =     -1088.18077959
  -exchange      EXHF   =         0.00000000
  -V(xc)+E(xc)   XCENC  =      -694.55701222
  PAW double counting   =     21819.06398637   -20444.83420189
  entropy T*S    EENTRO =        -0.00268669
  eigenvalues    EBANDS =      -777.22456522
  atomic energy  EATOM  =     10079.60734648
  Solvation  Ediel_sol  =         0.00000000
  ---------------------------------------------------
  free energy    TOTEN  =      -386.23306118 eV

  energy without entropy =     -386.23037449  energy(sigma->0) =     -386.23171784


--------------------------------------------------------------------------------------------------------




--------------------------------------- Iteration      1(  16)  ---------------------------------------


    POTLOK:  cpu time      0.1564: real time      0.1575
    SETDIJ:  cpu time      1.4932: real time      1.4994
     EDDAV:  cpu time     21.6679: real time     21.8680
       DOS:  cpu time      0.0020: real time      0.0020
    CHARGE:  cpu time      1.2397: real time      1.2467
    MIXING:  cpu time      0.0128: real time      0.0128
    --------------------------------------------
      LOOP:  cpu time     24.5719: real time     24.7865

 eigenvalue-minimisations  : 10800
 total energy-change (2. order) :-0.2556877E-05  (-0.4220606E-06)
 number of electron     383.9999997 magnetization       1.0000000
 augmentation part      -63.4841259 magnetization      -0.1063243

 Broyden mixing:
  rms(total) = 0.44211E-03    rms(broyden)= 0.44198E-03
  rms(prec ) = 0.50186E-03
  weight for this iteration     100.00

 eigenvalues of (default mixing * dielectric matrix)
  average eigenvalue GAMMA=   1.0539
  2.2230  1.8466  1.7345  1.1056  1.1056  0.7500  0.7500  0.5594  0.5594  0.4796
  0.4796

 Free energy of the ion-electron system (eV)
  ---------------------------------------------------
  alpha Z        PSCENC =       806.12556457
  Ewald energy   TEWEN  =    -10086.23071299
  -Hartree energ DENC   =     -1088.19657622
  -exchange      EXHF   =         0.00000000
  -V(xc)+E(xc)   XCENC  =      -694.55527868
  PAW double counting   =     21819.41741718   -20445.18730273
  entropy T*S    EENTRO =        -0.00268591
  eigenvalues    EBANDS =      -777.21083542
  atomic energy  EATOM  =     10079.60734648
  Solvation  Ediel_sol  =         0.00000000
  ---------------------------------------------------
  free energy    TOTEN  =      -386.23306374 eV

  energy without entropy =     -386.23037783  energy(sigma->0) =     -386.23172078


--------------------------------------------------------------------------------------------------------




--------------------------------------- Iteration      1(  17)  ---------------------------------------


    POTLOK:  cpu time      0.1562: real time      0.1574
    SETDIJ:  cpu time      1.4900: real time      1.4961
     EDDAV:  cpu time     21.4297: real time     21.6189
       DOS:  cpu time      0.0019: real time      0.0019
    CHARGE:  cpu time      1.2374: real time      1.2446
    MIXING:  cpu time      0.0058: real time      0.0058
    --------------------------------------------
      LOOP:  cpu time     24.3209: real time     24.5247

 eigenvalue-minimisations  : 10656
 total energy-change (2. order) :-0.8118150E-08  (-0.1083694E-06)
 number of electron     383.9999997 magnetization       1.0000000
 augmentation part      -63.4840660 magnetization      -0.1063203

 Broyden mixing:
  rms(total) = 0.25995E-03    rms(broyden)= 0.25973E-03
  rms(prec ) = 0.28172E-03
  weight for this iteration     100.00

 eigenvalues of (default mixing * dielectric matrix)
  average eigenvalue GAMMA=   1.0591
  2.2942  1.9738  1.7863  1.1956  1.1956  0.7992  0.7992  0.5938  0.5938  0.5196
  0.4866  0.4710

 Free energy of the ion-electron system (eV)
  ---------------------------------------------------
  alpha Z        PSCENC =       806.12556457
  Ewald energy   TEWEN  =    -10086.23071299
  -Hartree energ DENC   =     -1088.20663847
  -exchange      EXHF   =         0.00000000
  -V(xc)+E(xc)   XCENC  =      -694.55435903
  PAW double counting   =     21819.13141245   -20444.90091911
  entropy T*S    EENTRO =        -0.00268540
  eigenvalues    EBANDS =      -777.20207224
  atomic energy  EATOM  =     10079.60734648
  Solvation  Ediel_sol  =         0.00000000
  ---------------------------------------------------
  free energy    TOTEN  =      -386.23306375 eV

  energy without entropy =     -386.23037835  energy(sigma->0) =     -386.23172105


--------------------------------------------------------------------------------------------------------




--------------------------------------- Iteration      1(  18)  ---------------------------------------


    POTLOK:  cpu time      0.1557: real time      0.1567
    SETDIJ:  cpu time      1.4912: real time      1.4973
     EDDAV:  cpu time     18.2888: real time     18.4427
       DOS:  cpu time      0.0019: real time      0.0019
    CHARGE:  cpu time      1.2358: real time      1.2430
    MIXING:  cpu time      0.0067: real time      0.0067
    --------------------------------------------
      LOOP:  cpu time     21.1802: real time     21.3484

 eigenvalue-minimisations  :  8584
 total energy-change (2. order) : 0.2263951E-06  (-0.4254036E-07)
 number of electron     383.9999997 magnetization       1.0000000
 augmentation part      -63.4840645 magnetization      -0.1063148

 Broyden mixing:
  rms(total) = 0.13094E-03    rms(broyden)= 0.13050E-03
  rms(prec ) = 0.13506E-03
  weight for this iteration     100.00

 eigenvalues of (default mixing * dielectric matrix)
  average eigenvalue GAMMA=   1.0688
  2.3229  2.0974  1.7915  1.4258  0.9171  0.9171  0.8904  0.8904  0.5873  0.5873
  0.5099  0.4833  0.4740

 Free energy of the ion-electron system (eV)
  ---------------------------------------------------
  alpha Z        PSCENC =       806.12556457
  Ewald energy   TEWEN  =    -10086.23071299
  -Hartree energ DENC   =     -1088.20645715
  -exchange      EXHF   =         0.00000000
  -V(xc)+E(xc)   XCENC  =      -694.55434229
  PAW double counting   =     21818.92149818   -20444.69079453
  entropy T*S    EENTRO =        -0.00268529
  eigenvalues    EBANDS =      -777.20248049
  atomic energy  EATOM  =     10079.60734648
  Solvation  Ediel_sol  =         0.00000000
  ---------------------------------------------------
  free energy    TOTEN  =      -386.23306352 eV

  energy without entropy =     -386.23037823  energy(sigma->0) =     -386.23172088


--------------------------------------------------------------------------------------------------------




--------------------------------------- Iteration      1(  19)  ---------------------------------------


    POTLOK:  cpu time      0.1578: real time      0.1591
    SETDIJ:  cpu time      1.4942: real time      1.5002
     EDDAV:  cpu time     13.9766: real time     14.0878
       DOS:  cpu time      0.0023: real time      0.0023
    --------------------------------------------
      LOOP:  cpu time     15.6309: real time     15.7494

 eigenvalue-minimisations  :  5728
 total energy-change (2. order) : 0.1777153E-08  (-0.1272666E-07)
 number of electron     383.9999997 magnetization       1.0000000
 augmentation part      -63.4840645 magnetization      -0.1063148

 Free energy of the ion-electron system (eV)
  ---------------------------------------------------
  alpha Z        PSCENC =       806.12556457
  Ewald energy   TEWEN  =    -10086.23071299
  -Hartree energ DENC   =     -1088.20439194
  -exchange      EXHF   =         0.00000000
  -V(xc)+E(xc)   XCENC  =      -694.55445916
  PAW double counting   =     21818.87043596   -20444.63966471
  entropy T*S    EENTRO =        -0.00268518
  eigenvalues    EBANDS =      -777.20449653
  atomic energy  EATOM  =     10079.60734648
  Solvation  Ediel_sol  =         0.00000000
  ---------------------------------------------------
  free energy    TOTEN  =      -386.23306352 eV

  energy without entropy =     -386.23037834  energy(sigma->0) =     -386.23172093


--------------------------------------------------------------------------------------------------------




 average (electrostatic) potential at core
  the test charge radii are     1.1631
  (the norm of the test charge is              1.0000)
       1 -33.2176       2 -33.2538       3 -32.8231       4 -33.1243       5 -33.1206
       6 -33.2320       7 -33.2176       8 -33.2537       9 -32.8231      10 -33.1243
      11 -33.1205      12 -33.2320      13 -33.3475      14 -33.3757      15 -33.2825
      16 -33.0702      17 -33.2633      18 -33.2594      19 -33.3475      20 -33.3757
      21 -33.2825      22 -33.0702      23 -33.2634      24 -33.2594      25 -33.2176
      26 -33.2537      27 -32.8231      28 -33.1243      29 -33.1205      30 -33.2320
      31 -33.2176      32 -33.2537      33 -32.8231      34 -33.1243      35 -33.1206
      36 -33.2320      37 -33.3475      38 -33.3757      39 -33.2825      40 -33.0702
      41 -33.2633      42 -33.2594      43 -33.3476      44 -33.3756      45 -33.2825
      46 -33.0702      47 -33.2633      48 -33.2594      49 -33.3757      50 -33.3476
      51 -33.2594      52 -33.2633      53 -33.0702      54 -33.2825      55 -33.3756
      56 -33.3475      57 -33.2594      58 -33.2633      59 -33.0702      60 -33.2825
      61 -33.2537      62 -33.2175      63 -33.2320      64 -33.1205      65 -33.1243
[...]
   0.793E-01 -.485E-02 -.159E+02   -.251E+00 -.203E+00 0.154E+02   0.145E+00 0.869E-01 0.540E+00   0.351E-04 0.219E-04 0.778E-04
   -.169E+02 -.187E+02 0.150E+01   0.168E+02 0.187E+02 -.208E+01   0.429E+00 0.587E+00 0.112E+00   -.522E-04 -.364E-04 0.492E-04
   0.325E+02 0.249E+02 -.551E+00   -.331E+02 -.246E+02 0.842E+00   0.275E+00 -.287E+00 0.580E-01   0.245E-04 0.244E-04 0.745E-05
   0.233E+02 0.369E+02 -.412E+01   -.233E+02 -.380E+02 0.454E+01   0.719E+00 -.284E+01 0.157E+01   -.707E-04 -.716E-04 0.231E-04
   0.762E+01 0.640E+01 0.324E+02   -.833E+01 -.712E+01 -.340E+02   0.217E+00 0.363E+00 0.738E+00   -.124E-04 -.122E-04 0.382E-05
   -.570E+01 -.406E+01 -.774E+01   0.560E+01 0.399E+01 0.713E+01   0.324E+00 0.160E+00 0.942E+00   0.444E-04 0.418E-04 0.703E-04
   -.573E+01 -.405E+01 -.919E+01   0.560E+01 0.399E+01 0.900E+01   0.222E+00 0.216E+00 0.224E+00   -.403E-04 -.316E-04 0.648E-04
   0.750E+01 0.328E+01 0.309E+02   -.778E+01 -.319E+01 -.319E+02   0.208E+00 0.270E+00 -.214E+00   -.200E-04 -.158E-04 0.571E-04
   0.325E+02 0.249E+02 -.551E+00   -.331E+02 -.246E+02 0.842E+00   0.275E+00 -.287E+00 0.580E-01   0.315E-04 0.261E-04 0.660E-05
   0.233E+02 0.369E+02 -.412E+01   -.233E+02 -.380E+02 0.454E+01   0.719E+00 -.284E+01 0.157E+01   -.670E-04 -.781E-04 0.242E-04
   0.762E+01 0.640E+01 0.324E+02   -.833E+01 -.712E+01 -.340E+02   0.217E+00 0.363E+00 0.738E+00   -.718E-05 -.757E-05 0.404E-05
   -.570E+01 -.406E+01 -.774E+01   0.560E+01 0.399E+01 0.713E+01   0.324E+00 0.160E+00 0.942E+00   0.510E-04 0.416E-04 0.721E-04
   -.573E+01 -.405E+01 -.919E+01   0.560E+01 0.399E+01 0.900E+01   0.222E+00 0.216E+00 0.224E+00   -.329E-04 -.387E-04 0.675E-04
   0.750E+01 0.328E+01 0.309E+02   -.778E+01 -.319E+01 -.319E+02   0.208E+00 0.270E+00 -.214E+00   -.124E-04 -.134E-04 0.573E-04
   0.146E+02 0.143E+02 0.202E+02   -.154E+02 -.155E+02 -.218E+02   0.185E+00 0.314E+00 -.422E+00   0.321E-04 0.299E-04 0.382E-05
   -.262E+02 -.206E+01 -.250E+02   0.273E+02 0.655E+00 0.265E+02   0.941E+00 -.170E+01 0.221E+01   0.528E-04 0.282E-04 0.482E-04
   0.197E+02 0.131E+02 -.508E+01   -.196E+02 -.141E+02 0.594E+01   -.674E+00 0.850E+00 0.173E+00   -.848E-04 -.529E-04 0.442E-04
   0.470E+00 0.510E+00 0.156E+02   -.251E+00 -.203E+00 -.162E+02   -.163E+00 -.179E+00 0.213E+00   0.246E-04 0.249E-04 0.517E-04
   0.794E-01 -.472E-02 -.159E+02   -.251E+00 -.203E+00 0.154E+02   0.145E+00 0.869E-01 0.540E+00   0.301E-04 0.238E-04 0.768E-04
   -.169E+02 -.187E+02 0.150E+01   0.168E+02 0.187E+02 -.208E+01   0.429E+00 0.587E+00 0.112E+00   -.574E-04 -.322E-04 0.477E-04
   0.146E+02 0.143E+02 0.202E+02   -.154E+02 -.155E+02 -.218E+02   0.185E+00 0.314E+00 -.422E+00   0.377E-04 0.307E-04 0.636E-05
   -.262E+02 -.206E+01 -.250E+02   0.273E+02 0.654E+00 0.265E+02   0.941E+00 -.170E+01 0.221E+01   0.598E-04 0.275E-04 0.507E-04
   0.197E+02 0.131E+02 -.508E+01   -.196E+02 -.141E+02 0.594E+01   -.674E+00 0.850E+00 0.173E+00   -.768E-04 -.611E-04 0.460E-04
   0.470E+00 0.510E+00 0.156E+02   -.251E+00 -.203E+00 -.162E+02   -.163E+00 -.179E+00 0.213E+00   0.331E-04 0.266E-04 0.511E-04
   0.793E-01 -.477E-02 -.159E+02   -.251E+00 -.203E+00 0.154E+02   0.145E+00 0.869E-01 0.540E+00   0.383E-04 0.249E-04 0.772E-04
   -.169E+02 -.187E+02 0.150E+01   0.168E+02 0.187E+02 -.208E+01   0.429E+00 0.587E+00 0.112E+00   -.504E-04 -.397E-04 0.506E-04
   0.262E+02 0.206E+01 0.250E+02   -.273E+02 -.654E+00 -.265E+02   -.941E+00 0.170E+01 -.221E+01   -.569E-04 -.276E-04 -.394E-04
   -.146E+02 -.143E+02 -.202E+02   0.154E+02 0.155E+02 0.218E+02   -.185E+00 -.314E+00 0.422E+00   -.336E-04 -.339E-04 -.143E-04
   0.169E+02 0.187E+02 -.150E+01   -.168E+02 -.187E+02 0.208E+01   -.429E+00 -.587E+00 -.112E+00   0.519E-04 0.339E-04 -.558E-04
   -.794E-01 0.479E-02 0.159E+02   0.251E+00 0.203E+00 -.154E+02   -.145E+00 -.869E-01 -.540E+00   -.336E-04 -.259E-04 -.799E-04
   -.470E+00 -.510E+00 -.156E+02   0.251E+00 0.203E+00 0.162E+02   0.163E+00 0.179E+00 -.213E+00   -.278E-04 -.283E-04 -.496E-04
   -.197E+02 -.131E+02 0.508E+01   0.196E+02 0.141E+02 -.594E+01   0.674E+00 -.850E+00 -.173E+00   0.792E-04 0.562E-04 -.386E-04
   0.262E+02 0.206E+01 0.250E+02   -.273E+02 -.654E+00 -.265E+02   -.941E+00 0.170E+01 -.221E+01   -.536E-04 -.273E-04 -.401E-04
   -.146E+02 -.143E+02 -.202E+02   0.154E+02 0.155E+02 0.218E+02   -.185E+00 -.314E+00 0.422E+00   -.378E-04 -.276E-04 -.160E-04
   0.169E+02 0.187E+02 -.150E+01   -.168E+02 -.187E+02 0.208E+01   -.429E+00 -.587E+00 -.112E+00   0.563E-04 0.377E-04 -.567E-04
   -.795E-01 0.472E-02 0.159E+02   0.251E+00 0.203E+00 -.154E+02   -.145E+00 -.869E-01 -.540E+00   -.332E-04 -.218E-04 -.790E-04
   -.470E+00 -.510E+00 -.156E+02   0.251E+00 0.203E+00 0.162E+02   0.163E+00 0.179E+00 -.213E+00   -.319E-04 -.241E-04 -.477E-04
   -.197E+02 -.131E+02 0.508E+01   0.196E+02 0.141E+02 -.594E+01   0.674E+00 -.850E+00 -.173E+00   0.824E-04 0.580E-04 -.371E-04
   -.233E+02 -.369E+02 0.412E+01   0.233E+02 0.380E+02 -.454E+01   -.719E+00 0.284E+01 -.157E+01   0.698E-04 0.729E-04 -.131E-04
   -.325E+02 -.249E+02 0.551E+00   0.331E+02 0.246E+02 -.842E+00   -.275E+00 0.287E+00 -.580E-01   -.275E-04 -.249E-04 -.166E-04
   -.750E+01 -.328E+01 -.309E+02   0.778E+01 0.319E+01 0.319E+02   -.208E+00 -.270E+00 0.214E+00   0.128E-04 0.141E-04 -.647E-04
   0.573E+01 0.405E+01 0.919E+01   -.560E+01 -.399E+01 -.900E+01   -.222E+00 -.216E+00 -.224E+00   0.384E-04 0.344E-04 -.696E-04
   0.570E+01 0.406E+01 0.774E+01   -.560E+01 -.399E+01 -.713E+01   -.324E+00 -.160E+00 -.942E+00   -.462E-04 -.433E-04 -.694E-04
   -.762E+01 -.640E+01 -.324E+02   0.833E+01 0.712E+01 0.340E+02   -.217E+00 -.363E+00 -.738E+00   0.640E-05 0.753E-05 0.316E-05
   -.233E+02 -.369E+02 0.412E+01   0.233E+02 0.380E+02 -.454E+01   -.719E+00 0.284E+01 -.157E+01   0.686E-04 0.781E-04 -.150E-04
   -.325E+02 -.249E+02 0.551E+00   0.331E+02 0.246E+02 -.842E+00   -.275E+00 0.287E+00 -.580E-01   -.275E-04 -.253E-04 -.175E-04
   -.750E+01 -.328E+01 -.309E+02   0.778E+01 0.319E+01 0.319E+02   -.208E+00 -.270E+00 0.214E+00   0.175E-04 0.142E-04 -.639E-04
   0.573E+01 0.405E+01 0.919E+01   -.560E+01 -.399E+01 -.900E+01   -.222E+00 -.216E+00 -.224E+00   0.356E-04 0.370E-04 -.674E-04
   0.570E+01 0.406E+01 0.774E+01   -.560E+01 -.399E+01 -.713E+01   -.324E+00 -.160E+00 -.942E+00   -.481E-04 -.398E-04 -.674E-04
   -.762E+01 -.640E+01 -.324E+02   0.833E+01 0.712E+01 0.340E+02   -.217E+00 -.363E+00 -.738E+00   0.114E-04 0.105E-04 0.336E-05
   0.262E+02 0.206E+01 0.250E+02   -.273E+02 -.654E+00 -.265E+02   -.941E+00 0.170E+01 -.221E+01   -.530E-04 -.317E-04 -.396E-04
   -.146E+02 -.143E+02 -.202E+02   0.154E+02 0.155E+02 0.218E+02   -.185E+00 -.314E+00 0.422E+00   -.379E-04 -.327E-04 -.150E-04
   0.169E+02 0.187E+02 -.150E+01   -.168E+02 -.187E+02 0.208E+01   -.429E+00 -.587E+00 -.112E+00   0.528E-04 0.332E-04 -.575E-04
   -.795E-01 0.480E-02 0.159E+02   0.251E+00 0.203E+00 -.154E+02   -.145E+00 -.869E-01 -.540E+00   -.311E-04 -.280E-04 -.811E-04
   -.470E+00 -.510E+00 -.156E+02   0.251E+00 0.203E+00 0.162E+02   0.163E+00 0.179E+00 -.213E+00   -.303E-04 -.301E-04 -.498E-04
   -.197E+02 -.131E+02 0.508E+01   0.196E+02 0.141E+02 -.594E+01   0.674E+00 -.850E+00 -.173E+00   0.787E-04 0.537E-04 -.380E-04
   0.262E+02 0.206E+01 0.250E+02   -.273E+02 -.655E+00 -.265E+02   -.941E+00 0.170E+01 -.221E+01   -.580E-04 -.225E-04 -.399E-04
   -.146E+02 -.143E+02 -.202E+02   0.154E+02 0.155E+02 0.218E+02   -.185E+00 -.314E+00 0.422E+00   -.337E-04 -.287E-04 -.152E-04
   0.169E+02 0.187E+02 -.150E+01   -.168E+02 -.187E+02 0.208E+01   -.429E+00 -.587E+00 -.112E+00   0.550E-04 0.389E-04 -.549E-04
   -.795E-01 0.478E-02 0.159E+02   0.251E+00 0.203E+00 -.154E+02   -.145E+00 -.869E-01 -.540E+00   -.354E-04 -.200E-04 -.779E-04
   -.470E+00 -.511E+00 -.156E+02   0.251E+00 0.203E+00 0.162E+02   0.163E+00 0.179E+00 -.213E+00   -.289E-04 -.228E-04 -.475E-04
   -.197E+02 -.131E+02 0.508E+01   0.196E+02 0.141E+02 -.594E+01   0.674E+00 -.850E+00 -.173E+00   0.826E-04 0.609E-04 -.377E-04
   -.233E+02 -.369E+02 0.412E+01   0.233E+02 0.380E+02 -.454E+01   -.719E+00 0.284E+01 -.157E+01   0.664E-04 0.726E-04 -.145E-04
   -.325E+02 -.249E+02 0.551E+00   0.331E+02 0.246E+02 -.842E+00   -.275E+00 0.287E+00 -.580E-01   -.246E-04 -.294E-04 -.174E-04
   -.750E+01 -.328E+01 -.309E+02   0.778E+01 0.319E+01 0.319E+02   -.208E+00 -.270E+00 0.214E+00   0.147E-04 0.101E-04 -.642E-04
   0.573E+01 0.405E+01 0.919E+01   -.560E+01 -.399E+01 -.900E+01   -.222E+00 -.216E+00 -.224E+00   0.352E-04 0.322E-04 -.691E-04
   0.570E+01 0.406E+01 0.774E+01   -.560E+01 -.399E+01 -.713E+01   -.324E+00 -.160E+00 -.942E+00   -.454E-04 -.456E-04 -.696E-04
   -.762E+01 -.640E+01 -.324E+02   0.833E+01 0.712E+01 0.340E+02   -.217E+00 -.363E+00 -.738E+00   0.929E-05 0.518E-05 0.172E-05
   -.233E+02 -.369E+02 0.412E+01   0.233E+02 0.380E+02 -.454E+01   -.719E+00 0.284E+01 -.157E+01   0.724E-04 0.779E-04 -.135E-04
   -.325E+02 -.249E+02 0.551E+00   0.331E+02 0.246E+02 -.842E+00   -.275E+00 0.287E+00 -.580E-01   -.304E-04 -.210E-04 -.168E-04
   -.750E+01 -.328E+01 -.309E+02   0.778E+01 0.319E+01 0.319E+02   -.208E+00 -.270E+00 0.214E+00   0.162E-04 0.175E-04 -.645E-04
   0.573E+01 0.405E+01 0.919E+01   -.560E+01 -.399E+01 -.900E+01   -.222E+00 -.216E+00 -.224E+00   0.386E-04 0.394E-04 -.679E-04
   0.570E+01 0.406E+01 0.774E+01   -.560E+01 -.399E+01 -.713E+01   -.324E+00 -.160E+00 -.942E+00   -.493E-04 -.370E-04 -.671E-04
   -.762E+01 -.640E+01 -.324E+02   0.833E+01 0.712E+01 0.340E+02   -.217E+00 -.363E+00 -.738E+00   0.875E-05 0.126E-04 0.483E-05
 -----------------------------------------------------------------------------------------------
   -.661E-02 -.182E-02 0.276E-03   0.622E-13 0.163E-12 0.398E-12   -.175E-14 -.616E-14 -.422E-14   0.525E-06 0.435E-06 0.251E-06
 
 
 POSITION                                       TOTAL-FORCE (eV/Angst)
 -----------------------------------------------------------------------------------
     11.16112      6.07136      5.77447        -0.379462      0.035025      0.349330
     14.95649     11.75269      0.00000         0.690222     -3.929028      1.992339
     13.69137      8.13730      1.15489        -0.497024     -0.355096     -0.844954
     12.42624      4.52191      2.30979         0.217825      0.093708      0.338784
     11.16112      0.90652      3.46468         0.089929      0.156607      0.031563
     12.42624      9.68675      4.61958        -0.073328      0.355764     -1.231892
      6.10063     12.26917      5.77447        -0.379462      0.035025      0.349330
      7.36576      5.55488      0.00000         0.690222     -3.929028      1.992339
      6.10063      1.93949      1.15489        -0.497024     -0.355096     -0.844954
      7.36575     10.71972      2.30979         0.217825      0.093708      0.338784
      6.10063      7.10433      3.46468         0.089929      0.156607      0.031563
      4.83551      3.48894      4.61958        -0.073328      0.355764     -1.231892
      2.93782      4.52191      5.77447        -0.626133     -0.833787     -2.009390
      6.73320     10.20324      0.00000         1.987233     -3.111399      3.748000
      5.46807      6.58785      1.15489        -0.615397     -0.152465      1.029968
      4.20295      2.97246      2.30979         0.056339      0.128850     -0.410269
      5.46807     11.75269      3.46468        -0.026916     -0.120776      0.026295
      4.20295      8.13730      4.61958         0.336825      0.566602     -0.471850
     10.52856     10.71972      5.77447        -0.626133     -0.833787     -2.009390
     11.79369      4.00543      0.00000         1.987233     -3.111399      3.748000
     10.52856      0.39004      1.15489        -0.615397     -0.152465      1.029968
     11.79368      9.17027      2.30979         0.056339      0.128850     -0.410269
     10.52856      5.55488      3.46468        -0.026916     -0.120776      0.026295
      9.26344      1.93949      4.61958         0.336825      0.566602     -0.471850
      1.04014      2.97245      5.77447        -0.379462      0.035025      0.349330
      4.83551      8.65379      0.00000         0.690222     -3.929028      1.992339
      3.57039      5.03840      1.15489        -0.497024     -0.355096     -0.844954
      2.30526      1.42300      2.30979         0.217825      0.093708      0.338784
      3.57039     10.20324      3.46468         0.089929      0.156607      0.031563
      2.30526      6.58784      4.61958        -0.073328      0.355764     -1.231892
      8.63087      9.17026      5.77447        -0.379462      0.035025      0.349330
      9.89600      2.45598      0.00000         0.690222     -3.929028      1.992339
     11.16112     11.23620      1.15489        -0.497024     -0.355096     -0.844954
      9.89600      7.62081      2.30979         0.217825      0.093708      0.338784
      8.63088      4.00543      3.46468         0.089929      0.156607      0.031563
      7.36575      0.39003      4.61958        -0.073328      0.355764     -1.231892
     13.05880      7.62081      5.77447        -0.626133     -0.833787     -2.009390
      1.67271      0.90652      0.00000         1.987233     -3.111399      3.748000
      2.93783      9.68675      1.15489        -0.615397     -0.152465      1.029968
      1.67270      6.07136      2.30979         0.056339      0.128850     -0.410269
     13.05880      2.45597      3.46468        -0.026916     -0.120776      0.026295
     14.32393     11.23620      4.61958         0.336825      0.566602     -0.471850
      5.46807      1.42300      5.77447        -0.626133     -0.833787     -2.009390
      9.26344      7.10433      0.00000         1.987233     -3.111399      3.748000
      7.99832      3.48894      1.15489        -0.615397     -0.152465      1.029968
      9.26344     12.26917      2.30979         0.056339      0.128850     -0.410269
      7.99832      8.65378      3.46468        -0.026916     -0.120776      0.026295
      6.73319      5.03839      4.61958         0.336825      0.566602     -0.471850
     11.93612      1.06409     12.74143        -1.987233      3.111399     -3.748000
      5.61051      3.64651      6.96696         0.626133      0.833787      2.009390
      1.81514      3.13003      8.12185        -0.336825     -0.566602      0.471850
     10.67100      2.61354      9.27675         0.026916      0.120776     -0.026295
      6.87563      2.09706     10.43164        -0.056339     -0.128850      0.410269
      3.08026      1.58057     11.58653         0.615397      0.152465     -1.029968
      6.87563      7.26190     12.74143        -1.987233      3.111399     -3.748000
     13.20125      9.84432      6.96696         0.626133      0.833787      2.009390
      9.40588      9.32784      8.12185        -0.336825     -0.566602      0.471850
      5.61051      8.81136      9.27675         0.026916      0.120776     -0.026295
      1.81514      8.29487     10.43164        -0.056339     -0.128850      0.410269
     10.67100      7.77838     11.58653         0.615397      0.152465     -1.029968
     11.30356      5.71245     12.74143        -0.690222      3.929028     -1.992339
      4.97796      8.29487      6.96696         0.379462     -0.035025     -0.349330
     13.83381      7.77839      8.12185         0.073328     -0.355764      1.231892
     10.03844      7.26190      9.27675        -0.089929     -0.156607     -0.031563
      6.24307      6.74542     10.43164        -0.217825     -0.093708     -0.338784
      2.44771      6.22893     11.58653         0.497024      0.355096      0.844954
      6.24307     11.91026     12.74143        -0.690222      3.929028     -1.992339
     10.03845      2.09706      6.96696         0.379462     -0.035025     -0.349330
      6.24308      1.58058      8.12185         0.073328     -0.355764      1.231892
      2.44771      1.06409      9.27675        -0.089929     -0.156607     -0.031563
     11.30356      0.54761     10.43164        -0.217825     -0.093708     -0.338784
      7.50819      0.03112     11.58653         0.497024      0.355096      0.844954
      9.40588      4.16299     12.74143        -1.987233      3.111399     -3.748000
      3.08027      6.74542      6.96696         0.626133      0.833787      2.009390
     11.93613      6.22893      8.12185        -0.336825     -0.566602      0.471850
      8.14076      5.71245      9.27675         0.026916      0.120776     -0.026295
      4.34539      5.19596     10.43164        -0.056339     -0.128850      0.410269
     13.20125      4.67948     11.58653         0.615397      0.152465     -1.029968
      4.34539     10.36081     12.74143        -1.987233      3.111399     -3.748000
      8.14076      0.54761      6.96696         0.626133      0.833787      2.009390
      4.34539      0.03113      8.12185        -0.336825     -0.566602      0.471850
      3.08027     11.91026      9.27675         0.026916      0.120776     -0.026295
     11.93612     11.39378     10.43164        -0.056339     -0.128850      0.410269
      8.14075     10.87729     11.58653         0.615397      0.152465     -1.029968
      1.18258      2.61354     12.74143        -0.690222      3.929028     -1.992339
      7.50820      5.19597      6.96696         0.379462     -0.035025     -0.349330
      3.71283      4.67948      8.12185         0.073328     -0.355764      1.231892
     12.56869      4.16300      9.27675        -0.089929     -0.156607     -0.031563
      8.77332      3.64651     10.43164        -0.217825     -0.093708     -0.338784
      4.97795      3.13003     11.58653         0.497024      0.355096      0.844954
      8.77332      8.81135     12.74143        -0.690222      3.929028     -1.992339
      2.44771     11.39378      6.96696         0.379462     -0.035025     -0.349330
     11.30357     10.87729      8.12185         0.073328     -0.355764      1.231892
      7.50820     10.36081      9.27675        -0.089929     -0.156607     -0.031563
      3.71283      9.84432     10.43164        -0.217825     -0.093708     -0.338784
     12.56868      9.32784     11.58653         0.497024      0.355096      0.844954
 -----------------------------------------------------------------------------------
    total drift:                               -0.006614     -0.001816      0.000277


--------------------------------------------------------------------------------------------------------



  FREE ENERGIE OF THE ION-ELECTRON SYSTEM (eV)
  ---------------------------------------------------
  free  energy   TOTEN  =      -386.23306352 eV

  energy  without entropy=     -386.23037834  energy(sigma->0) =     -386.23172093
 


--------------------------------------------------------------------------------------------------------


    POTLOK:  cpu time      1.6447: real time      1.6517


--------------------------------------------------------------------------------------------------------


     LOOP+:  cpu time    477.9926: real time    482.7153
    4ORBIT:  cpu time      0.0000: real time      0.0000

 total amount of memory used by VASP MPI-rank0   168804. kBytes
=======================================================================

   base      :      30000. kBytes
   nonlr-proj:       5847. kBytes
   fftplans  :      14311. kBytes
   grid      :      10233. kBytes
   one-center:         97. kBytes
   wavefun   :     108316. kBytes
 
  
  
 General timing and accounting informations for this job:
 ========================================================
  
                  Total CPU time used (sec):      529.520
                            User time (sec):      494.767
                          System time (sec):       34.753
                         Elapsed time (sec):      535.701
  
                   Maximum memory used (kb):      429640.
                   Average memory used (kb):          N/A
  
                          Minor page faults:       109407
                          Major page faults:           33
                 Voluntary context switches:         1431
