 120 120   0   0
  0.1318225E+02  0.1330318E-08  0.1629300E-08  0.7994753E-09  0.5000000E-15
  1.000000000000000E-004
  CAR 
 Si and Ge interface calculation         
      7.70495904    -14.87388825  301      4.33896024      1.00000000
    -14.874  0.0000E+00  0.0000E+00  0.0000E+00  0.0000E+00
    -14.799  0.0000E+00  0.0000E+00  0.0000E+00  0.0000E+00
    -14.723  0.0000E+00  0.0000E+00  0.0000E+00  0.0000E+00
    -14.648  0.0000E+00  0.0000E+00  0.0000E+00  0.0000E+00
    -14.573  0.0000E+00  0.0000E+00  0.0000E+00  0.0000E+00
    -14.498  0.0000E+00  0.0000E+00  0.0000E+00  0.0000E+00
    -14.422  0.0000E+00  0.0000E+00  0.0000E+00  0.0000E+00
    -14.347  0.0000E+00  0.0000E+00  0.0000E+00  0.0000E+00
    -14.272  0.0000E+00  0.0000E+00  0.0000E+00  0.0000E+00
    -14.197  0.0000E+00  0.0000E+00  0.0000E+00  0.0000E+00
    -14.121  0.0000E+00  0.0000E+00  0.0000E+00  0.0000E+00
    -14.046  0.0000E+00  0.0000E+00  0.0000E+00  0.0000E+00
    -13.971  0.0000E+00  0.0000E+00  0.0000E+00  0.0000E+00
    -13.895  0.1610E-10  0.9220E-15  0.1212E-11  0.6939E-16
    -13.820  0.4429E+01  0.4401E+01  0.3333E+00  0.3312E+00
    -13.745  0.1304E+02  0.1028E+02  0.1315E+01  0.1107E+01
    -13.670  0.1259E+02  0.1622E+02  0.2333E+01  0.2333E+01
    -13.594  0.1504E+01  0.1176E+00  0.2447E+01  0.2342E+01
    -13.519  0.2507E+02  0.2643E+02  0.4333E+01  0.4331E+01
    -13.444  0.8847E+01  0.8496E+01  0.4999E+01  0.4973E+01
    -13.369  0.1329E+02  0.1327E+02  0.6000E+01  0.5999E+01
    -13.293  0.8916E+01  0.8857E+01  0.6671E+01  0.6667E+01
    -13.218  0.1774E+02  0.1772E+02  0.8006E+01  0.8000E+01
    -13.143  0.6428E+01  0.4538E+01  0.8490E+01  0.8342E+01
    -13.068  0.1564E+02  0.1761E+02  0.9667E+01  0.9667E+01
    -12.992  0.1317E+02  0.9665E+01  0.1066E+02  0.1039E+02
    -12.917  0.8977E+01  0.1245E+02  0.1133E+02  0.1133E+02
    -12.842  0.1983E+02  0.1177E+02  0.1283E+02  0.1222E+02
    -12.767  0.2368E+02  0.2949E+02  0.1461E+02  0.1444E+02
    -12.691  0.4398E+01  0.6658E+01  0.1500E+02  0.1496E+02
    -12.616  0.2213E+02  0.2165E+02  0.1667E+02  0.1663E+02
    -12.541  0.4428E+01  0.8025E+00  0.1700E+02  0.1673E+02
    -12.465  0.1327E+02  0.1652E+02  0.1800E+02  0.1797E+02
    -12.390  0.8859E+01  0.8858E+01  0.1867E+02  0.1867E+02
    -12.315  0.1771E+02  0.1748E+02  0.2000E+02  0.1998E+02
    -12.240  0.2211E+02  0.1853E+02  0.2166E+02  0.2139E+02
    -12.164  0.7803E+01  0.9448E+01  0.2228E+02  0.2214E+02
    -12.089  0.9293E+01  0.1080E+02  0.2303E+02  0.2296E+02
    -12.014  0.1427E+02  0.1342E+02  0.2411E+02  0.2401E+02
    -11.939  0.7418E+01  0.8466E+01  0.2467E+02  0.2465E+02
    -11.863  0.2494E+01  0.5593E+00  0.2485E+02  0.2471E+02
    -11.788  0.6363E+01  0.8299E+01  0.2533E+02  0.2533E+02
    -11.713  0.1498E+02  0.6948E+01  0.2646E+02  0.2586E+02
    -11.638  0.1808E+02  0.2848E+02  0.2800E+02  0.2800E+02
    -11.562  0.0000E+00  0.0000E+00  0.2800E+02  0.2800E+02
    -11.487  0.1376E-12  0.0000E+00  0.2800E+02  0.2800E+02
    -11.412  0.4425E+01  0.4288E+01  0.2833E+02  0.2832E+02
    -11.337  0.8852E+01  0.8627E+01  0.2900E+02  0.2898E+02
    -11.261  0.1139E-06  0.5988E-10  0.2900E+02  0.2900E+02
    -11.186  0.8858E+01  0.8857E+01  0.2967E+02  0.2967E+02
    -11.111  0.3445E+01  0.9847E+00  0.2993E+02  0.2974E+02
    -11.035  0.3655E+02  0.3384E+02  0.3275E+02  0.3229E+02
    -10.960  0.2525E+02  0.2925E+02  0.3474E+02  0.3453E+02
    -10.885  0.2439E+02  0.2191E+02  0.3660E+02  0.3622E+02
    -10.810  0.5766E+01  0.9883E+01  0.3706E+02  0.3700E+02
    -10.734  0.1495E+02  0.1153E+02  0.3819E+02  0.3787E+02
    -10.659  0.8858E+01  0.1499E+02  0.3900E+02  0.3900E+02
    -10.584  0.8862E+01  0.8782E+01  0.3967E+02  0.3966E+02
    -10.509  0.4424E+01  0.4429E+01  0.4000E+02  0.4000E+02
    -10.433  0.1700E+02  0.1283E+02  0.4128E+02  0.4097E+02
    -10.358  0.1295E+02  0.1817E+02  0.4233E+02  0.4233E+02
    -10.283  0.8837E+01  0.8262E+01  0.4300E+02  0.4296E+02
    -10.208  0.8851E+01  0.8858E+01  0.4367E+02  0.4367E+02
    -10.132  0.1196E-11  0.0000E+00  0.4367E+02  0.4367E+02
    -10.057  0.9621E+01  0.8784E+01  0.4439E+02  0.4433E+02
     -9.982  0.1409E+02  0.1332E+02  0.4545E+02  0.4534E+02
     -9.907  0.1623E+02  0.1763E+02  0.4667E+02  0.4667E+02
     -9.831  0.1320E+02  0.1328E+02  0.4767E+02  0.4767E+02
     -9.756  0.2208E+02  0.2062E+02  0.4933E+02  0.4922E+02
     -9.681  0.9732E+01  0.8723E+01  0.5007E+02  0.4999E+02
     -9.605  0.1283E+02  0.1316E+02  0.5103E+02  0.5099E+02
     -9.530  0.1717E+02  0.1640E+02  0.5232E+02  0.5223E+02
     -9.455  0.2603E+02  0.2261E+02  0.5429E+02  0.5394E+02
     -9.380  0.1326E+02  0.1803E+02  0.5533E+02  0.5533E+02
     -9.304  0.1770E+02  0.6033E+01  0.5667E+02  0.5579E+02
     -9.229  0.2966E+02  0.4268E+02  0.5900E+02  0.5900E+02
     -9.154  0.1209E+02  0.8528E+01  0.5991E+02  0.5964E+02
     -9.079  0.2793E+02  0.2895E+02  0.6203E+02  0.6187E+02
     -9.003  0.3258E+02  0.2758E+02  0.6449E+02  0.6401E+02
     -8.928  0.8539E+01  0.9538E+01  0.6521E+02  0.6477E+02
     -8.853  0.1876E+02  0.2450E+02  0.6667E+02  0.6661E+02
     -8.778  0.1961E+02  0.1509E+02  0.6814E+02  0.6780E+02
     -8.702  0.9775E+01  0.1131E+02  0.6894E+02  0.6868E+02
     -8.627  0.1488E+02  0.1320E+02  0.7008E+02  0.6971E+02
     -8.552  0.1595E+02  0.1908E+02  0.7131E+02  0.7117E+02
     -8.477  0.2660E+02  0.2850E+02  0.7334E+02  0.7332E+02
     -8.401  0.1746E+02  0.1520E+02  0.7465E+02  0.7448E+02
     -8.326  0.2141E+02  0.1572E+02  0.7628E+02  0.7573E+02
     -8.251  0.1842E+02  0.2472E+02  0.7768E+02  0.7767E+02
     -8.175  0.1355E+02  0.1328E+02  0.7870E+02  0.7867E+02
     -8.100  0.1694E+02  0.1664E+02  0.7998E+02  0.7992E+02
     -8.025  0.1703E+02  0.1312E+02  0.8128E+02  0.8093E+02
     -7.950  0.4207E+01  0.7467E+01  0.8165E+02  0.8149E+02
     -7.874  0.9352E-09  0.2290E+01  0.8167E+02  0.8167E+02
     -7.799  0.4445E+01  0.4173E+01  0.8200E+02  0.8198E+02
     -7.724  0.1269E+02  0.9983E+01  0.8296E+02  0.8275E+02
     -7.649  0.0000E+00  0.2852E+01  0.8300E+02  0.8300E+02
     -7.573  0.2281E-10  0.4917E-15  0.8300E+02  0.8300E+02
     -7.498  0.1263E+02  0.1005E+02  0.8395E+02  0.8376E+02
     -7.423  0.0000E+00  0.3189E+01  0.8400E+02  0.8400E+02
     -7.348  0.4526E-02  0.8170E-04  0.8400E+02  0.8400E+02
     -7.272  0.4521E+01  0.4431E+01  0.8434E+02  0.8433E+02
     -7.197  0.1340E+02  0.1329E+02  0.8535E+02  0.8533E+02
     -7.122  0.1308E+02  0.1328E+02  0.8633E+02  0.8633E+02
     -7.047  0.5828E+01  0.4709E+01  0.8677E+02  0.8669E+02
     -6.971  0.1055E+02  0.1031E+02  0.8757E+02  0.8746E+02
     -6.896  0.9570E+01  0.8637E+01  0.8829E+02  0.8811E+02
     -6.821  0.4777E+01  0.7335E+01  0.8867E+02  0.8867E+02
     -6.746  0.1216E+02  0.8824E+01  0.8958E+02  0.8933E+02
     -6.670  0.4990E+01  0.8485E+01  0.9000E+02  0.9000E+02
     -6.595  0.1325E+02  0.1073E+02  0.9100E+02  0.9081E+02
     -6.520  0.1112E+02  0.1233E+02  0.9188E+02  0.9178E+02
     -6.444  0.1316E+02  0.1392E+02  0.9287E+02  0.9283E+02
     -6.369  0.1555E+02  0.1137E+02  0.9404E+02  0.9369E+02
     -6.294  0.3938E+02  0.4044E+02  0.9704E+02  0.9675E+02
     -6.219  0.2831E+02  0.2947E+02  0.9919E+02  0.9898E+02
     -6.143  0.3038E+02  0.3074E+02  0.1015E+03  0.1013E+03
     -6.068  0.2718E+02  0.2681E+02  0.1036E+03  0.1034E+03
     -5.993  0.2098E+02  0.1942E+02  0.1052E+03  0.1049E+03
     -5.918  0.2963E+02  0.3050E+02  0.1074E+03  0.1072E+03
     -5.842  0.2211E+02  0.2254E+02  0.1091E+03  0.1089E+03
     -5.767  0.2465E+02  0.2469E+02  0.1110E+03  0.1109E+03
     -5.692  0.2993E+02  0.2596E+02  0.1132E+03  0.1128E+03
     -5.617  0.2387E+02  0.2825E+02  0.1151E+03  0.1150E+03
     -5.541  0.2948E+02  0.2845E+02  0.1174E+03  0.1171E+03
     -5.466  0.2419E+02  0.2539E+02  0.1192E+03  0.1190E+03
     -5.391  0.3315E+02  0.3156E+02  0.1218E+03  0.1215E+03
     -5.316  0.1687E+02  0.1778E+02  0.1230E+03  0.1229E+03
     -5.240  0.3248E+02  0.2971E+02  0.1255E+03  0.1252E+03
     -5.165  0.3258E+02  0.3167E+02  0.1280E+03  0.1276E+03
     -5.090  0.2419E+02  0.2511E+02  0.1298E+03  0.1295E+03
     -5.014  0.3755E+02  0.3810E+02  0.1327E+03  0.1324E+03
     -4.939  0.3477E+02  0.3423E+02  0.1353E+03  0.1350E+03
     -4.864  0.2895E+02  0.3116E+02  0.1376E+03  0.1374E+03
     -4.789  0.2825E+02  0.2521E+02  0.1397E+03  0.1393E+03
     -4.713  0.1878E+02  0.2182E+02  0.1412E+03  0.1410E+03
     -4.638  0.3339E+02  0.3306E+02  0.1438E+03  0.1435E+03
     -4.563  0.1858E+02  0.2075E+02  0.1452E+03  0.1451E+03
     -4.488  0.3193E+02  0.2991E+02  0.1476E+03  0.1474E+03
     -4.412  0.2842E+02  0.2725E+02  0.1498E+03  0.1495E+03
     -4.337  0.3430E+02  0.3202E+02  0.1524E+03  0.1519E+03
     -4.262  0.2802E+02  0.3349E+02  0.1546E+03  0.1545E+03
     -4.187  0.2722E+02  0.2434E+02  0.1566E+03  0.1564E+03
     -4.111  0.3163E+02  0.3135E+02  0.1591E+03  0.1587E+03
     -4.036  0.3076E+02  0.3136E+02  0.1614E+03  0.1611E+03
     -3.961  0.3544E+02  0.3648E+02  0.1641E+03  0.1639E+03
     -3.886  0.2582E+02  0.2569E+02  0.1661E+03  0.1658E+03
     -3.810  0.2705E+02  0.2699E+02  0.1681E+03  0.1679E+03
     -3.735  0.2530E+02  0.2762E+02  0.1701E+03  0.1700E+03
     -3.660  0.2552E+02  0.2500E+02  0.1721E+03  0.1719E+03
     -3.584  0.1959E+02  0.2026E+02  0.1735E+03  0.1734E+03
     -3.509  0.3201E+02  0.2999E+02  0.1760E+03  0.1757E+03
     -3.434  0.2088E+02  0.2246E+02  0.1775E+03  0.1774E+03
     -3.359  0.3330E+02  0.3152E+02  0.1800E+03  0.1798E+03
     -3.283  0.2152E+02  0.2157E+02  0.1817E+03  0.1815E+03
     -3.208  0.1926E+02  0.2028E+02  0.1832E+03  0.1830E+03
     -3.133  0.3292E+02  0.3106E+02  0.1857E+03  0.1854E+03
     -3.058  0.2229E+02  0.2421E+02  0.1874E+03  0.1872E+03
     -2.982  0.1633E+02  0.1546E+02  0.1887E+03  0.1884E+03
     -2.907  0.3837E+02  0.3983E+02  0.1916E+03  0.1914E+03
     -2.832  0.2751E+02  0.2669E+02  0.1937E+03  0.1934E+03
     -2.757  0.2574E+02  0.2564E+02  0.1957E+03  0.1954E+03
     -2.681  0.2784E+02  0.2912E+02  0.1978E+03  0.1976E+03
     -2.606  0.3416E+02  0.3227E+02  0.2004E+03  0.2001E+03
     -2.531  0.3096E+02  0.3313E+02  0.2028E+03  0.2026E+03
     -2.456  0.2627E+02  0.2489E+02  0.2048E+03  0.2045E+03
     -2.380  0.3158E+02  0.3171E+02  0.2072E+03  0.2069E+03
     -2.305  0.2781E+02  0.2671E+02  0.2093E+03  0.2090E+03
     -2.230  0.3858E+02  0.3921E+02  0.2122E+03  0.2120E+03
     -2.154  0.2632E+02  0.2736E+02  0.2142E+03  0.2140E+03
     -2.079  0.3406E+02  0.3498E+02  0.2168E+03  0.2167E+03
     -2.004  0.3231E+02  0.2922E+02  0.2192E+03  0.2189E+03
     -1.929  0.3960E+02  0.3867E+02  0.2222E+03  0.2219E+03
     -1.853  0.4202E+02  0.4200E+02  0.2254E+03  0.2250E+03
     -1.778  0.3753E+02  0.3822E+02  0.2283E+03  0.2279E+03
     -1.703  0.3716E+02  0.3632E+02  0.2311E+03  0.2307E+03
     -1.628  0.3761E+02  0.3587E+02  0.2340E+03  0.2334E+03
     -1.552  0.3446E+02  0.3773E+02  0.2366E+03  0.2363E+03
     -1.477  0.4166E+02  0.3981E+02  0.2398E+03  0.2393E+03
     -1.402  0.2728E+02  0.2867E+02  0.2420E+03  0.2415E+03
     -1.327  0.4606E+02  0.4722E+02  0.2455E+03  0.2451E+03
     -1.251  0.3484E+02  0.3659E+02  0.2482E+03  0.2479E+03
     -1.176  0.4165E+02  0.4020E+02  0.2514E+03  0.2510E+03
     -1.101  0.3827E+02  0.4071E+02  0.2543E+03  0.2540E+03
     -1.026  0.3936E+02  0.3860E+02  0.2573E+03  0.2570E+03
     -0.950  0.3825E+02  0.3768E+02  0.2602E+03  0.2599E+03
     -0.875  0.3998E+02  0.3857E+02  0.2632E+03  0.2628E+03
     -0.800  0.3507E+02  0.3818E+02  0.2659E+03  0.2657E+03
     -0.724  0.3929E+02  0.3772E+02  0.2689E+03  0.2686E+03
     -0.649  0.2710E+02  0.2801E+02  0.2710E+03  0.2707E+03
     -0.574  0.4370E+02  0.4126E+02  0.2743E+03  0.2738E+03
     -0.499  0.3760E+02  0.3904E+02  0.2771E+03  0.2768E+03
     -0.423  0.2860E+02  0.2842E+02  0.2794E+03  0.2790E+03
     -0.348  0.3545E+02  0.3662E+02  0.2821E+03  0.2818E+03
     -0.273  0.2586E+02  0.2705E+02  0.2841E+03  0.2838E+03
     -0.198  0.3649E+02  0.3446E+02  0.2868E+03  0.2864E+03
     -0.122  0.3065E+02  0.3358E+02  0.2892E+03  0.2890E+03
     -0.047  0.3059E+02  0.3081E+02  0.2915E+03  0.2913E+03
      0.028  0.2811E+02  0.2122E+02  0.2937E+03  0.2929E+03
      0.103  0.5168E+02  0.5331E+02  0.2977E+03  0.2969E+03
      0.179  0.3843E+02  0.4313E+02  0.3007E+03  0.3002E+03
      0.254  0.3330E+02  0.3310E+02  0.3032E+03  0.3028E+03
      0.329  0.4547E+02  0.4696E+02  0.3066E+03  0.3063E+03
      0.404  0.3905E+02  0.3802E+02  0.3096E+03  0.3093E+03
      0.480  0.4657E+02  0.4341E+02  0.3131E+03  0.3126E+03
      0.555  0.3488E+02  0.3632E+02  0.3158E+03  0.3154E+03
      0.630  0.3888E+02  0.4286E+02  0.3187E+03  0.3186E+03
      0.706  0.2515E+02  0.2295E+02  0.3206E+03  0.3203E+03
      0.781  0.4554E+02  0.4240E+02  0.3241E+03  0.3236E+03
      0.856  0.3291E+02  0.3357E+02  0.3266E+03  0.3261E+03
      0.931  0.2895E+02  0.2750E+02  0.3288E+03  0.3283E+03
      1.007  0.4419E+02  0.4695E+02  0.3321E+03  0.3318E+03
      1.082  0.4445E+02  0.4513E+02  0.3355E+03  0.3353E+03
      1.157  0.4139E+02  0.3944E+02  0.3387E+03  0.3383E+03
      1.232  0.4062E+02  0.3980E+02  0.3417E+03  0.3413E+03
      1.308  0.4258E+02  0.4280E+02  0.3450E+03  0.3446E+03
      1.383  0.4546E+02  0.4255E+02  0.3485E+03  0.3478E+03
      1.458  0.4652E+02  0.4581E+02  0.3520E+03  0.3513E+03
      1.533  0.3865E+02  0.4372E+02  0.3550E+03  0.3546E+03
      1.609  0.4323E+02  0.4248E+02  0.3583E+03  0.3579E+03
      1.684  0.4065E+02  0.4215E+02  0.3614E+03  0.3612E+03
      1.759  0.4866E+02  0.4414E+02  0.3651E+03  0.3645E+03
      1.834  0.4244E+02  0.4436E+02  0.3683E+03  0.3679E+03
      1.910  0.4468E+02  0.4371E+02  0.3717E+03  0.3712E+03
      1.985  0.4455E+02  0.4217E+02  0.3751E+03  0.3744E+03
      2.060  0.5260E+02  0.5387E+02  0.3791E+03  0.3785E+03
      2.136  0.4724E+02  0.4883E+02  0.3827E+03  0.3822E+03
      2.211  0.4490E+02  0.4504E+02  0.3861E+03  0.3857E+03
      2.286  0.4755E+02  0.4676E+02  0.3898E+03  0.3893E+03
      2.361  0.4173E+02  0.4015E+02  0.3929E+03  0.3924E+03
      2.437  0.4314E+02  0.4173E+02  0.3962E+03  0.3956E+03
      2.512  0.4202E+02  0.3753E+02  0.3994E+03  0.3984E+03
      2.587  0.4492E+02  0.4996E+02  0.4029E+03  0.4022E+03
      2.662  0.5408E+02  0.5486E+02  0.4070E+03  0.4064E+03
      2.738  0.4225E+02  0.4287E+02  0.4103E+03  0.4096E+03
      2.813  0.4638E+02  0.4689E+02  0.4138E+03  0.4132E+03
      2.888  0.3446E+02  0.3326E+02  0.4164E+03  0.4157E+03
      2.963  0.4649E+02  0.4625E+02  0.4199E+03  0.4192E+03
      3.039  0.4732E+02  0.4173E+02  0.4235E+03  0.4224E+03
      3.114  0.4072E+02  0.5027E+02  0.4267E+03  0.4262E+03
      3.189  0.4454E+02  0.4060E+02  0.4301E+03  0.4293E+03
      3.264  0.5100E+02  0.5402E+02  0.4340E+03  0.4334E+03
      3.340  0.4146E+02  0.3852E+02  0.4372E+03  0.4364E+03
      3.415  0.4288E+02  0.4538E+02  0.4405E+03  0.4398E+03
      3.490  0.4230E+02  0.3603E+02  0.4437E+03  0.4426E+03
      3.566  0.4371E+02  0.4474E+02  0.4471E+03  0.4460E+03
      3.641  0.4281E+02  0.4798E+02  0.4504E+03  0.4497E+03
      3.716  0.4069E+02  0.4085E+02  0.4535E+03  0.4528E+03
      3.791  0.4418E+02  0.4613E+02  0.4570E+03  0.4563E+03
      3.867  0.4503E+02  0.4208E+02  0.4604E+03  0.4595E+03
      3.942  0.4072E+02  0.4373E+02  0.4635E+03  0.4628E+03
      4.017  0.3569E+02  0.3336E+02  0.4663E+03  0.4655E+03
      4.092  0.4639E+02  0.4433E+02  0.4698E+03  0.4688E+03
      4.168  0.3853E+02  0.4145E+02  0.4727E+03  0.4720E+03
      4.243  0.3892E+02  0.3834E+02  0.4757E+03  0.4749E+03
      4.318  0.4864E+02  0.4132E+02  0.4794E+03  0.4781E+03
      4.393  0.5232E+02  0.5487E+02  0.4834E+03  0.4822E+03
      4.469  0.3663E+02  0.3797E+02  0.4862E+03  0.4852E+03
      4.544  0.4975E+02  0.4853E+02  0.4900E+03  0.4889E+03
      4.619  0.4442E+02  0.4210E+02  0.4934E+03  0.4921E+03
      4.694  0.4876E+02  0.5034E+02  0.4971E+03  0.4960E+03
      4.770  0.5154E+02  0.4893E+02  0.5010E+03  0.4997E+03
      4.845  0.4005E+02  0.4362E+02  0.5042E+03  0.5031E+03
      4.920  0.3973E+02  0.4465E+02  0.5072E+03  0.5065E+03
      4.995  0.4444E+02  0.4248E+02  0.5106E+03  0.5097E+03
      5.071  0.4899E+02  0.5257E+02  0.5143E+03  0.5137E+03
      5.146  0.4380E+02  0.4115E+02  0.5176E+03  0.5169E+03
      5.221  0.3925E+02  0.3098E+02  0.5206E+03  0.5194E+03
      5.297  0.3668E+02  0.4327E+02  0.5235E+03  0.5227E+03
      5.372  0.3955E+02  0.3961E+02  0.5265E+03  0.5258E+03
      5.447  0.3838E+02  0.3607E+02  0.5294E+03  0.5286E+03
      5.522  0.4451E+02  0.4305E+02  0.5327E+03  0.5319E+03
      5.598  0.3711E+02  0.3936E+02  0.5356E+03  0.5349E+03
      5.673  0.3852E+02  0.3719E+02  0.5385E+03  0.5377E+03
      5.748  0.4206E+02  0.4333E+02  0.5417E+03  0.5410E+03
      5.823  0.4204E+02  0.4410E+02  0.5448E+03  0.5444E+03
      5.899  0.4133E+02  0.3558E+02  0.5480E+03  0.5472E+03
      5.974  0.3216E+02  0.3579E+02  0.5504E+03  0.5499E+03
      6.049  0.5300E+02  0.5097E+02  0.5544E+03  0.5537E+03
      6.124  0.4103E+02  0.3780E+02  0.5576E+03  0.5566E+03
      6.200  0.3126E+02  0.3231E+02  0.5600E+03  0.5592E+03
      6.275  0.3995E+02  0.4221E+02  0.5631E+03  0.5624E+03
      6.350  0.4246E+02  0.4352E+02  0.5664E+03  0.5657E+03
      6.425  0.3221E+02  0.3429E+02  0.5688E+03  0.5683E+03
      6.501  0.3012E+02  0.3233E+02  0.5711E+03  0.5708E+03
      6.576  0.3446E+02  0.3118E+02  0.5737E+03  0.5732E+03
      6.651  0.2683E+02  0.3260E+02  0.5758E+03  0.5757E+03
      6.727  0.2200E+01  0.3774E+01  0.5760E+03  0.5760E+03
      6.802  0.0000E+00  0.0000E+00  0.5760E+03  0.5760E+03
      6.877  0.0000E+00  0.0000E+00  0.5760E+03  0.5760E+03
      6.952  0.0000E+00  0.0000E+00  0.5760E+03  0.5760E+03
      7.028  0.0000E+00  0.0000E+00  0.5760E+03  0.5760E+03
      7.103  0.0000E+00  0.0000E+00  0.5760E+03  0.5760E+03
      7.178  0.0000E+00  0.0000E+00  0.5760E+03  0.5760E+03
      7.253  0.0000E+00  0.0000E+00  0.5760E+03  0.5760E+03
      7.329  0.0000E+00  0.0000E+00  0.5760E+03  0.5760E+03
      7.404  0.0000E+00  0.0000E+00  0.5760E+03  0.5760E+03
      7.479  0.0000E+00  0.0000E+00  0.5760E+03  0.5760E+03
      7.554  0.0000E+00  0.0000E+00  0.5760E+03  0.5760E+03
      7.630  0.0000E+00  0.0000E+00  0.5760E+03  0.5760E+03
      7.705  0.0000E+00  0.0000E+00  0.5760E+03  0.5760E+03
