 vasp.6.4.3 19Mar24 (build Oct 22 2024 11:23:12) complex                        
  
 executed on             LinuxIFC date 2025.06.08  01:37:41
 running   64 mpi-ranks, on    4 nodes
 distrk:  each k-point on   64 cores,    1 groups
 distr:  one band on NCORE=  16 cores,    4 groups


--------------------------------------------------------------------------------------------------------


 INCAR:
   SYSTEM = Si and Ge interface calculation
   ISTART = 0
   ICHARG = 2
   LWAVE = .FALSE.
   LREAL = AUTO
   ENCUT = 700
   ENAUG = 900
   ADDGRID = .TRUE.
   LMAXMIX = 6
   LASPH = .TRUE.
   LMIXTAU = .TRUE.
   NCORE = 16
   NELM = 100
   NBANDS = 288
   EDIFF = 1d-7
   AMIX = 0.6
   ISMEAR = 0
   SIGMA = 0.01
   NELECT = 480
   ISPIN = 2
   NUPDOWN = 1
   LVTOT = .FALSE.
   LVHAR = .TRUE.

 POTCAR:    PAW_PBE Si 05Jan2001                  
 POTCAR:    PAW_PBE C 08Apr2002                   
 -----------------------------------------------------------------------------
|                                                                             |
|           W    W    AA    RRRRR   N    N  II  N    N   GGGG   !!!           |
|           W    W   A  A   R    R  NN   N  II  NN   N  G    G  !!!           |
|           W    W  A    A  R    R  N N  N  II  N N  N  G       !!!           |
|           W WW W  AAAAAA  RRRRR   N  N N  II  N  N N  G  GGG   !            |
|           WW  WW  A    A  R   R   N   NN  II  N   NN  G    G                |
|           W    W  A    A  R    R  N    N  II  N    N   GGGG   !!!           |
|                                                                             |
|     You use a magnetic or noncollinear calculation, but did not specify     |
|     the initial magnetic moment with the MAGMOM tag. Note that a            |
|     default of 8.333e-3 will be used for all atoms. This ferromagnetic      |
|     setup may break the symmetry of the crystal, in particular it may       |
|     rule out finding an antiferromagnetic solution. Thence, we              |
|     recommend setting the initial magnetic moment manually or verifying     |
|     carefully that this magnetic setup is desired.                          |
|                                                                             |
 -----------------------------------------------------------------------------

 POTCAR:    PAW_PBE Si 05Jan2001                  
   VRHFIN =Si: s2p2                                                                                 
   LEXCH  = PE                                                                                      
   EATOM  =   103.0669 eV,    7.5752 Ry                                                             
                                                                                                    
   TITEL  = PAW_PBE Si 05Jan2001                                                                    
   LULTRA =        F    use ultrasoft PP ?                                                          
   IUNSCR =        1    unscreen: 0-lin 1-nonlin 2-no                                               
   RPACOR =    1.500    partial core radius                                                         
   POMASS =   28.085; ZVAL   =    4.000    mass and valenz                                          
   RCORE  =    1.900    outmost cutoff radius                                                       
   RWIGS  =    2.480; RWIGS  =    1.312    wigner-seitz radius (au A)                               
   ENMAX  =  245.345; ENMIN  =  184.009 eV                                                          
   ICORE  =        2    local potential                                                             
   LCOR   =        T    correct aug charges                                                         
   LPAW   =        T    paw PP                                                                      
   EAUG   =  322.069                                                                                
   DEXC   =    0.000                                                                                
   RMAX   =    1.950    core radius for proj-oper                                                   
   RAUG   =    1.300    factor for augmentation sphere                                              
   RDEP   =    1.993    radius for radial grids                                                     
   RDEPT  =    1.837    core radius for aug-charge                                                  
                                                                                                    
   Atomic configuration                                                                             
    6 entries                                                                                       
     n  l   j            E        occ.                                                              
     1  0  0.50     -1785.8828   2.0000                                                             
     2  0  0.50      -139.4969   2.0000                                                             
     2  1  1.50       -95.5546   6.0000                                                             
     3  0  0.50       -10.8127   2.0000                                                             
     3  1  0.50        -4.0811   2.0000                                                             
     3  2  1.50        -4.0817   0.0000                                                             
   Description                                                                                      
     l       E           TYP  RCUT    TYP  RCUT                                                     
     0    -10.8127223     23  1.900                                                                 
     0     -7.6451159     23  1.900                                                                 
     1     -4.0811372     23  1.900                                                                 
     1      2.4879257     23  1.900                                                                 
     2     -4.0817478      7  1.900                                                                 
  local pseudopotential read in
  partial core-charges read in
  partial kinetic energy density read in
  atomic valenz-charges read in
  non local Contribution for L=           0  read in
    real space projection operators read in
  non local Contribution for L=           0  read in
    real space projection operators read in
  non local Contribution for L=           1  read in
    real space projection operators read in
  non local Contribution for L=           1  read in
    real space projection operators read in
    PAW grid and wavefunctions read in
 
   number of l-projection  operators is LMAX  =           4
   number of lm-projection operators is LMMAX =           8
 
 POTCAR:    PAW_PBE C 08Apr2002                   
   VRHFIN =C: s2p2                                                                                  
   LEXCH  = PE                                                                                      
   EATOM  =   147.1560 eV,   10.8157 Ry                                                             
                                                                                                    
   TITEL  = PAW_PBE C 08Apr2002                                                                     
   LULTRA =        F    use ultrasoft PP ?                                                          
   IUNSCR =        1    unscreen: 0-lin 1-nonlin 2-no                                               
   RPACOR =    1.200    partial core radius                                                         
   POMASS =   12.011; ZVAL   =    4.000    mass and valenz                                          
   RCORE  =    1.500    outmost cutoff radius                                                       
   RWIGS  =    1.630; RWIGS  =    0.863    wigner-seitz radius (au A)                               
   ENMAX  =  400.000; ENMIN  =  300.000 eV                                                          
   ICORE  =        2    local potential                                                             
   LCOR   =        T    correct aug charges                                                         
   LPAW   =        T    paw PP                                                                      
   EAUG   =  644.873                                                                                
   DEXC   =    0.000                                                                                
   RMAX   =    1.529    core radius for proj-oper                                                   
   RAUG   =    1.300    factor for augmentation sphere                                              
   RDEP   =    1.501    radius for radial grids                                                     
   RDEPT  =    1.300    core radius for aug-charge                                                  
                                                                                                    
   Atomic configuration                                                                             
    4 entries                                                                                       
     n  l   j            E        occ.                                                              
     1  0  0.50      -273.3789   2.0000                                                             
     2  0  0.50       -13.7508   2.0000                                                             
     2  1  0.50        -5.2854   2.0000                                                             
     3  2  1.50        -5.4423   0.0000                                                             
   Description                                                                                      
     l       E           TYP  RCUT    TYP  RCUT                                                     
     0    -13.7508458     23  1.200                                                                 
     0     -8.2022199     23  1.200                                                                 
     1     -5.2854383     23  1.500                                                                 
     1     34.0145650     23  1.500                                                                 
     2     -5.4423304      7  1.500                                                                 
  local pseudopotential read in
  partial core-charges read in
  partial kinetic energy density read in
  atomic valenz-charges read in
  non local Contribution for L=           0  read in
    real space projection operators read in
  non local Contribution for L=           0  read in
    real space projection operators read in
  non local Contribution for L=           1  read in
    real space projection operators read in
  non local Contribution for L=           1  read in
    real space projection operators read in
    PAW grid and wavefunctions read in
 
   number of l-projection  operators is LMAX  =           4
   number of lm-projection operators is LMMAX =           8
 
 Optimization of the real space projectors (new method)

 maximal supplied QI-value         = 19.84
 optimisation between [QCUT,QGAM] = [ 13.49, 26.99] = [ 50.98,203.92] Ry 
 Optimized for a Real-space Cutoff    1.07 Angstroem

   l    n(q)    QCUT    max X(q) W(low)/X(q) W(high)/X(q)  e(spline) 
   0      9    13.493   159.560    0.22E-03    0.15E-03    0.72E-07
   0      9    13.493   115.863    0.21E-03    0.15E-03    0.71E-07
   1      8    13.493    88.339    0.15E-03    0.11E-03    0.13E-06
   1      8    13.493    48.592    0.15E-03    0.10E-03    0.13E-06
 Optimization of the real space projectors (new method)

 maximal supplied QI-value         = 25.13
 optimisation between [QCUT,QGAM] = [ 13.32, 26.89] = [ 49.69,202.52] Ry 
 Optimized for a Real-space Cutoff    1.01 Angstroem

   l    n(q)    QCUT    max X(q) W(low)/X(q) W(high)/X(q)  e(spline) 
   0      8    13.321   115.676    0.29E-03    0.42E-03    0.11E-06
   0      8    13.321    87.132    0.29E-03    0.42E-03    0.11E-06
   1      8    13.321     4.429    0.39E-03    0.33E-03    0.98E-07
   1      8    13.321     2.733    0.30E-03    0.26E-03    0.97E-07
  PAW_PBE Si 05Jan2001                  :
 energy of atom  1       EATOM= -103.0669
 kinetic energy error for atom=    0.0003 (will be added to EATOM!!)
  PAW_PBE C 08Apr2002                   :
 energy of atom  2       EATOM= -147.1560
 kinetic energy error for atom=    0.0032 (will be added to EATOM!!)
 
 
 POSCAR: Si+C
  positions in direct lattice
  No initial velocities read in


 exchange-correlation table for PE
   RHO(1)=    0.500       N(1)  =     2000
   RHO(2)=  100.500       N(2)  =     4000
 


--------------------------------------------------------------------------------------------------------


 ion  position               nearest neighbor table
   1  0.283  0.642  0.000-  64 1.78  85 2.00  28 2.35  11 2.35
   2  0.817  0.408  0.152-  29 2.35  31 2.35  12 2.35
   3  0.350  0.175  0.304-  32 2.35  30 2.35  16 2.35
   4  0.617  0.308  0.000- 115 1.57  31 2.35  14 2.35
   5  0.150  0.075  0.152-  32 2.35  34 2.35  15 2.35
   6  0.683  0.842  0.304-  35 2.35  33 2.35  10 2.35  38 2.45
   7  0.950  0.975  0.000-  55 2.16  17 2.35  34 2.35 102 2.44  61 2.44
   8  0.483  0.742  0.152-  28 2.35  35 2.35  18 2.35
   9  0.017  0.508  0.304-  89 2.30  29 2.35  36 2.35  13 2.35
  10  0.800  0.775  0.076-  26 2.35  19 2.35   6 2.35 106 2.47
  11  0.333  0.542  0.228-  27 2.35  20 2.35   1 2.35
  12  0.867  0.308  0.380-  50 2.12  21 2.35   2 2.35 116 2.38  53 2.60
  13  0.133  0.442  0.076-  20 2.35  22 2.35   9 2.35  46 2.51
  14  0.667  0.208  0.228-  21 2.35   4 2.35  23 2.35
  15  0.200  0.975  0.380-  24 2.35   5 2.35  80 2.42  99 2.53
  16  0.467  0.108  0.076-  76 2.17  23 2.35   3 2.35  25 2.35
  17  1.000  0.875  0.228-  24 2.35   7 2.35  26 2.35
  18  0.533  0.642  0.380-  86 2.31   8 2.35  27 2.35  45 2.39
  19  0.783  0.642  0.000- 106 1.78  43 2.00  10 2.35  29 2.35
  20  0.317  0.408  0.152-  13 2.35  11 2.35  30 2.35
  21  0.850  0.175  0.304-  14 2.35  12 2.35  34 2.35
  22  0.117  0.308  0.000-  73 1.57  13 2.35  32 2.35
  23  0.650  0.075  0.152-  16 2.35  14 2.35  33 2.35
  24  0.183  0.842  0.304-  17 2.35  15 2.35  28 2.35  80 2.45
  25  0.450  0.975  0.000-  97 2.16  35 2.35  16 2.35  60 2.44 103 2.44
  26  0.983  0.742  0.152-  10 2.35  36 2.35  17 2.35
  27  0.517  0.508  0.304-  47 2.30  11 2.35  31 2.35  18 2.35
  28  0.300  0.775  0.076-   8 2.35   1 2.35  24 2.35  64 2.47
  29  0.833  0.542  0.228-   9 2.35   2 2.35  19 2.35
  30  0.367  0.308  0.380-  92 2.12  20 2.35   3 2.35  74 2.38  95 2.60
  31  0.633  0.442  0.076-   4 2.35   2 2.35  27 2.35  88 2.51
  32  0.167  0.208  0.228-   5 2.35   3 2.35  22 2.35
  33  0.700  0.975  0.380-   6 2.35  23 2.35  38 2.42  57 2.53
  34  0.967  0.108  0.076- 118 2.17   5 2.35  21 2.35   7 2.35
  35  0.500  0.875  0.228-   6 2.35  25 2.35   8 2.35
  36  0.033  0.642  0.380-  44 2.31  26 2.35   9 2.35  87 2.39
  37  0.257  0.889  0.765- 105 1.54 100 1.54  62 1.54
  38  0.600  0.917  0.565- 101 1.54  63 1.54  33 2.42   6 2.45
  39  0.928  0.903  0.665- 102 1.54 104 1.54  61 1.54
  40  0.542  0.746  0.765- 108 1.54 103 1.54  65 1.54
  41  0.885  0.775  0.565- 104 1.54  66 1.54
  42  0.214  0.760  0.665- 105 1.54 107 1.54  64 1.54
  43  0.828  0.603  0.765- 106 1.54 111 1.54  68 1.54  19 2.00
  44  0.171  0.632  0.565- 107 1.54  69 1.54  36 2.31
  45  0.500  0.617  0.665- 108 1.54 110 1.54  67 1.54  18 2.39
  46  0.114  0.460  0.765- 114 1.54 109 1.54  71 1.54  13 2.51
  47  0.457  0.489  0.565- 110 1.54  72 1.54  27 2.30
  48  0.785  0.475  0.665- 113 1.54 111 1.54  70 1.54
  49  0.400  0.317  0.765- 112 1.54 117 1.54  74 1.54
  50  0.742  0.346  0.565- 113 1.54  75 1.54  12 2.12
  51  0.071  0.332  0.665- 114 1.54 116 1.54  73 1.54
  52  0.685  0.175  0.765- 115 1.54 120 1.54  77 1.54
  53  0.028  0.203  0.565- 116 1.54  78 1.54  12 2.60
  54  0.357  0.189  0.665- 117 1.54 119 1.54  76 1.54
  55  0.971  0.032  0.765- 118 1.54 102 1.54  59 1.54   7 2.16
  56  0.314  0.060  0.565- 119 1.54  60 1.54
  57  0.642  0.046  0.665- 120 1.54 101 1.54  58 1.54  33 2.53
  58  0.707  0.989  0.815-  79 1.54  57 1.54
  59  0.050  0.017  0.615-  80 1.54  99 1.54  55 1.54
  60  0.378  0.003  0.715-  81 1.54  97 1.54  56 1.54  25 2.44
  61  0.992  0.846  0.815-  82 1.54  39 1.54   7 2.44
  62  0.335  0.875  0.615-  83 1.54  81 1.54  37 1.54
  63  0.664  0.860  0.715-  84 1.54  79 1.54  38 1.54
  64  0.278  0.703  0.815-  85 1.54  42 1.54   1 1.78  28 2.47
  65  0.621  0.732  0.615-  86 1.54  84 1.54  40 1.54
  66  0.950  0.717  0.715-  87 1.54  82 1.54  41 1.54
  67  0.564  0.560  0.815-  88 1.54  45 1.54
  68  0.907  0.589  0.615-  89 1.54  87 1.54  43 1.54
  69  0.235  0.575  0.715-  90 1.54  85 1.54  44 1.54
  70  0.850  0.417  0.815-  91 1.54  48 1.54
  71  0.192  0.446  0.615-  90 1.54  92 1.54  46 1.54
  72  0.521  0.432  0.715-  88 1.54  93 1.54  47 1.54
  73  0.135  0.275  0.815-  94 1.54  51 1.54  22 1.57
  74  0.478  0.303  0.615-  93 1.54  95 1.54  49 1.54  30 2.38
  75  0.807  0.289  0.715-  91 1.54  96 1.54  50 1.54
  76  0.421  0.132  0.815-  97 1.54  54 1.54  16 2.17
  77  0.764  0.160  0.615-  98 1.54  96 1.54  52 1.54
  78  0.092  0.146  0.715-  99 1.54  94 1.54  53 1.54
  79  0.757  0.889  0.765-  58 1.54  63 1.54 104 1.54
  80  0.100  0.917  0.565-  59 1.54 105 1.54  15 2.42  24 2.45
  81  0.428  0.903  0.665-  60 1.54  62 1.54 103 1.54
  82  0.042  0.746  0.765-  61 1.54  66 1.54 107 1.54
  83  0.385  0.775  0.565-  62 1.54 108 1.54
  84  0.714  0.760  0.665-  63 1.54  65 1.54 106 1.54
  85  0.328  0.603  0.765-  64 1.54  69 1.54 110 1.54   1 2.00
  86  0.671  0.632  0.565-  65 1.54 111 1.54  18 2.31
  87  1.000  0.617  0.665-  66 1.54  68 1.54 109 1.54  36 2.39
  88  0.614  0.460  0.765-  67 1.54  72 1.54 113 1.54  31 2.51
  89  0.957  0.489  0.565-  68 1.54 114 1.54   9 2.30
  90  0.285  0.475  0.665-  71 1.54  69 1.54 112 1.54
  91  0.900  0.317  0.765-  75 1.54  70 1.54 116 1.54
  92  0.242  0.346  0.565-  71 1.54 117 1.54  30 2.12
  93  0.571  0.332  0.665-  74 1.54  72 1.54 115 1.54
  94  0.185  0.175  0.765-  73 1.54  78 1.54 119 1.54
  95  0.528  0.203  0.565-  74 1.54 120 1.54  30 2.60
  96  0.857  0.189  0.665-  77 1.54  75 1.54 118 1.54
  97  0.471  0.032  0.765-  76 1.54  60 1.54 101 1.54  25 2.16
  98  0.814  0.060  0.565-  77 1.54 102 1.54
  99  0.142  0.046  0.665-  78 1.54  59 1.54 100 1.54  15 2.53
 100  0.207  0.989  0.815-  37 1.54  99 1.54
 101  0.550  0.017  0.615-  38 1.54  57 1.54  97 1.54
 102  0.878  0.003  0.715-  39 1.54  55 1.54  98 1.54   7 2.44
 103  0.492  0.846  0.815-  40 1.54  81 1.54  25 2.44
 104  0.835  0.875  0.615-  41 1.54  39 1.54  79 1.54
 105  0.164  0.860  0.715-  42 1.54  37 1.54  80 1.54
 106  0.778  0.703  0.815-  43 1.54  84 1.54  19 1.78  10 2.47
 107  0.121  0.732  0.615-  44 1.54  42 1.54  82 1.54
 108  0.450  0.717  0.715-  40 1.54  45 1.54  83 1.54
 109  0.064  0.560  0.815-  46 1.54  87 1.54
 110  0.407  0.589  0.615-  47 1.54  45 1.54  85 1.54
 111  0.735  0.575  0.715-  43 1.54  48 1.54  86 1.54
 112  0.350  0.417  0.815-  49 1.54  90 1.54
 113  0.692  0.446  0.615-  48 1.54  50 1.54  88 1.54
 114  0.021  0.432  0.715-  46 1.54  51 1.54  89 1.54
 115  0.635  0.275  0.815-  52 1.54  93 1.54   4 1.57
 116  0.978  0.303  0.615-  53 1.54  51 1.54  91 1.54  12 2.38
 117  0.307  0.289  0.715-  54 1.54  49 1.54  92 1.54
 118  0.921  0.132  0.815-  55 1.54  96 1.54  34 2.17
 119  0.264  0.160  0.615-  54 1.54  56 1.54  94 1.54
 120  0.592  0.146  0.715-  57 1.54  52 1.54  95 1.54
 
  LATTYP: Found a base centered orthorhombic cell.
 ALAT       =    13.3031797410
 B/A-ratio  =     2.2360678724
 C/A-ratio  =     0.6009655257
  
  Lattice vectors:
  
 A1 = (   6.6515903470, -14.8734064100,   0.0000000000)
 A2 = (   6.6515893940,  14.8734064100,   0.0000000000)
 A3 = (   0.0000000000,   0.0000000000,   7.9947524070)


Analysis of symmetry for initial positions (statically):
=====================================================================
 Subroutine PRICEL returns following result:
 
  LATTYP: Found a simple orthorhombic cell.
 ALAT       =     6.6515898705
 B/A-ratio  =     1.2019310515
 C/A-ratio  =     2.2360678724
  
  Lattice vectors:
  
 A1 = (  -6.6515898705,   0.0000000000,  -0.0000001359)
 A2 = (   0.0000000000,   0.0000000000,   7.9947524070)
 A3 = (  -0.0000004765,  14.8734064100,  -0.0000001359)
 
   2 primitive cells build up your supercell.
 

 Routine SETGRP: Setting up the symmetry group for a 
 base centered orthorhombic supercell.


 Subroutine GETGRP returns: Found  1 space group operations
 (whereof  1 operations were pure point group operations)
 out of a pool of  8 trial point group operations.


The static configuration has the point symmetry C_1 .


Analysis of symmetry for dynamics (positions and initial velocities):
=====================================================================
 Subroutine PRICEL returns following result:
 
  LATTYP: Found a simple orthorhombic cell.
 ALAT       =     6.6515898705
 B/A-ratio  =     1.2019310515
 C/A-ratio  =     2.2360678724
  
  Lattice vectors:
  
 A1 = (  -6.6515898705,   0.0000000000,  -0.0000001359)
 A2 = (   0.0000000000,   0.0000000000,   7.9947524070)
 A3 = (  -0.0000004765,  14.8734064100,  -0.0000001359)
 
   2 primitive cells build up your supercell.
 

 Routine SETGRP: Setting up the symmetry group for a 
 base centered orthorhombic supercell.


 Subroutine GETGRP returns: Found  1 space group operations
 (whereof  1 operations were pure point group operations)
 out of a pool of  8 trial point group operations.


The dynamic configuration has the point symmetry C_1 .


Analysis of structural, dynamic, and magnetic symmetry:
=====================================================================
 Subroutine PRICEL returns following result:
 
  LATTYP: Found a simple orthorhombic cell.
 ALAT       =     6.6515898705
 B/A-ratio  =     1.2019310515
 C/A-ratio  =     2.2360678724
  
  Lattice vectors:
  
 A1 = (  -6.6515898705,   0.0000000000,  -0.0000001359)
 A2 = (   0.0000000000,   0.0000000000,   7.9947524070)
 A3 = (  -0.0000004765,  14.8734064100,  -0.0000001359)
 
   2 primitive cells build up your supercell.
 

 Routine SETGRP: Setting up the symmetry group for a 
 base centered orthorhombic supercell.


 Subroutine GETGRP returns: Found  1 space group operations
 (whereof  1 operations were pure point group operations)
 out of a pool of  8 trial point group operations.


The overall configuration has the point symmetry C_1 .


 Subroutine INISYM returns: Found  1 space group operations
 (whereof  1 operations are pure point group operations),
 and found     2 'primitive' translations


----------------------------------------------------------------------------------------

                                     Primitive cell                                     

  volume of cell :     790.9352

  direct lattice vectors                    reciprocal lattice vectors
    -6.651589870  0.000000000 -0.000000136    -0.150339997 -0.000000005  0.000000000
     0.000000000  0.000000000  7.994752407    -0.000000003  0.000000001  0.125082047
    -0.000000476 14.873406410 -0.000000136     0.000000000  0.067234094  0.000000000

  length of vectors
     6.651589871  7.994752407 14.873406410     0.150339997  0.125082047  0.067234094

  position of ions in fractional coordinates (direct lattice)
     0.791876257  0.000000037  0.641624749
     0.958543062  0.151900802  0.408291280
     0.125210271  0.303801644  0.174957767
     0.458543003  0.000000053  0.308291405
     0.625209964  0.151900823  0.074957930
     0.791876912  0.303801650  0.841624498
     0.125209690  0.000000042  0.974958062
     0.291876436  0.151900812  0.741624594
     0.458543539  0.303801638  0.508291125
     0.625209510  0.075950292  0.774958134
     0.791876436  0.227851082  0.541624546
     0.958543419  0.379751909  0.308291197
     0.291875869  0.075950297  0.441624761
     0.458543450  0.227851146  0.208291262
     0.625209748  0.379751944  0.974957764
     0.958542675  0.075950286  0.108291537
     0.125210048  0.227851135  0.874958038
     0.291876674  0.379751933  0.641624570
     0.597693742  0.764696470  0.888839900
     0.883408189  0.565175232  0.917411447
     0.240551173  0.664935931  0.903125763
     0.169122040  0.764696537  0.745982826
     0.454836429  0.565175222  0.774554431
     0.811979353  0.664935880  0.760268629
     0.740550579  0.764696527  0.603125691
     0.026265263  0.565175289  0.631697297
     0.383408130  0.664935870  0.617411494
     0.311979533  0.764696475  0.460268497
     0.597693681  0.565175219  0.488840103
     0.954836726  0.664935877  0.474554360
     0.883408069  0.764696465  0.317411363
     0.169122249  0.565175227  0.345982999
     0.526265174  0.664935885  0.331697196
     0.454836443  0.764696532  0.174554273
     0.740550876  0.565175277  0.203125834
     0.097693681  0.664935875  0.188840091
     0.026265204  0.764696522  0.031697154
     0.311979413  0.565175224  0.060268641
     0.669122339  0.664935882  0.045982957
     0.597693740  0.814576678  0.988840044
     0.883408308  0.615055499  0.017411470
     0.240551174  0.714816140  0.003125668
     0.169122338  0.814576668  0.845982850
     0.454836786  0.615055490  0.874554396
     0.811979533  0.714816087  0.860268593
     0.740551292  0.814576796  0.703125656
     0.026264965  0.615055497  0.731697261
     0.383407891  0.714816078  0.717411399
     0.311979831  0.814576624  0.560268581
     0.597693801  0.615055428  0.588840067
     0.954836666  0.714816145  0.574554384
     0.883407951  0.814576673  0.417411387
     0.169122130  0.615055435  0.445983022
     0.526265263  0.714816075  0.431697249
     0.454836845  0.814576800  0.274554253
     0.740550876  0.615055485  0.303125858
     0.097694099  0.714816083  0.288840055
     0.026265144  0.814576671  0.131697118
     0.311979384  0.615055492  0.160268694
     0.669122279  0.714816090  0.145982921

  ion indices of the primitive-cell ions
   primitive index   ion index
                 1           1
                 2          20
                 3           3
                 4          22
                 5           5
                 6          24
                 7          25
                 8           8
                 9          27
                10          28
                11          11
                12          30
                13          13
                14          32
                15          15
                16          16
                17          35
                18          18
                19          37
                20          80
                21          81
                22          82
                23          83
                24          42
                25          85
                26          44
                27          45
                28          46
                29          47
                30          90
                31          49
                32          92
                33          51
                34          94
                35          95
                36          54
                37          97
                38          56
                39          99
                40         100
                41          59
                42          60
                43         103
                44          62
                45         105
                46          64
                47         107
                48         108
                49         109
                50         110
                51          69
                52         112
                53          71
                54          72
                55          73
                56          74
                57         117
                58          76
                59         119
                60          78

----------------------------------------------------------------------------------------

 
 
 KPOINTS: Automatic KPOINTS generated             

Automatic generation of k-mesh.
 Grid dimensions read from file:
 generate k-points for:    3    2    4

 Generating k-lattice:

  Cartesian coordinates                     Fractional coordinates (reciprocal lattice)
     0.025056666 -0.011205681  0.000000000     0.333333333  0.000000000  0.000000000
     0.000000000  0.033617047  0.000000000     0.000000000  0.500000000  0.000000000
     0.000000000  0.000000000  0.031270512     0.000000000  0.000000000  0.250000000

  Length of vectors
     0.027448202  0.033617047  0.031270512

  Shift w.r.t. Gamma in fractional coordinates (k-lattice)
     0.000000000  0.000000000  0.000000000

 WARNING: IBZKPT: internal override: KBLOWUP is changed to .FALSE.
      ... skipping the blow-up phase ...

 
 Subroutine IBZKPT returns following result:
 ===========================================
 
 Found     14 irreducible k-points:
 
 Following reciprocal coordinates:
            Coordinates               Weight
  0.000000  0.000000  0.000000      1.000000
  0.333333 -0.000000  0.000000      2.000000
  0.000000  0.500000  0.000000      1.000000
  0.333333  0.500000  0.000000      2.000000
  0.000000  0.000000  0.250000      2.000000
  0.333333 -0.000000  0.250000      2.000000
 -0.333333  0.000000  0.250000      2.000000
  0.000000  0.500000  0.250000      2.000000
  0.333333  0.500000  0.250000      2.000000
 -0.333333  0.500000  0.250000      2.000000
  0.000000  0.000000  0.500000      1.000000
  0.333333 -0.000000  0.500000      2.000000
  0.000000  0.500000  0.500000      1.000000
  0.333333  0.500000  0.500000      2.000000
 
 Following cartesian coordinates:
            Coordinates               Weight
  0.000000  0.000000  0.000000      1.000000
  0.025057 -0.011206  0.000000      2.000000
  0.000000  0.033617  0.000000      1.000000
  0.025057  0.022411  0.000000      2.000000
  0.000000  0.000000  0.031271      2.000000
  0.025057 -0.011206  0.031271      2.000000
 -0.025057  0.011206  0.031271      2.000000
  0.000000  0.033617  0.031271      2.000000
  0.025057  0.022411  0.031271      2.000000
 -0.025057  0.044823  0.031271      2.000000
  0.000000  0.000000  0.062541      1.000000
  0.025057 -0.011206  0.062541      2.000000
  0.000000  0.033617  0.062541      1.000000
  0.025057  0.022411  0.062541      2.000000
 


--------------------------------------------------------------------------------------------------------




 Dimension of arrays:
   k-points           NKPTS =     14   k-points in BZ     NKDIM =     14   number of bands    NBANDS=    288
   number of dos      NEDOS =    301   number of ions     NIONS =    120
   non local maximal  LDIM  =      4   non local SUM 2l+1 LMDIM =      8
   total plane-waves  NPLWV = 524880
   max r-space proj   IRMAX =   1776   max aug-charges    IRDMAX=  88941
   dimension x,y,z NGX =    90 NGY =  108 NGZ =   54
   dimension x,y,z NGXF=   180 NGYF=  216 NGZF=  108
   support grid    NGXF=   360 NGYF=  432 NGZF=  216
   ions per type =              36  84
   NGX,Y,Z   is equivalent  to a cutoff of  11.25, 11.02, 11.23 a.u.
   NGXF,Y,Z  is equivalent  to a cutoff of  22.49, 22.04, 22.46 a.u.

 SYSTEM =  Si and Ge interface calculation         
 POSCAR =  Si+C                                    

 Startparameter for this run:
   NWRITE =      2    write-flag & timer
   PREC   = normal    normal or accurate (medium, high low for compatibility)
   ISTART =      0    job   : 0-new  1-cont  2-samecut
   ICHARG =      2    charge: 1-file 2-atom 10-const
   ISPIN  =      2    spin polarized calculation?
   LNONCOLLINEAR =      F non collinear calculations
   LSORBIT =      F    spin-orbit coupling
   INIWAV =      1    electr: 0-lowe 1-rand  2-diag
   LASPH  =      T    aspherical Exc in radial PAW
 Electronic Relaxation 1
   ENCUT  =  700.0 eV  51.45 Ry    7.17 a.u.  28.70 35.15 17.25*2*pi/ulx,y,z
   ENINI  =  700.0     initial cutoff
   ENAUG  =  900.0 eV  augmentation charge cutoff
   NELM   =    100;   NELMIN=  2; NELMDL= -5     # of ELM steps 
   EDIFF  = 0.1E-06   stopping-criterion for ELM
   LREAL  =      T    real-space projection
   NLSPLINE    = F    spline interpolate recip. space projectors
   LCOMPAT=      F    compatible to vasp.4.4
   GGA_COMPAT  = T    GGA compatible to vasp.4.4-vasp.4.6
   LMAXPAW     = -100 max onsite density
   LMAXMIX     =    6 max onsite mixed and CHGCAR
   VOSKOWN=      0    Vosko Wilk Nusair interpolation
   ROPT   =   -0.00050  -0.00050
 Ionic relaxation
   EDIFFG = 0.1E-05   stopping-criterion for IOM
   NSW    =      0    number of steps for IOM
   NBLOCK =      1;   KBLOCK =      1    inner block; outer block 
   IBRION =     -1    ionic relax: 0-MD 1-quasi-New 2-CG
   NFREE  =      0    steps in history (QN), initial steepest desc. (CG)
   ISIF   =      2    stress and relaxation
   IWAVPR =     10    prediction:  0-non 1-charg 2-wave 3-comb
   ISYM   =      2    0-nonsym 1-usesym 2-fastsym
   LCORR  =      T    Harris-Foulkes like correction to forces

   POTIM  = 0.5000    time-step for ionic-motion
   TEIN   =    0.0    initial temperature
   TEBEG  =    0.0;   TEEND  =   0.0 temperature during run
   SMASS  =  -3.00    Nose mass-parameter (am)
   estimated Nose-frequenzy (Omega)   =  0.10E-29 period in steps = 0.13E+47 mass=  -0.404E-26a.u.
   SCALEE = 1.0000    scale energy and forces
   NPACO  =    256;   APACO  = 10.0  distance and # of slots for P.C.
   PSTRESS=    0.0 pullay stress

  Mass of Ions in am
   POMASS =  28.09 12.01
  Ionic Valenz
   ZVAL   =   4.00  4.00
  Atomic Wigner-Seitz radii
   RWIGS  =  -1.00 -1.00
  virtual crystal weights 
   VCA    =   1.00  1.00
   NELECT =     480.0000    total number of electrons
   NUPDOWN=       1.0000    fix difference up-down

 DOS related values:
   EMIN   =  10.00;   EMAX   =-10.00  energy-range for DOS
   EFERMI =   0.00;   METHOD = LEGACY      
   ISMEAR =     0;   SIGMA  =   0.01  broadening in eV -4-tet -1-fermi 0-gaus

 Electronic relaxation 2 (details)
   IALGO  =     38    algorithm
   LDIAG  =      T    sub-space diagonalisation (order eigenvalues)
   LSUBROT=      F    optimize rotation matrix (better conditioning)
   TURBO    =      0    0=normal 1=particle mesh
   IRESTART =      0    0=no restart 2=restart with 2 vectors
   NREBOOT  =      0    no. of reboots
   NMIN     =      0    reboot dimension
   EREF     =   0.00    reference energy to select bands
   IMIX   =      4    mixing-type and parameters
     AMIX     =   0.60;   BMIX     =  1.00
     AMIX_MAG =   2.40;   BMIX_MAG =  1.00
     AMIN     =   0.10
     WC   =   100.;   INIMIX=   1;  MIXPRE=   1;  MAXMIX= -45

 Intra band minimization:
   WEIMIN = 0.0000     energy-eigenvalue tresh-hold
   EBREAK =  0.87E-10  absolut break condition
   DEPER  =   0.30     relativ break condition  

   TIME   =   0.40     timestep for ELM

  volume/ion in A,a.u.               =      13.18        88.96
  Fermi-wavevector in a.u.,A,eV,Ry     =   1.100099  2.078885 16.466000  1.210217
  Thomas-Fermi vector in A             =   2.236504
 
 Write flags
   LWAVE        =      F    write WAVECAR
   LDOWNSAMPLE  =      F    k-point downsampling of WAVECAR
   LCHARG       =      T    write CHGCAR
   LVTOT        =      F    write LOCPOT, total local potential
   LVHAR        =      T    write LOCPOT, Hartree potential only
   WRT_POTENTIAL=  hartree ionic  ! write potential to hdf5 file
   LELF         =      F    write electronic localiz. function (ELF)
   LORBIT       =      0    0 simple, 1 ext, 2 COOP (PROOUT), +10 PAW based schemes


 Dipole corrections
   LMONO      =      F    monopole corrections only (constant potential shift)
   LDIPOL     =      F    correct potential (dipole corrections)
   IDIPOL     =      0    1-x, 2-y, 3-z, 4-all directions 
   EPSILON    =  1.0000000 bulk dielectric constant
   LVACPOTAV  =      F  vacuum potentials using an averaging scheme for the charge density
   VACPOTFLAT =  0.1000000 required flatness to determine vacuum potential
 Exchange correlation treatment:
   GGA     = PE    functional components
   XC_C    = 1    coefficients multiplying the functional components
   LIBXC   =     F    Libxc                    
   VOSKOWN =     0    Vosko Wilk Nusair interpolation
   LHFCALC =     F    Hartree Fock is set to
   LHFONE  =     F    Hartree Fock one center treatment
   AEXX    =    0.0000 exact exchange contribution

 Parameters of functionals:
   PE:
     No parameter
 
 Van der Waals corrections
   IVDW    =     0    specifies the selected vdW correction

 Linear response parameters
   LEPSILON=     F    determine dielectric tensor
   LRPA    =     F    only Hartree local field effects (RPA)
   LNABLA  =     F    use nabla operator in PAW spheres
   LVEL    =     F    velocity operator in full k-point grid
   CSHIFT  =0.1000    complex shift for real part using Kramers Kronig
   OMEGAMAX=  -1.0    maximum frequency
   DEG_THRESHOLD= 0.2000000E-02 threshold for treating states as degnerate
   RTIME   =   -0.100 relaxation time in fs
  (WPLASMAI=    0.000 imaginary part of plasma frequency in eV, 0.658/RTIME)
   DFIELD  = 0.0000000 0.0000000 0.0000000 field for delta impulse in time
 
  Optional k-point grid parameters
   LKPOINTS_OPT  =     F    use optional k-point grid
   KPOINTS_OPT_MODE=     1    mode for optional k-point grid
 
 Orbital magnetization related:
   ORBITALMAG=     F  switch on orbital magnetization
   LCHIMAG   =     F  perturbation theory with respect to B field
   DQ        =  0.001000  dq finite difference perturbation B field
   LLRAUG    =     F  two centre corrections for induced B field
   LBONE     =     F  B-component reconstruction in AE one-centre
   LVGVCALC  =     T  calculate vGv susceptibility
   LVGVAPPL  =     F  apply vGv susceptibility instead of pGv for G=0

 Random number generation:
   RANDOM_GENERATOR = DEFAULT
   PCG_SEED         = not used


--------------------------------------------------------------------------------------------------------


 Static calculation
 charge density and potential will be updated during run
 spin polarized calculation
 Variant of blocked Davidson
 Davidson routine will perform the subspace rotation
 perform sub-space diagonalisation
    after iterative eigenvector-optimisation
 modified Broyden-mixing scheme, WC =      100.0
 initial mixing is a Kerker type mixing with AMIX =  0.6000 and BMIX =      1.0000
 Hartree-type preconditioning will be used
 using additional bands           48
 real space projection scheme for non local part
 use partial core corrections
 calculate Harris-corrections to forces 
   (improved forces if not selfconsistent)
 use gradient corrections 
 use of overlap-Matrix (Vanderbilt PP)
 Gauss-broadening in eV      SIGMA  =   0.01


--------------------------------------------------------------------------------------------------------


  energy-cutoff  :      700.00
  volume of cell :     1581.87
      direct lattice vectors                 reciprocal lattice vectors
    13.303179741  0.000000000  0.000000000     0.075169998 -0.033617044  0.000000000
     6.651589394 14.873406410  0.000000000     0.000000000  0.067234094  0.000000000
     0.000000000  0.000000000  7.994752407     0.000000000  0.000000000  0.125082047

  length of vectors
    13.303179741 16.293000328  7.994752407     0.082344607  0.067234094  0.125082047


 
 k-points in units of 2pi/SCALE and weight: Automatic KPOINTS generated             
   0.00000000  0.00000000  0.00000000       0.042
   0.02505667 -0.01120568  0.00000000       0.083
   0.00000000  0.03361705  0.00000000       0.042
   0.02505667  0.02241137  0.00000000       0.083
   0.00000000  0.00000000  0.03127051       0.083
   0.02505667 -0.01120568  0.03127051       0.083
  -0.02505667  0.01120568  0.03127051       0.083
   0.00000000  0.03361705  0.03127051       0.083
   0.02505667  0.02241137  0.03127051       0.083
  -0.02505667  0.04482273  0.03127051       0.083
   0.00000000  0.00000000  0.06254102       0.042
   0.02505667 -0.01120568  0.06254102       0.083
   0.00000000  0.03361705  0.06254102       0.042
   0.02505667  0.02241137  0.06254102       0.083
 
 k-points in reciprocal lattice and weights: Automatic KPOINTS generated             
   0.00000000  0.00000000  0.00000000       0.042
   0.33333333 -0.00000000  0.00000000       0.083
   0.00000000  0.50000000  0.00000000       0.042
   0.33333333  0.50000000  0.00000000       0.083
   0.00000000  0.00000000  0.25000000       0.083
   0.33333333 -0.00000000  0.25000000       0.083
  -0.33333333  0.00000000  0.25000000       0.083
   0.00000000  0.50000000  0.25000000       0.083
   0.33333333  0.50000000  0.25000000       0.083
  -0.33333333  0.50000000  0.25000000       0.083
   0.00000000  0.00000000  0.50000000       0.042
   0.33333333 -0.00000000  0.50000000       0.083
   0.00000000  0.50000000  0.50000000       0.042
   0.33333333  0.50000000  0.50000000       0.083
 
 position of ions in fractional coordinates (direct lattice) 
   0.28324950  0.64162475  0.00000005
   0.81658280  0.40829128  0.15190083
   0.34991598  0.17495777  0.30380166
   0.61658275  0.30829138  0.00000006
   0.14991605  0.07495793  0.15190083
   0.68324923  0.84162444  0.30380163
   0.94991612  0.97495806  0.00000004
   0.48324949  0.74162459  0.15190083
   0.01658267  0.50829112  0.30380163
   0.79991627  0.77495801  0.07595029
   0.33324951  0.54162455  0.22785109
   0.86658275  0.30829108  0.37975195
   0.13324969  0.44162476  0.07595030
   0.66658294  0.20829128  0.22785109
   0.19991624  0.97495776  0.37975195
   0.46658289  0.10829154  0.07595030
   0.99991614  0.87495804  0.22785109
   0.53324938  0.64162457  0.37975195
   0.78324956  0.64162475  0.00000000
   0.31658283  0.40829128  0.15190081
   0.84991604  0.17495778  0.30380166
   0.11658280  0.30829140  0.00000006
   0.64991605  0.07495795  0.15190086
   0.18324930  0.84162450  0.30380166
   0.44991612  0.97495806  0.00000006
   0.98324943  0.74162459  0.15190086
   0.51658267  0.50829112  0.30380166
   0.29991618  0.77495813  0.07595030
   0.83324945  0.54162467  0.22785115
   0.36658269  0.30829120  0.37975192
   0.63324940  0.44162473  0.07595032
   0.16658264  0.20829126  0.22785115
   0.69991595  0.97495782  0.37975189
   0.96658272  0.10829155  0.07595030
   0.49991596  0.87495804  0.22785115
   0.03324926  0.64162463  0.37975195
   0.25673318  0.88883990  0.76469648
   0.59959024  0.91741157  0.56517530
   0.92816174  0.90312576  0.66493589
   0.54244733  0.74598283  0.76469648
   0.88530457  0.77455443  0.56517530
   0.21387601  0.76026863  0.66493589
   0.82816160  0.60312569  0.76469648
   0.17101872  0.63169730  0.56517530
   0.49959019  0.61741149  0.66493589
   0.11387598  0.46026850  0.76469648
   0.45673311  0.48884010  0.56517523
   0.78530455  0.47455433  0.66493589
   0.39959028  0.31741136  0.76469648
   0.74244738  0.34598297  0.56517523
   0.07101882  0.33169720  0.66493589
   0.68530452  0.17455426  0.76469648
   0.02816164  0.20312586  0.56517523
   0.35673311  0.18884009  0.66493589
   0.97101891  0.03169715  0.76469654
   0.31387597  0.06026864  0.56517523
   0.64244747  0.04598296  0.66493589
   0.70673299  0.98883992  0.81457668
   0.04959011  0.01741147  0.61505550
   0.37816158  0.00312567  0.71481615
   0.99244726  0.84598279  0.81457668
   0.33530441  0.87455440  0.61505550
   0.66387582  0.86026853  0.71481615
   0.27816153  0.70312566  0.81457681
   0.62101871  0.73169726  0.61505544
   0.94959021  0.71741146  0.71481609
   0.56387591  0.56026858  0.81457668
   0.90673304  0.58884013  0.61505544
   0.23530447  0.57455438  0.71481615
   0.84959030  0.41741145  0.81457681
   0.19244742  0.44598302  0.61505544
   0.52101874  0.43169725  0.71481609
   0.13530445  0.27455425  0.81457681
   0.47816163  0.30312586  0.61505550
   0.80673313  0.28884006  0.71481615
   0.42101887  0.13169712  0.81457668
   0.76387596  0.16026872  0.61505550
   0.09244740  0.14598292  0.71481609
   0.75673306  0.88883996  0.76469648
   0.09959018  0.91741145  0.56517523
   0.42816153  0.90312576  0.66493595
   0.04244757  0.74598283  0.76469654
   0.38530457  0.77455443  0.56517523
   0.71387601  0.76026863  0.66493589
   0.32816186  0.60312569  0.76469654
   0.67101884  0.63169730  0.56517523
   0.99959028  0.61741149  0.66493589
   0.61387598  0.46026856  0.76469654
   0.95673311  0.48884013  0.56517523
   0.28530446  0.47455436  0.66493589
   0.89959013  0.31741148  0.76469654
   0.24244738  0.34598300  0.56517523
   0.57101882  0.33169720  0.66493589
   0.18530464  0.17455427  0.76469654
   0.52816164  0.20312583  0.56517530
   0.85673320  0.18884003  0.66493589
   0.47101882  0.03169715  0.76469654
   0.81387591  0.06026876  0.56517530
   0.14244735  0.04598296  0.66493589
   0.20673311  0.98884004  0.81457668
   0.54959023  0.01741159  0.61505550
   0.87816155  0.00312567  0.71481609
   0.49244741  0.84598285  0.81457668
   0.83530450  0.87455446  0.61505550
   0.16387594  0.86026859  0.71481609
   0.77816164  0.70312566  0.81457668
   0.12101889  0.73169726  0.61505550
   0.44959035  0.71741140  0.71481609
   0.06387579  0.56026858  0.81457663
   0.40673307  0.58884007  0.61505544
   0.73530447  0.57455432  0.71481609
   0.34959033  0.41741139  0.81457668
   0.69244748  0.44598296  0.61505544
   0.02101886  0.43169719  0.71481609
   0.63530433  0.27455422  0.81457668
   0.97816157  0.30312583  0.61505544
   0.30673292  0.28884006  0.71481609
   0.92101872  0.13169719  0.81457668
   0.26387596  0.16026869  0.61505550
   0.59244728  0.14598292  0.71481615
 
 position of ions in cartesian coordinates  (Angst):
   8.03594335  9.54314565  0.00000038
  13.57893370  6.07268214  1.21440951
   5.81874242  2.60221797  2.42881902
  10.25313881  4.58534293  0.00000046
   2.49294957  1.11487976  1.21440951
  14.68752757 12.51782233  2.42881878
  19.12192564 14.50094749  0.00000032
  11.36173704 11.03048399  1.21440951
   3.60154607  7.56002048  2.42881878
  15.79613238 11.52626549  0.60720374
   8.03594220  8.05580199  1.82161307
  13.57893176  4.58533850  3.03602282
   4.71015109  6.56846455  0.60720386
  10.25314074  3.09800081  1.82161307
   9.14454045 14.50094306  3.03602282
   6.92734694  1.61066404  0.60720386
  19.12192569 13.01360649  1.82161307
  11.36173551  9.54314299  3.03602282
  14.68753401  9.54314565  0.00000000
   6.92734422  6.07268214  1.21440939
  12.47033319  2.60221820  2.42881902
   3.60154973  4.58534336  0.00000046
   9.14453959  1.11488008  1.21440975
   8.03593889 12.51782320  2.42881902
  12.47033577 14.50094749  0.00000046
  18.01332613 11.03048399  1.21440975
  10.25313594  7.56002048  2.42881902
   9.14454213 11.52626728  0.60720386
  14.68753208  8.05580376  1.82161355
   6.92734190  4.58534027  3.03602258
  11.36173699  6.56846410  0.60720398
   3.60154680  3.09800059  1.82161355
  15.79612675 14.50094395  3.03602234
  13.57893454  1.61066425  0.60720386
  12.47033344 13.01360649  1.82161355
   4.71014445  9.54314387  3.03602282
   9.32756568 13.22007707  6.11355902
  14.07870180 13.64503507  4.51843655
  18.35472420 13.43255651  5.31599778
  12.17824577 11.09530575  6.11355902
  16.92938386 11.52026284  4.51843655
   7.90222574 11.30778430  5.31599778
  15.02892703  8.97053352  6.11355902
   6.47688381  9.39549063  4.51843655
  10.75290581  9.18301207  5.31599778
   4.57642975  6.84576041  6.11355902
   9.32756627  7.27071752  4.51843607
  13.60358808  7.05823941  5.31599778
   7.42711143  4.72098820  6.11355902
  12.17824754  5.14594531  4.51843607
   3.15108961  4.93346720  5.31599778
  10.27779250  2.59621643  6.11355902
   1.72574927  3.02117353  4.51843607
   6.00177148  2.80869542  5.31599778
  13.12847555  0.47144465  6.11355949
   4.57643074  0.89639999  4.51843607
   8.85245394  0.68392321  5.31599778
  15.97915312 14.70741806  6.51233891
   0.77552011  0.25896787  4.91721645
   5.05154212  0.04648933  5.71477816
  18.82983440 12.58264585  6.51233891
  10.27779157 13.00760296  4.91721645
  14.55381238 12.79512351  5.71477816
   8.37733593 10.45787364  6.51233987
  13.12847324 10.88283073  4.91721598
  17.40449564 10.67035218  5.71477768
  11.22801919  8.33310230  6.51233891
  15.97915530  8.75805852  4.91721598
   6.95199757  8.54558086  5.71477816
  14.07870205  6.20833009  6.51233987
   5.52665861  6.63328674  4.91721598
   9.80267884  6.42080863  5.71477768
   3.62620159  4.08355699  6.51233987
   8.37733889  4.50851408  4.91721645
  12.65336129  4.29603553  5.71477816
   6.47688484  1.95878476  6.51233891
  11.22802095  2.38374187  4.91721645
   2.20086283  2.17126331  5.71477768
  15.97915436 13.22007796  6.11355902
   7.42711034 13.64503330  4.51843607
  11.70313156 13.43255651  5.31599825
   5.52665907 11.09530575  6.11355949
  10.27779399 11.52026284  4.51843607
  14.55381561 11.30778430  5.31599778
   8.37734072  8.97053352  6.11355949
  13.12847527  9.39549063  4.51843607
  17.40449688  9.18301207  5.31599778
  11.22802002  6.84576131  6.11355949
  15.97915634  7.27071797  4.51843607
   6.95199722  7.05823986  5.31599778
  14.07870011  4.72098997  6.11355949
   5.52665787  5.14594576  4.51843607
   9.80267948  4.93346720  5.31599778
   3.62620431  2.59621664  6.11355949
   8.37733894  3.02117308  4.51843655
  12.65336214  2.80869454  5.31599778
   6.47688449  0.47144465  6.11355949
  11.22802062  0.89640176  4.51843655
   2.20086248  0.68392321  5.31599778
   9.32756564 14.70741985  6.51233891
   7.42711236  0.25896965  4.91721645
  11.70313160  0.04648933  5.71477768
  12.17824691 12.58264674  6.51233891
  16.92938303 13.00760384  4.91721645
   7.90222449 12.79512441  5.71477768
  15.02892739 10.45787364  6.51233891
   6.47688575 10.88283073  4.91721645
  10.75290736 10.67035130  5.71477768
   4.57642772  8.33310230  6.51233844
   9.32756543  8.75805763  4.91721598
  13.60358704  8.54557997  5.71477768
   7.42711216  6.20832920  6.51233891
  12.17824889  6.63328586  4.91721598
   3.15109016  6.42080775  5.71477768
  10.27778968  4.08355654  6.51233891
  15.02892777  4.50851365  4.91721598
   6.00176865  4.29603553  5.71477768
  13.12847323  1.95878587  6.51233891
   4.57643088  2.38374142  4.91721645
   8.85245112  2.17126331  5.71477816
 


--------------------------------------------------------------------------------------------------------


 k-point     1 :   0.0000 0.0000 0.0000  plane waves:   66547
 k-point     2 :   0.3333-0.0000 0.0000  plane waves:   66521
 k-point     3 :   0.0000 0.5000 0.0000  plane waves:   66576
 k-point     4 :   0.3333 0.5000 0.0000  plane waves:   66552
 k-point     5 :   0.0000 0.0000 0.2500  plane waves:   66560
 k-point     6 :   0.3333-0.0000 0.2500  plane waves:   66504
 k-point     7 :  -0.3333 0.0000 0.2500  plane waves:   66504
 k-point     8 :   0.0000 0.5000 0.2500  plane waves:   66556
 k-point     9 :   0.3333 0.5000 0.2500  plane waves:   66492
 k-point    10 :  -0.3333 0.5000 0.2500  plane waves:   66492
 k-point    11 :   0.0000 0.0000 0.5000  plane waves:   66494
 k-point    12 :   0.3333-0.0000 0.5000  plane waves:   66548
 k-point    13 :   0.0000 0.5000 0.5000  plane waves:   66504
 k-point    14 :   0.3333 0.5000 0.5000  plane waves:   66532

 maximum and minimum number of plane-waves per node :      4205     4109

 maximum number of plane-waves:     66576
 maximum index in each direction: 
   IXMAX=   29   IYMAX=   35   IZMAX=   17
   IXMIN=  -29   IYMIN=  -35   IZMIN=  -17


 real space projection operators:
  total allocation   :      11127.50 KBytes
  max/ min on nodes  :        763.19        637.94


 parallel 3D FFT for wavefunctions:
    minimum data exchange during FFTs selected (reduces bandwidth)
 parallel 3D FFT for charge:
    minimum data exchange during FFTs selected (reduces bandwidth)


 total amount of memory used by VASP MPI-rank0   191270. kBytes
=======================================================================

   base      :      30000. kBytes
   nonlr-proj:       4467. kBytes
   fftplans  :      11230. kBytes
   grid      :       8501. kBytes
   one-center:         49. kBytes
   wavefun   :     137023. kBytes
 
     INWAV:  cpu time      0.0000: real time      0.0002
 Broyden mixing: mesh for mixing (old mesh)
   NGX = 57   NGY = 71   NGZ = 35
  (NGX  =180   NGY  =216   NGZ  =108)
  gives a total of 141645 points

 initial charge density was supplied:
 charge density of overlapping atoms calculated
 number of electron     480.0000000 magnetization       1.0000000
 keeping initial charge density in first step


--------------------------------------------------------------------------------------------------------


 Maximum index for non-local projection operator          186
 Maximum index for augmentation-charges         2330 (set IRDMAX)


--------------------------------------------------------------------------------------------------------


 First call to EWALD:  gamma=   0.152
 Maximum number of real-space cells 3x 2x 4
 Maximum number of reciprocal cells 3x 4x 2

    FEWALD:  cpu time      0.0036: real time      0.0036


--------------------------------------- Ionic step        1  -------------------------------------------




--------------------------------------- Iteration      1(   1)  ---------------------------------------


    POTLOK:  cpu time      0.1477: real time      0.1492
    SETDIJ:  cpu time      0.5758: real time      0.5783
     EDDAV:  cpu time     27.2431: real time     27.4664
       DOS:  cpu time      0.0041: real time      0.0041
    --------------------------------------------
      LOOP:  cpu time     27.9707: real time     28.1981

 eigenvalue-minimisations  : 16128
 total energy-change (2. order) : 0.2380099E+04  (-0.2558496E+05)
 number of electron     480.0000000 magnetization       1.0000000
 augmentation part      480.0000000 magnetization       1.0000000

 Free energy of the ion-electron system (eV)
  ---------------------------------------------------
  alpha Z        PSCENC =       615.38768994
  Ewald energy   TEWEN  =     -8772.60756103
  -Hartree energ DENC   =     -8330.53373214
  -exchange      EXHF   =         0.00000000
  -V(xc)+E(xc)   XCENC  =       738.02598912
  PAW double counting   =     12288.30765307   -11702.77953025
  entropy T*S    EENTRO =        -0.00081746
  eigenvalues    EBANDS =      1473.06969327
  atomic energy  EATOM  =     16071.23009607
  Solvation  Ediel_sol  =         0.00000000
  ---------------------------------------------------
  free energy    TOTEN  =      2380.09948060 eV

  energy without entropy =     2380.10029806  energy(sigma->0) =     2380.09988933


--------------------------------------------------------------------------------------------------------




--------------------------------------- Iteration      1(   2)  ---------------------------------------


     EDDAV:  cpu time     31.8566: real time     32.1206
       DOS:  cpu time      0.0034: real time      0.0034
    --------------------------------------------
      LOOP:  cpu time     31.8600: real time     32.1239

 eigenvalue-minimisations  : 19776
 total energy-change (2. order) :-0.2895145E+04  (-0.2763321E+04)
 number of electron     480.0000000 magnetization       1.0000000
 augmentation part      480.0000000 magnetization       1.0000000

 Free energy of the ion-electron system (eV)
  ---------------------------------------------------
  alpha Z        PSCENC =       615.38768994
  Ewald energy   TEWEN  =     -8772.60756103
  -Hartree energ DENC   =     -8330.53373214
  -exchange      EXHF   =         0.00000000
  -V(xc)+E(xc)   XCENC  =       738.02598912
  PAW double counting   =     12288.30765307   -11702.77953025
  entropy T*S    EENTRO =        -0.00207816
  eigenvalues    EBANDS =     -1422.07426707
  atomic energy  EATOM  =     16071.23009607
  Solvation  Ediel_sol  =         0.00000000
  ---------------------------------------------------
  free energy    TOTEN  =      -515.04574045 eV

  energy without entropy =     -515.04366229  energy(sigma->0) =     -515.04470137


--------------------------------------------------------------------------------------------------------




--------------------------------------- Iteration      1(   3)  ---------------------------------------


     EDDAV:  cpu time     32.1031: real time     32.3683
       DOS:  cpu time      0.0035: real time      0.0035
    --------------------------------------------
      LOOP:  cpu time     32.1066: real time     32.3718

 eigenvalue-minimisations  : 20024
 total energy-change (2. order) :-0.3115220E+03  (-0.2974297E+03)
 number of electron     480.0000000 magnetization       1.0000000
 augmentation part      480.0000000 magnetization       1.0000000

 Free energy of the ion-electron system (eV)
  ---------------------------------------------------
  alpha Z        PSCENC =       615.38768994
  Ewald energy   TEWEN  =     -8772.60756103
  -Hartree energ DENC   =     -8330.53373214
  -exchange      EXHF   =         0.00000000
  -V(xc)+E(xc)   XCENC  =       738.02598912
  PAW double counting   =     12288.30765307   -11702.77953025
  entropy T*S    EENTRO =        -0.00215368
  eigenvalues    EBANDS =     -1733.59616296
  atomic energy  EATOM  =     16071.23009607
  Solvation  Ediel_sol  =         0.00000000
  ---------------------------------------------------
  free energy    TOTEN  =      -826.56771185 eV

  energy without entropy =     -826.56555817  energy(sigma->0) =     -826.56663501


--------------------------------------------------------------------------------------------------------




--------------------------------------- Iteration      1(   4)  ---------------------------------------


     EDDAV:  cpu time     33.8644: real time     34.1443
       DOS:  cpu time      0.0037: real time      0.0037
    --------------------------------------------
      LOOP:  cpu time     33.8681: real time     34.1480

 eigenvalue-minimisations  : 21520
 total energy-change (2. order) :-0.1646245E+02  (-0.1584789E+02)
 number of electron     480.0000000 magnetization       1.0000000
 augmentation part      480.0000000 magnetization       1.0000000

 Free energy of the ion-electron system (eV)
  ---------------------------------------------------
  alpha Z        PSCENC =       615.38768994
  Ewald energy   TEWEN  =     -8772.60756103
  -Hartree energ DENC   =     -8330.53373214
  -exchange      EXHF   =         0.00000000
  -V(xc)+E(xc)   XCENC  =       738.02598912
  PAW double counting   =     12288.30765307   -11702.77953025
  entropy T*S    EENTRO =        -0.00183911
  eigenvalues    EBANDS =     -1750.05892616
  atomic energy  EATOM  =     16071.23009607
  Solvation  Ediel_sol  =         0.00000000
  ---------------------------------------------------
  free energy    TOTEN  =      -843.03016048 eV

  energy without entropy =     -843.02832138  energy(sigma->0) =     -843.02924093


--------------------------------------------------------------------------------------------------------




--------------------------------------- Iteration      1(   5)  ---------------------------------------


     EDDAV:  cpu time     36.0058: real time     36.3099
       DOS:  cpu time      0.0033: real time      0.0033
    CHARGE:  cpu time      1.1657: real time      1.1715
    MIXING:  cpu time      0.0035: real time      0.0035
    --------------------------------------------
      LOOP:  cpu time     37.1783: real time     37.4883

 eigenvalue-minimisations  : 23168
 total energy-change (2. order) :-0.8615972E+00  (-0.8469398E+00)
 number of electron     479.9999999 magnetization       1.0000000
 augmentation part       -0.8100026 magnetization       0.0218666

 Broyden mixing:
  rms(total) = 0.40513E+01    rms(broyden)= 0.40513E+01
  rms(prec ) = 0.52649E+01
  weight for this iteration     100.00

 Free energy of the ion-electron system (eV)
  ---------------------------------------------------
  alpha Z        PSCENC =       615.38768994
  Ewald energy   TEWEN  =     -8772.60756103
  -Hartree energ DENC   =     -8330.53373214
  -exchange      EXHF   =         0.00000000
  -V(xc)+E(xc)   XCENC  =       738.02598912
  PAW double counting   =     12288.30765307   -11702.77953025
  entropy T*S    EENTRO =        -0.00193551
  eigenvalues    EBANDS =     -1750.92042700
  atomic energy  EATOM  =     16071.23009607
  Solvation  Ediel_sol  =         0.00000000
  ---------------------------------------------------
  free energy    TOTEN  =      -843.89175773 eV

  energy without entropy =     -843.88982221  energy(sigma->0) =     -843.89078997


--------------------------------------------------------------------------------------------------------




--------------------------------------- Iteration      1(   6)  ---------------------------------------


    POTLOK:  cpu time      0.1269: real time      0.1284
    SETDIJ:  cpu time      0.5808: real time      0.5834
     EDDAV:  cpu time     34.8779: real time     35.1703
       DOS:  cpu time      0.0031: real time      0.0031
    CHARGE:  cpu time      1.1695: real time      1.1755
    MIXING:  cpu time      0.0031: real time      0.0031
    --------------------------------------------
      LOOP:  cpu time     36.7613: real time     37.0637

 eigenvalue-minimisations  : 22208
 total energy-change (2. order) : 0.1262431E+02  (-0.3850273E+02)
 number of electron     479.9999999 magnetization       1.0000000
 augmentation part       -4.4173901 magnetization       0.0257873

 Broyden mixing:
  rms(total) = 0.33795E+01    rms(broyden)= 0.33795E+01
  rms(prec ) = 0.51347E+01
  weight for this iteration     100.00

 eigenvalues of (default mixing * dielectric matrix)
  average eigenvalue GAMMA=   0.6309
  0.6309

 Free energy of the ion-electron system (eV)
  ---------------------------------------------------
  alpha Z        PSCENC =       615.38768994
  Ewald energy   TEWEN  =     -8772.60756103
  -Hartree energ DENC   =     -9221.18288146
  -exchange      EXHF   =         0.00000000
  -V(xc)+E(xc)   XCENC  =       771.81823421
  PAW double counting   =     22320.81648726   -21740.65253689
  entropy T*S    EENTRO =        -0.00156662
  eigenvalues    EBANDS =      -876.07540434
  atomic energy  EATOM  =     16071.23009607
  Solvation  Ediel_sol  =         0.00000000
  ---------------------------------------------------
  free energy    TOTEN  =      -831.26744285 eV

  energy without entropy =     -831.26587623  energy(sigma->0) =     -831.26665954


--------------------------------------------------------------------------------------------------------




--------------------------------------- Iteration      1(   7)  ---------------------------------------


    POTLOK:  cpu time      0.1265: real time      0.1287
    SETDIJ:  cpu time      0.5818: real time      0.5843
     EDDAV:  cpu time     35.4524: real time     35.7580
       DOS:  cpu time      0.0033: real time      0.0033
    CHARGE:  cpu time      1.1534: real time      1.1590
    MIXING:  cpu time      0.0033: real time      0.0034
    --------------------------------------------
      LOOP:  cpu time     37.3207: real time     37.6366

 eigenvalue-minimisations  : 22656
 total energy-change (2. order) : 0.3598394E+02  (-0.1716876E+02)
 number of electron     479.9999999 magnetization       1.0000000
 augmentation part       -3.2490544 magnetization       0.0234860

 Broyden mixing:
  rms(total) = 0.12989E+01    rms(broyden)= 0.12988E+01
  rms(prec ) = 0.16843E+01
  weight for this iteration     100.00

 eigenvalues of (default mixing * dielectric matrix)
  average eigenvalue GAMMA=   0.8441
  1.1876  0.5006

 Free energy of the ion-electron system (eV)
  ---------------------------------------------------
  alpha Z        PSCENC =       615.38768994
  Ewald energy   TEWEN  =     -8772.60756103
  -Hartree energ DENC   =     -8871.07845755
  -exchange      EXHF   =         0.00000000
  -V(xc)+E(xc)   XCENC  =       768.10060985
  PAW double counting   =     26982.04866105   -26402.88507562
  entropy T*S    EENTRO =        -0.00303998
  eigenvalues    EBANDS =     -1185.47642116
  atomic energy  EATOM  =     16071.23009607
  Solvation  Ediel_sol  =         0.00000000
  ---------------------------------------------------
  free energy    TOTEN  =      -795.28349843 eV

  energy without entropy =     -795.28045845  energy(sigma->0) =     -795.28197844


--------------------------------------------------------------------------------------------------------




--------------------------------------- Iteration      1(   8)  ---------------------------------------


    POTLOK:  cpu time      0.1260: real time      0.1280
    SETDIJ:  cpu time      0.5811: real time      0.5837
     EDDAV:  cpu time     35.4663: real time     35.7628
       DOS:  cpu time      0.0029: real time      0.0029
    CHARGE:  cpu time      1.1550: real time      1.1606
    MIXING:  cpu time      0.0034: real time      0.0034
    --------------------------------------------
      LOOP:  cpu time     37.3347: real time     37.6414

 eigenvalue-minimisations  : 22624
 total energy-change (2. order) :-0.5029003E+01  (-0.3787935E+01)
 number of electron     479.9999999 magnetization       1.0000000
 augmentation part       -2.9495903 magnetization       0.0211976

 Broyden mixing:
  rms(total) = 0.11150E+01    rms(broyden)= 0.11150E+01
  rms(prec ) = 0.23831E+01
  weight for this iteration     100.00

 eigenvalues of (default mixing * dielectric matrix)
  average eigenvalue GAMMA=   0.7673
  1.3738  0.5052  0.4228

 Free energy of the ion-electron system (eV)
  ---------------------------------------------------
  alpha Z        PSCENC =       615.38768994
  Ewald energy   TEWEN  =     -8772.60756103
  -Hartree energ DENC   =     -8868.77324465
  -exchange      EXHF   =         0.00000000
  -V(xc)+E(xc)   XCENC  =       770.00076933
  PAW double counting   =     31504.79230794   -30925.60736123
  entropy T*S    EENTRO =        -0.00217564
  eigenvalues    EBANDS =     -1194.73302249
  atomic energy  EATOM  =     16071.23009607
  Solvation  Ediel_sol  =         0.00000000
  ---------------------------------------------------
  free energy    TOTEN  =      -800.31250176 eV

  energy without entropy =     -800.31032612  energy(sigma->0) =     -800.31141394


--------------------------------------------------------------------------------------------------------




--------------------------------------- Iteration      1(   9)  ---------------------------------------


    POTLOK:  cpu time      0.1264: real time      0.1287
    SETDIJ:  cpu time      0.5782: real time      0.5811
     EDDAV:  cpu time     34.1099: real time     34.3957
       DOS:  cpu time      0.0027: real time      0.0027
    CHARGE:  cpu time      1.1636: real time      1.1696
    MIXING:  cpu time      0.0040: real time      0.0040
    --------------------------------------------
      LOOP:  cpu time     35.9848: real time     36.2819

 eigenvalue-minimisations  : 21560
 total energy-change (2. order) : 0.3899168E+01  (-0.1207011E+01)
 number of electron     479.9999999 magnetization       1.0000000
 augmentation part       -3.0427420 magnetization       0.0235709

 Broyden mixing:
  rms(total) = 0.45062E+00    rms(broyden)= 0.45059E+00
  rms(prec ) = 0.70492E+00
  weight for this iteration     100.00

 eigenvalues of (default mixing * dielectric matrix)
  average eigenvalue GAMMA=   0.7781
  1.5882  0.6750  0.5639  0.2853

 Free energy of the ion-electron system (eV)
  ---------------------------------------------------
  alpha Z        PSCENC =       615.38768994
  Ewald energy   TEWEN  =     -8772.60756103
  -Hartree energ DENC   =     -8903.66324382
  -exchange      EXHF   =         0.00000000
  -V(xc)+E(xc)   XCENC  =       771.56889033
  PAW double counting   =     33699.69573625   -33120.58338586
  entropy T*S    EENTRO =        -0.00257625
  eigenvalues    EBANDS =     -1157.43897979
  atomic energy  EATOM  =     16071.23009607
  Solvation  Ediel_sol  =         0.00000000
  ---------------------------------------------------
  free energy    TOTEN  =      -796.41333416 eV

  energy without entropy =     -796.41075791  energy(sigma->0) =     -796.41204604


--------------------------------------------------------------------------------------------------------




--------------------------------------- Iteration      1(  10)  ---------------------------------------


    POTLOK:  cpu time      0.1267: real time      0.1276
    SETDIJ:  cpu time      0.5779: real time      0.5806
     EDDAV:  cpu time     33.7095: real time     33.9894
       DOS:  cpu time      0.0029: real time      0.0029
    CHARGE:  cpu time      1.1644: real time      1.1706
    MIXING:  cpu time      0.0036: real time      0.0036
    --------------------------------------------
      LOOP:  cpu time     35.5850: real time     35.8748

 eigenvalue-minimisations  : 21264
 total energy-change (2. order) : 0.1731408E+00  (-0.3675585E+00)
 number of electron     479.9999999 magnetization       1.0000000
 augmentation part       -3.0461219 magnetization       0.0229866

 Broyden mixing:
  rms(total) = 0.27596E+00    rms(broyden)= 0.27595E+00
  rms(prec ) = 0.41385E+00
  weight for this iteration     100.00

 eigenvalues of (default mixing * dielectric matrix)
  average eigenvalue GAMMA=   0.7581
  1.5982  0.7194  0.7194  0.4649  0.2886

 Free energy of the ion-electron system (eV)
  ---------------------------------------------------
  alpha Z        PSCENC =       615.38768994
  Ewald energy   TEWEN  =     -8772.60756103
  -Hartree energ DENC   =     -8916.93028092
  -exchange      EXHF   =         0.00000000
  -V(xc)+E(xc)   XCENC  =       772.46600415
  PAW double counting   =     35124.84515219   -34545.94813598
  entropy T*S    EENTRO =        -0.00247620
  eigenvalues    EBANDS =     -1144.68068158
  atomic energy  EATOM  =     16071.23009607
  Solvation  Ediel_sol  =         0.00000000
  ---------------------------------------------------
  free energy    TOTEN  =      -796.24019334 eV

  energy without entropy =     -796.23771714  energy(sigma->0) =     -796.23895524


--------------------------------------------------------------------------------------------------------




--------------------------------------- Iteration      1(  11)  ---------------------------------------


    POTLOK:  cpu time      0.1266: real time      0.1278
    SETDIJ:  cpu time      0.5817: real time      0.5843
     EDDAV:  cpu time     33.1105: real time     33.3932
       DOS:  cpu time      0.0032: real time      0.0032
    CHARGE:  cpu time      1.1616: real time      1.1674
    MIXING:  cpu time      0.0038: real time      0.0039
    --------------------------------------------
      LOOP:  cpu time     34.9875: real time     35.2799

 eigenvalue-minimisations  : 20776
 total energy-change (2. order) : 0.7097869E-01  (-0.1101178E+00)
 number of electron     479.9999999 magnetization       1.0000000
 augmentation part       -3.0981021 magnetization       0.0233703

 Broyden mixing:
  rms(total) = 0.18769E+00    rms(broyden)= 0.18768E+00
  rms(prec ) = 0.28868E+00
  weight for this iteration     100.00

 eigenvalues of (default mixing * dielectric matrix)
  average eigenvalue GAMMA=   0.7447
  1.5167  0.9930  0.8063  0.4837  0.2836  0.3848

 Free energy of the ion-electron system (eV)
  ---------------------------------------------------
  alpha Z        PSCENC =       615.38768994
  Ewald energy   TEWEN  =     -8772.60756103
  -Hartree energ DENC   =     -8921.70003510
  -exchange      EXHF   =         0.00000000
  -V(xc)+E(xc)   XCENC  =       772.73442343
  PAW double counting   =     35394.85479160   -34816.04535985
  entropy T*S    EENTRO =        -0.00293941
  eigenvalues    EBANDS =     -1140.02032031
  atomic energy  EATOM  =     16071.23009607
  Solvation  Ediel_sol  =         0.00000000
  ---------------------------------------------------
  free energy    TOTEN  =      -796.16921465 eV

  energy without entropy =     -796.16627524  energy(sigma->0) =     -796.16774495


--------------------------------------------------------------------------------------------------------




--------------------------------------- Iteration      1(  12)  ---------------------------------------


    POTLOK:  cpu time      0.1258: real time      0.1276
    SETDIJ:  cpu time      0.5760: real time      0.5788
     EDDAV:  cpu time     33.0289: real time     33.3051
       DOS:  cpu time      0.0028: real time      0.0028
    CHARGE:  cpu time      1.1683: real time      1.1740
    MIXING:  cpu time      0.0039: real time      0.0039
    --------------------------------------------
      LOOP:  cpu time     34.9057: real time     35.1923

 eigenvalue-minimisations  : 20712
 total energy-change (2. order) : 0.2090704E-01  (-0.3583377E-01)
 number of electron     479.9999999 magnetization       1.0000000
 augmentation part       -3.1191119 magnetization       0.0241620

 Broyden mixing:
  rms(total) = 0.12870E+00    rms(broyden)= 0.12870E+00
  rms(prec ) = 0.16959E+00
  weight for this iteration     100.00

 eigenvalues of (default mixing * dielectric matrix)
  average eigenvalue GAMMA=   0.7965
  1.6002  1.6002  0.7477  0.5180  0.5180  0.2783  0.3132

 Free energy of the ion-electron system (eV)
  ---------------------------------------------------
  alpha Z        PSCENC =       615.38768994
  Ewald energy   TEWEN  =     -8772.60756103
  -Hartree energ DENC   =     -8922.24240950
  -exchange      EXHF   =         0.00000000
  -V(xc)+E(xc)   XCENC  =       772.79613954
  PAW double counting   =     35425.82435197   -34847.05941256
  entropy T*S    EENTRO =        -0.00247149
  eigenvalues    EBANDS =     -1139.47473055
  atomic energy  EATOM  =     16071.23009607
  Solvation  Ediel_sol  =         0.00000000
  ---------------------------------------------------
  free energy    TOTEN  =      -796.14830761 eV

  energy without entropy =     -796.14583612  energy(sigma->0) =     -796.14707187


--------------------------------------------------------------------------------------------------------




--------------------------------------- Iteration      1(  13)  ---------------------------------------


    POTLOK:  cpu time      0.1264: real time      0.1276
    SETDIJ:  cpu time      0.5770: real time      0.5798
     EDDAV:  cpu time     32.9109: real time     33.1894
       DOS:  cpu time      0.0028: real time      0.0029
    CHARGE:  cpu time      1.1661: real time      1.1719
    MIXING:  cpu time      0.0041: real time      0.0041
    --------------------------------------------
      LOOP:  cpu time     34.7872: real time     35.0756

 eigenvalue-minimisations  : 20640
 total energy-change (2. order) : 0.7760043E-02  (-0.1253295E-01)
 number of electron     479.9999999 magnetization       1.0000000
 augmentation part       -3.1215815 magnetization       0.0239953

 Broyden mixing:
  rms(total) = 0.70064E-01    rms(broyden)= 0.70063E-01
  rms(prec ) = 0.86428E-01
  weight for this iteration     100.00

 eigenvalues of (default mixing * dielectric matrix)
  average eigenvalue GAMMA=   0.8358
  1.8466  1.8466  0.7290  0.6295  0.6295  0.4406  0.2883  0.2763

 Free energy of the ion-electron system (eV)
  ---------------------------------------------------
  alpha Z        PSCENC =       615.38768994
  Ewald energy   TEWEN  =     -8772.60756103
  -Hartree energ DENC   =     -8920.65415892
  -exchange      EXHF   =         0.00000000
  -V(xc)+E(xc)   XCENC  =       772.78307589
  PAW double counting   =     35387.38913067   -34808.66116275
  entropy T*S    EENTRO =        -0.00257151
  eigenvalues    EBANDS =     -1141.00508594
  atomic energy  EATOM  =     16071.23009607
  Solvation  Ediel_sol  =         0.00000000
  ---------------------------------------------------
  free energy    TOTEN  =      -796.14054757 eV

  energy without entropy =     -796.13797607  energy(sigma->0) =     -796.13926182


--------------------------------------------------------------------------------------------------------




--------------------------------------- Iteration      1(  14)  ---------------------------------------


    POTLOK:  cpu time      0.1267: real time      0.1279
    SETDIJ:  cpu time      0.5808: real time      0.5837
     EDDAV:  cpu time     33.0708: real time     33.3521
       DOS:  cpu time      0.0036: real time      0.0036
    CHARGE:  cpu time      1.1666: real time      1.1726
    MIXING:  cpu time      0.0045: real time      0.0045
    --------------------------------------------
      LOOP:  cpu time     34.9530: real time     35.2444

 eigenvalue-minimisations  : 20816
 total energy-change (2. order) : 0.6671321E-03  (-0.4039768E-02)
 number of electron     479.9999999 magnetization       1.0000000
 augmentation part       -3.1178775 magnetization       0.0241467

 Broyden mixing:
  rms(total) = 0.36597E-01    rms(broyden)= 0.36596E-01
  rms(prec ) = 0.48429E-01
  weight for this iteration     100.00

 eigenvalues of (default mixing * dielectric matrix)
  average eigenvalue GAMMA=   0.8257
  1.8728  1.8728  0.7732  0.7229  0.7229  0.4638  0.4401  0.2900  0.2731

 Free energy of the ion-electron system (eV)
  ---------------------------------------------------
  alpha Z        PSCENC =       615.38768994
  Ewald energy   TEWEN  =     -8772.60756103
  -Hartree energ DENC   =     -8920.11812546
  -exchange      EXHF   =         0.00000000
  -V(xc)+E(xc)   XCENC  =       772.77934932
  PAW double counting   =     35353.69711556   -34774.98765503
  entropy T*S    EENTRO =        -0.00256498
  eigenvalues    EBANDS =     -1141.51822483
  atomic energy  EATOM  =     16071.23009607
  Solvation  Ediel_sol  =         0.00000000
  ---------------------------------------------------
  free energy    TOTEN  =      -796.13988044 eV

  energy without entropy =     -796.13731546  energy(sigma->0) =     -796.13859795


--------------------------------------------------------------------------------------------------------




--------------------------------------- Iteration      1(  15)  ---------------------------------------


    POTLOK:  cpu time      0.1427: real time      0.1446
    SETDIJ:  cpu time      0.5761: real time      0.5787
     EDDAV:  cpu time     33.2769: real time     33.5596
       DOS:  cpu time      0.0026: real time      0.0026
    CHARGE:  cpu time      1.1632: real time      1.1693
    MIXING:  cpu time      0.0039: real time      0.0039
    --------------------------------------------
      LOOP:  cpu time     35.1654: real time     35.4588

 eigenvalue-minimisations  : 20952
 total energy-change (2. order) : 0.2363060E-02  (-0.1428216E-02)
 number of electron     479.9999999 magnetization       1.0000000
 augmentation part       -3.1205252 magnetization       0.0240143

 Broyden mixing:
  rms(total) = 0.17341E-01    rms(broyden)= 0.17341E-01
  rms(prec ) = 0.21781E-01
  weight for this iteration     100.00

 eigenvalues of (default mixing * dielectric matrix)
  average eigenvalue GAMMA=   0.8316
  1.8544  1.8544  0.9781  0.9781  0.6009  0.6009  0.4902  0.3970  0.2898  0.2723

 Free energy of the ion-electron system (eV)
  ---------------------------------------------------
  alpha Z        PSCENC =       615.38768994
  Ewald energy   TEWEN  =     -8772.60756103
  -Hartree energ DENC   =     -8920.81685014
  -exchange      EXHF   =         0.00000000
  -V(xc)+E(xc)   XCENC  =       772.80923032
  PAW double counting   =     35353.86897612   -34775.16129563
  entropy T*S    EENTRO =        -0.00244260
  eigenvalues    EBANDS =     -1140.84536043
  atomic energy  EATOM  =     16071.23009607
  Solvation  Ediel_sol  =         0.00000000
  ---------------------------------------------------
[...]
   0.394E+02 -.439E+01 -.846E+02   -.429E+02 0.304E+01 0.863E+02   0.488E+01 -.739E+00 -.530E+01   0.676E-03 0.194E-03 -.590E-04
   -.282E+02 -.469E+02 -.151E+03   0.272E+02 0.526E+02 0.151E+03   0.281E+00 -.520E+01 -.330E+01   -.838E-03 -.353E-03 0.193E-03
   0.131E+02 -.349E+02 0.145E+03   -.150E+02 0.371E+02 -.147E+03   0.314E+01 -.567E+01 0.509E+01   0.675E-03 -.523E-03 -.129E-03
   0.340E+02 -.966E+01 -.847E+02   -.376E+02 0.861E+01 0.855E+02   0.480E+01 -.302E+00 -.445E+01   0.241E-03 -.397E-03 0.480E-04
   -.270E+02 -.348E+02 -.202E+03   0.281E+02 0.397E+02 0.209E+03   -.683E+00 -.650E+01 -.951E+01   0.289E-03 -.343E-03 0.166E-04
   0.273E+02 -.340E+02 0.138E+03   -.290E+02 0.358E+02 -.141E+03   0.312E+01 -.546E+01 0.469E+01   0.519E-03 -.173E-03 0.301E-03
   0.428E+02 -.808E+00 -.711E+02   -.465E+02 -.758E+00 0.726E+02   0.428E+01 -.194E+00 -.599E+01   -.102E-02 -.236E-03 -.141E-03
   -.271E+02 -.272E+02 -.197E+03   0.286E+02 0.304E+02 0.202E+03   -.108E+01 -.546E+01 -.798E+01   0.240E-03 -.162E-03 -.251E-04
   0.139E+02 -.352E+02 0.143E+03   -.164E+02 0.378E+02 -.147E+03   0.328E+01 -.629E+01 0.567E+01   0.758E-04 0.346E-03 0.324E-03
   0.441E+02 -.931E+01 -.720E+02   -.477E+02 0.765E+01 0.735E+02   0.439E+01 -.543E+00 -.534E+01   -.377E-03 -.337E-03 0.172E-03
   -.207E+02 -.411E+01 -.140E+03   0.221E+02 0.334E+01 0.136E+03   -.170E+01 -.328E+01 -.594E+01   -.151E-04 0.643E-03 0.213E-03
   0.236E+01 -.343E+02 0.136E+03   -.354E+01 0.356E+02 -.138E+03   0.156E+01 -.471E+01 0.227E+01   -.543E-03 -.210E-03 0.306E-03
   0.365E+02 -.448E+01 -.913E+02   -.393E+02 0.348E+01 0.920E+02   0.469E+01 -.114E+01 -.442E+01   0.449E-03 0.225E-03 0.123E-03
   -.217E+02 -.450E+02 -.177E+03   0.214E+02 0.477E+02 0.181E+03   0.894E+00 -.400E+01 -.490E+01   0.641E-03 0.398E-03 0.401E-04
   0.225E+02 -.295E+02 0.140E+03   -.254E+02 0.311E+02 -.141E+03   0.328E+01 -.544E+01 0.385E+01   -.901E-04 -.121E-03 -.566E-04
   0.356E+02 -.623E+01 -.787E+02   -.393E+02 0.577E+01 0.796E+02   0.492E+01 -.138E+01 -.525E+01   -.605E-03 0.417E-03 -.394E-04
   -.198E+02 0.301E+02 -.152E+03   0.213E+02 -.316E+02 0.155E+03   -.265E+01 0.504E+01 -.371E+01   0.202E-03 0.968E-04 0.624E-04
   0.424E+02 0.268E+02 0.180E+03   -.449E+02 -.298E+02 -.183E+03   0.234E+01 0.448E+01 0.583E+01   -.634E-03 0.289E-03 -.456E-04
   -.360E+02 0.837E+01 0.871E+02   0.394E+02 -.799E+01 -.882E+02   -.422E+01 0.734E+00 0.489E+01   0.540E-03 0.226E-03 -.112E-03
   -.165E+02 0.317E+02 -.148E+03   0.189E+02 -.348E+02 0.150E+03   -.353E+01 0.662E+01 -.455E+01   -.362E-03 -.491E-03 0.457E-04
   0.247E+02 0.206E+02 0.194E+03   -.257E+02 -.245E+02 -.201E+03   0.884E+00 0.441E+01 0.912E+01   -.711E-04 -.151E-03 -.220E-03
   -.350E+02 0.792E+01 0.842E+02   0.380E+02 -.570E+01 -.859E+02   -.401E+01 0.378E+00 0.530E+01   0.547E-03 -.878E-04 -.105E-03
   -.194E+02 0.457E+02 -.113E+03   0.221E+02 -.501E+02 0.113E+03   -.333E+01 0.633E+01 -.116E+01   -.744E-03 -.522E-03 0.893E-04
   0.665E+01 0.286E+02 0.196E+03   -.521E+01 -.319E+02 -.200E+03   -.253E+01 0.533E+01 0.543E+01   0.503E-03 -.341E-03 -.936E-04
   -.369E+02 0.631E+01 0.569E+02   0.398E+02 -.551E+01 -.571E+02   -.508E+01 0.126E+01 0.360E+01   0.480E-03 -.379E-03 0.416E-03
   -.183E+02 0.262E+02 -.133E+03   0.203E+02 -.269E+02 0.133E+03   -.288E+01 0.430E+01 -.229E+01   0.296E-03 -.286E-03 0.152E-04
   0.362E+02 0.385E+02 0.183E+03   -.364E+02 -.410E+02 -.187E+03   0.102E+01 0.432E+01 0.495E+01   0.246E-03 0.143E-03 0.337E-03
   -.395E+02 0.322E+01 0.788E+02   0.429E+02 -.211E+01 -.801E+02   -.454E+01 0.801E+00 0.547E+01   -.593E-03 -.249E-03 0.264E-03
   -.179E+02 0.339E+02 -.155E+03   0.199E+02 -.358E+02 0.159E+03   -.369E+01 0.570E+01 -.444E+01   0.108E-03 0.302E-03 0.236E-03
   0.461E+02 0.170E+02 0.184E+03   -.476E+02 -.187E+02 -.188E+03   0.237E+01 0.311E+01 0.554E+01   0.340E-03 0.518E-03 0.224E-03
   -.338E+02 0.647E+01 0.947E+02   0.376E+02 -.400E+01 -.966E+02   -.442E+01 0.176E+00 0.463E+01   -.439E-03 -.244E-03 0.148E-03
   -.142E+02 0.415E+02 -.139E+03   0.169E+02 -.450E+02 0.142E+03   -.378E+01 0.673E+01 -.561E+01   -.775E-04 0.625E-03 0.270E-03
   0.129E+02 0.326E+02 0.194E+03   -.129E+02 -.377E+02 -.200E+03   0.497E+00 0.623E+01 0.996E+01   -.142E-03 0.488E-04 -.281E-04
   -.369E+02 0.111E+02 0.681E+02   0.401E+02 -.862E+01 -.691E+02   -.435E+01 -.303E+00 0.532E+01   0.155E-03 0.423E-04 0.472E-04
   -.208E+02 0.267E+02 -.113E+03   0.240E+02 -.282E+02 0.115E+03   -.456E+01 0.377E+01 -.293E+01   0.907E-03 0.304E-03 -.790E-04
   0.205E+02 0.298E+02 0.198E+03   -.205E+02 -.343E+02 -.206E+03   0.195E+00 0.612E+01 0.939E+01   -.134E-03 -.171E-03 -.860E-04
   -.402E+02 -.315E+01 0.666E+02   0.431E+02 0.452E+01 -.669E+02   -.434E+01 -.827E-02 0.363E+01   -.823E-03 0.172E-03 -.152E-03
   -.282E+02 -.247E+02 -.205E+03   0.288E+02 0.288E+02 0.212E+03   -.529E+00 -.561E+01 -.994E+01   -.540E-03 0.286E-03 0.219E-03
   0.255E+02 -.385E+02 0.143E+03   -.279E+02 0.413E+02 -.145E+03   0.338E+01 -.632E+01 0.385E+01   0.643E-03 0.292E-03 -.177E-03
   0.466E+02 -.769E+01 -.622E+02   -.505E+02 0.673E+01 0.623E+02   0.442E+01 -.433E+00 -.406E+01   -.166E-03 -.805E-04 0.906E-04
   -.223E+02 -.137E+02 -.190E+03   0.223E+02 0.169E+02 0.195E+03   0.358E+00 -.272E+01 -.784E+01   0.610E-03 -.741E-04 0.137E-03
   0.623E+01 -.275E+02 0.138E+03   -.784E+01 0.294E+02 -.140E+03   0.271E+01 -.475E+01 0.360E+01   -.125E-04 -.144E-03 -.419E-04
   0.394E+02 -.439E+01 -.846E+02   -.429E+02 0.304E+01 0.863E+02   0.488E+01 -.739E+00 -.530E+01   -.867E-03 0.936E-04 0.154E-04
   -.282E+02 -.469E+02 -.151E+03   0.272E+02 0.526E+02 0.151E+03   0.281E+00 -.520E+01 -.330E+01   0.539E-03 -.207E-03 0.104E-03
   0.131E+02 -.349E+02 0.145E+03   -.150E+02 0.371E+02 -.147E+03   0.314E+01 -.567E+01 0.509E+01   -.740E-03 -.640E-03 -.214E-04
   0.340E+02 -.966E+01 -.847E+02   -.376E+02 0.861E+01 0.855E+02   0.480E+01 -.302E+00 -.445E+01   0.273E-03 -.557E-03 0.161E-03
   -.270E+02 -.348E+02 -.202E+03   0.281E+02 0.397E+02 0.209E+03   -.683E+00 -.650E+01 -.951E+01   0.105E-03 0.892E-04 0.413E-05
   0.273E+02 -.340E+02 0.138E+03   -.290E+02 0.358E+02 -.141E+03   0.312E+01 -.546E+01 0.469E+01   -.440E-03 -.435E-03 0.882E-04
   0.428E+02 -.808E+00 -.711E+02   -.465E+02 -.758E+00 0.726E+02   0.428E+01 -.194E+00 -.599E+01   0.347E-03 -.291E-03 -.133E-03
   -.271E+02 -.272E+02 -.197E+03   0.286E+02 0.304E+02 0.202E+03   -.108E+01 -.546E+01 -.798E+01   -.433E-03 -.302E-03 -.618E-04
   0.139E+02 -.352E+02 0.143E+03   -.164E+02 0.378E+02 -.147E+03   0.328E+01 -.629E+01 0.567E+01   0.496E-03 -.193E-03 0.108E-03
   0.441E+02 -.931E+01 -.720E+02   -.477E+02 0.765E+01 0.735E+02   0.439E+01 -.543E+00 -.534E+01   0.116E-03 0.496E-03 0.226E-03
   -.207E+02 -.411E+01 -.140E+03   0.221E+02 0.334E+01 0.136E+03   -.170E+01 -.328E+01 -.594E+01   -.268E-03 -.196E-04 0.673E-04
   0.236E+01 -.343E+02 0.136E+03   -.354E+01 0.356E+02 -.138E+03   0.156E+01 -.471E+01 0.227E+01   -.392E-03 0.281E-03 0.360E-03
   0.365E+02 -.448E+01 -.913E+02   -.393E+02 0.348E+01 0.920E+02   0.469E+01 -.114E+01 -.442E+01   0.666E-03 0.628E-03 0.144E-03
   -.217E+02 -.450E+02 -.177E+03   0.214E+02 0.477E+02 0.181E+03   0.894E+00 -.400E+01 -.490E+01   -.106E-03 0.784E-04 0.741E-04
   0.225E+02 -.295E+02 0.140E+03   -.254E+02 0.311E+02 -.141E+03   0.328E+01 -.544E+01 0.385E+01   0.337E-03 0.584E-03 0.518E-04
   0.356E+02 -.623E+01 -.787E+02   -.393E+02 0.577E+01 0.796E+02   0.492E+01 -.138E+01 -.525E+01   -.265E-03 0.103E-03 -.244E-03
 -----------------------------------------------------------------------------------------------
   -.519E+01 -.219E+01 -.513E+02   -.355E-13 0.220E-12 0.227E-12   0.515E+01 0.211E+01 0.513E+02   0.111E-02 -.205E-03 0.359E-02
 
 
 POSITION                                       TOTAL-FORCE (eV/Angst)
 -----------------------------------------------------------------------------------
      8.03594      9.54315      0.00000        -0.170887     -0.592880      1.320404
     13.57893      6.07268      1.21441         0.427132      0.737751     -0.982814
      5.81874      2.60222      2.42882         0.007423     -0.055007     -0.006594
     10.25314      4.58534      0.00000         0.401528      2.880069      8.620214
      2.49295      1.11488      1.21441         0.451079      0.112446     -0.594545
     14.68753     12.51782      2.42882        -0.667038      0.311139      0.716289
     19.12193     14.50095      0.00000         0.227910     -1.162268     -1.321720
     11.36174     11.03048      1.21441         0.703476      0.336620      0.141110
      3.60155      7.56002      2.42882        -0.763727     -0.141693      1.575569
     15.79613     11.52627      0.60720         0.546300     -0.022321     -0.853771
      8.03594      8.05580      1.82161        -0.539085     -0.058748      0.298393
     13.57893      4.58534      3.03602        -0.747897      0.182683      1.956405
      4.71015      6.56846      0.60720        -0.032047     -0.153449     -0.844445
     10.25314      3.09800      1.82161        -0.277501     -0.508877      0.160078
      9.14454     14.50094      3.03602         1.140620     -0.273574      1.689708
      6.92735      1.61066      0.60720        -0.781429      0.639357     -1.454412
     19.12193     13.01361      1.82161        -0.232588     -0.559500     -0.049365
     11.36174      9.54314      3.03602         0.883249     -0.029991      1.895414
     14.68753      9.54315      0.00000        -0.170887     -0.592880      1.320404
      6.92734      6.07268      1.21441         0.427132      0.737751     -0.982814
     12.47033      2.60222      2.42882         0.007423     -0.055007     -0.006594
      3.60155      4.58534      0.00000         0.401528      2.880069      8.620214
      9.14454      1.11488      1.21441         0.451079      0.112446     -0.594545
      8.03594     12.51782      2.42882        -0.667038      0.311139      0.716289
     12.47034     14.50095      0.00000         0.227910     -1.162268     -1.321720
     18.01333     11.03048      1.21441         0.703476      0.336620      0.141110
     10.25314      7.56002      2.42882        -0.763727     -0.141693      1.575569
      9.14454     11.52627      0.60720         0.546300     -0.022321     -0.853771
     14.68753      8.05580      1.82161        -0.539085     -0.058748      0.298393
      6.92734      4.58534      3.03602        -0.747897      0.182683      1.956405
     11.36174      6.56846      0.60720        -0.032047     -0.153449     -0.844445
      3.60155      3.09800      1.82161        -0.277501     -0.508877      0.160078
     15.79613     14.50094      3.03602         1.140620     -0.273574      1.689708
     13.57893      1.61066      0.60720        -0.781429      0.639357     -1.454412
     12.47033     13.01361      1.82161        -0.232588     -0.559500     -0.049365
      4.71014      9.54314      3.03602         0.883249     -0.029991      1.895414
      9.32757     13.22008      6.11356        -1.119151      3.470134     -0.939466
     14.07870     13.64504      4.51844        -0.163241      1.494047      1.916941
     18.35472     13.43256      5.31600        -0.783727      1.116688      3.815974
     12.17825     11.09531      6.11356        -1.171318      3.443728     -2.350231
     16.92938     11.52026      4.51844        -0.108380      0.523660      2.738911
      7.90223     11.30778      5.31600        -1.012464      2.599594      3.544028
     15.02893      8.97053      6.11356        -0.611229      1.922774     -1.529320
      6.47688      9.39549      4.51844        -1.090984      1.999266      1.115877
     10.75291      9.18301      5.31600        -2.199587      2.059903      3.318182
      4.57643      6.84576      6.11356        -0.920231      3.585353     -1.500105
      9.32757      7.27072      4.51844         0.834708      1.881371      1.262226
     13.60359      7.05824      5.31600        -1.121441      1.913930      4.109377
      7.42711      4.72099      6.11356        -1.732783      3.795097     -1.417076
     12.17825      5.14595      4.51844         0.888764      1.423873      1.428758
      3.15109      4.93347      5.31600        -0.712649      2.646509      2.748976
     10.27779      2.59622      6.11356        -1.095663      3.157432     -3.097165
      1.72575      3.02117      4.51844         0.438813      1.096327      3.301181
      6.00177      2.80870      5.31600        -1.183854      2.134812      4.395664
     13.12848      0.47144      6.11356        -1.377262      2.298933     -1.126920
      4.57643      0.89640      4.51844         0.185231      1.617558      2.220857
      8.85245      0.68392      5.31600        -1.475508      1.370680      3.332864
     15.97915     14.70742      6.51234         0.136752     -1.544244     -2.546565
      0.77552      0.25897      4.91722         1.019525     -3.508550      1.713002
      5.05154      0.04649      5.71478         0.504180     -1.387504     -4.013545
     18.82983     12.58265      6.51234         0.441270      0.455903     -2.696859
     10.27779     13.00760      4.91722         1.104978     -2.893923      0.788012
     14.55381     12.79512      5.71478         1.378659     -2.086141     -3.660367
      8.37734     10.45787      6.51234        -0.664203      0.442512     -3.464707
     13.12847     10.88283      4.91722         1.191585     -3.520464      2.798906
     17.40450     10.67035      5.71478         1.208100     -1.352671     -3.592062
     11.22802      8.33310      6.51234         0.428190     -1.629435     -2.484998
     15.97916      8.75806      4.91722         1.334187     -3.612299      2.139875
      6.95200      8.54558      5.71478         0.621269     -1.759332     -4.482872
     14.07870      6.20833      6.51234         0.395296     -2.221105     -2.775166
      5.52666      6.63329      4.91722         0.818671     -3.728525      2.042945
      9.80268      6.42081      5.71478         0.844379     -2.198564     -3.906060
      3.62620      4.08356      6.51234        -0.254444     -4.056865     -9.624523
      8.37734      4.50851      4.91722         0.376192     -3.427111      0.496371
     12.65336      4.29604      5.71478         1.863090     -2.144362     -3.643440
      6.47688      1.95878      6.51234         0.655214     -1.333161     -1.299396
     11.22802      2.38374      4.91722         0.385131     -3.845563      2.989797
      2.20086      2.17126      5.71478         1.167416     -1.842023     -4.333799
     15.97915     13.22008      6.11356        -1.119151      3.470134     -0.939466
      7.42711     13.64503      4.51844        -0.163241      1.494047      1.916941
     11.70313     13.43256      5.31600        -0.783727      1.116688      3.815974
      5.52666     11.09531      6.11356        -1.171318      3.443728     -2.350231
     10.27779     11.52026      4.51844        -0.108380      0.523660      2.738911
     14.55382     11.30778      5.31600        -1.012464      2.599594      3.544028
      8.37734      8.97053      6.11356        -0.611229      1.922774     -1.529320
     13.12848      9.39549      4.51844        -1.090984      1.999266      1.115877
     17.40450      9.18301      5.31600        -2.199587      2.059903      3.318182
     11.22802      6.84576      6.11356        -0.920231      3.585353     -1.500105
     15.97916      7.27072      4.51844         0.834708      1.881371      1.262226
      6.95200      7.05824      5.31600        -1.121441      1.913930      4.109377
     14.07870      4.72099      6.11356        -1.732783      3.795097     -1.417076
      5.52666      5.14595      4.51844         0.888764      1.423873      1.428758
      9.80268      4.93347      5.31600        -0.712649      2.646509      2.748976
      3.62620      2.59622      6.11356        -1.095663      3.157432     -3.097165
      8.37734      3.02117      4.51844         0.438813      1.096327      3.301181
     12.65336      2.80869      5.31600        -1.183854      2.134812      4.395664
      6.47688      0.47144      6.11356        -1.377262      2.298933     -1.126920
     11.22802      0.89640      4.51844         0.185231      1.617558      2.220857
      2.20086      0.68392      5.31600        -1.475508      1.370680      3.332864
      9.32757     14.70742      6.51234         0.136752     -1.544244     -2.546565
      7.42711      0.25897      4.91722         1.019525     -3.508550      1.713002
     11.70313      0.04649      5.71478         0.504180     -1.387504     -4.013545
     12.17825     12.58265      6.51234         0.441270      0.455903     -2.696859
     16.92938     13.00760      4.91722         1.104978     -2.893923      0.788012
      7.90222     12.79512      5.71478         1.378659     -2.086141     -3.660367
     15.02893     10.45787      6.51234        -0.664203      0.442512     -3.464707
      6.47689     10.88283      4.91722         1.191585     -3.520464      2.798906
     10.75291     10.67035      5.71478         1.208100     -1.352671     -3.592062
      4.57643      8.33310      6.51234         0.428190     -1.629435     -2.484998
      9.32757      8.75806      4.91722         1.334187     -3.612299      2.139875
     13.60359      8.54558      5.71478         0.621269     -1.759332     -4.482872
      7.42711      6.20833      6.51234         0.395296     -2.221105     -2.775166
     12.17825      6.63329      4.91722         0.818671     -3.728525      2.042945
      3.15109      6.42081      5.71478         0.844379     -2.198564     -3.906060
     10.27779      4.08356      6.51234        -0.254444     -4.056865     -9.624523
     15.02893      4.50851      4.91722         0.376192     -3.427111      0.496371
      6.00177      4.29604      5.71478         1.863090     -2.144362     -3.643440
     13.12847      1.95879      6.51234         0.655214     -1.333161     -1.299396
      4.57643      2.38374      4.91722         0.385131     -3.845563      2.989797
      8.85245      2.17126      5.71478         1.167416     -1.842023     -4.333799
 -----------------------------------------------------------------------------------
    total drift:                               -0.041592     -0.086642      0.033746


--------------------------------------------------------------------------------------------------------



  FREE ENERGIE OF THE ION-ELECTRON SYSTEM (eV)
  ---------------------------------------------------
  free  energy   TOTEN  =      -796.13721083 eV

  energy  without entropy=     -796.13473466  energy(sigma->0) =     -796.13597275
 


--------------------------------------------------------------------------------------------------------


    POTLOK:  cpu time      0.7068: real time      0.7104


--------------------------------------------------------------------------------------------------------


     LOOP+:  cpu time    947.0362: real time    955.2022
    4ORBIT:  cpu time      0.0000: real time      0.0000

 total amount of memory used by VASP MPI-rank0   191270. kBytes
=======================================================================

   base      :      30000. kBytes
   nonlr-proj:       4467. kBytes
   fftplans  :      11230. kBytes
   grid      :       8501. kBytes
   one-center:         49. kBytes
   wavefun   :     137023. kBytes
 
  
  
 General timing and accounting informations for this job:
 ========================================================
  
                  Total CPU time used (sec):      998.934
                            User time (sec):      939.202
                          System time (sec):       59.732
                         Elapsed time (sec):     1009.171
  
                   Maximum memory used (kb):      432464.
                   Average memory used (kb):          N/A
  
                          Minor page faults:       226955
                          Major page faults:           38
                 Voluntary context switches:         1604
