Si Bulk DFT energetics calculations using VASP\n
This script is running on comp177.cluster.local in /lustre/home/ah1365/projects/127870/upgrade_report/case_studies/common/structures/interfaces/168_Ge96Sn72_111_111_a0.572327_b0.314465_c2.262296_interface1shift4\n
Job started on: Mon  9 Jun 01:37:31 UTC 2025\n
 running   64 mpi-ranks, on    4 nodes
 distrk:  each k-point on   64 cores,    1 groups
 distr:  one band on   16 cores,    4 groups
 vasp.6.4.3 19Mar24 (build Oct 22 2024 11:23:12) complex                        
  
 POSCAR found type information on POSCAR GeSn
 POSCAR found :  2 types and     168 ions
 -----------------------------------------------------------------------------
|                                                                             |
|           W    W    AA    RRRRR   N    N  II  N    N   GGGG   !!!           |
|           W    W   A  A   R    R  NN   N  II  NN   N  G    G  !!!           |
|           W    W  A    A  R    R  N N  N  II  N N  N  G       !!!           |
|           W WW W  AAAAAA  RRRRR   N  N N  II  N  N N  G  GGG   !            |
|           WW  WW  A    A  R   R   N   NN  II  N   NN  G    G                |
|           W    W  A    A  R    R  N    N  II  N    N   GGGG   !!!           |
|                                                                             |
|     You use a magnetic or noncollinear calculation, but did not specify     |
|     the initial magnetic moment with the MAGMOM tag. Note that a            |
|     default of 5.952e-3 will be used for all atoms. This ferromagnetic      |
|     setup may break the symmetry of the crystal, in particular it may       |
|     rule out finding an antiferromagnetic solution. Thence, we              |
|     recommend setting the initial magnetic moment manually or verifying     |
|     carefully that this magnetic setup is desired.                          |
|                                                                             |
 -----------------------------------------------------------------------------

 scaLAPACK will be used
 WARNING: PSMAXN for non-local potential too small
 LDA part: xc-table for (Slater+PW92), standard interpolation
 POSCAR, INCAR and KPOINTS ok, starting setup
 FFT: planning ... GRIDC
 FFT: planning ... GRID_SOFT
 FFT: planning ... GRID
 WAVECAR not read
 entering main loop
       N       E                     dE             d eps       ncg     rms          rms(c)
DAV:   1     0.339146013076E+04    0.33915E+04   -0.28189E+05 12928   0.168E+03
DAV:   2    -0.272273979803E+03   -0.36637E+04   -0.35419E+04 15144   0.198E+02
DAV:   3    -0.675882878151E+03   -0.40361E+03   -0.39173E+03 15952   0.642E+01
DAV:   4    -0.692475777606E+03   -0.16593E+02   -0.16263E+02 15576   0.128E+01
DAV:   5    -0.693179584025E+03   -0.70381E+00   -0.69880E+00 17040   0.227E+00    0.284E+01
DAV:   6    -0.684535606828E+03    0.86440E+01   -0.17504E+01 19688   0.710E+00    0.139E+01
DAV:   7    -0.685092562776E+03   -0.55696E+00   -0.20103E+01 16488   0.776E+00    0.597E+00
DAV:   8    -0.683247081934E+03    0.18455E+01   -0.68763E+00 16240   0.501E+00    0.172E+00
DAV:   9    -0.683284789708E+03   -0.37708E-01   -0.19938E+00 15520   0.186E+00    0.108E+00
DAV:  10    -0.683288463725E+03   -0.36740E-02   -0.37851E-01 15352   0.684E-01    0.546E-01
DAV:  11    -0.683289956544E+03   -0.14928E-02   -0.51499E-02 15400   0.282E-01    0.278E-01
DAV:  12    -0.683289625328E+03    0.33122E-03   -0.10639E-02 14584   0.133E-01    0.180E-01
DAV:  13    -0.683290067895E+03   -0.44257E-03   -0.19746E-03 14904   0.550E-02    0.716E-02
DAV:  14    -0.683290176198E+03   -0.10830E-03   -0.26434E-04 14792   0.249E-02    0.329E-02
DAV:  15    -0.683290208745E+03   -0.32547E-04   -0.64429E-05 14440   0.118E-02    0.159E-02
DAV:  16    -0.683290224394E+03   -0.15649E-04   -0.10574E-05 14688   0.515E-03    0.842E-03
DAV:  17    -0.683290229468E+03   -0.50740E-05   -0.38242E-06 14704   0.296E-03    0.595E-03
DAV:  18    -0.683290231730E+03   -0.22619E-05   -0.13277E-06 14480   0.165E-03    0.363E-03
DAV:  19    -0.683290232553E+03   -0.82284E-06   -0.77989E-07 14040   0.116E-03    0.259E-03
DAV:  20    -0.683290232743E+03   -0.18957E-06   -0.41999E-07 11848   0.979E-04    0.162E-03
DAV:  21    -0.683290232507E+03    0.23581E-06   -0.16270E-07  8992   0.614E-04    0.921E-04
DAV:  22    -0.683290232454E+03    0.52933E-07   -0.74465E-08  7872   0.383E-04
   1 F= -.68329023E+03 E0= -.68328827E+03  d E =-.393100E-02  mag=     1.0000
Job ended on: Mon  9 Jun 02:15:42 UTC 2025\n
