 120 120   0   0
  0.1187863E+02  0.1330318E-08  0.1629300E-08  0.7204130E-09  0.5000000E-15
  1.000000000000000E-004
  CAR 
 Si and Ge interface calculation         
      9.09352649    -14.32895788  301      5.38637578      1.00000000
    -14.329  0.0000E+00  0.0000E+00  0.0000E+00  0.0000E+00
    -14.251  0.0000E+00  0.0000E+00  0.0000E+00  0.0000E+00
    -14.173  0.0000E+00  0.0000E+00  0.0000E+00  0.0000E+00
    -14.095  0.0000E+00  0.0000E+00  0.0000E+00  0.0000E+00
    -14.017  0.0000E+00  0.0000E+00  0.0000E+00  0.0000E+00
    -13.939  0.0000E+00  0.0000E+00  0.0000E+00  0.0000E+00
    -13.861  0.0000E+00  0.0000E+00  0.0000E+00  0.0000E+00
    -13.782  0.0000E+00  0.0000E+00  0.0000E+00  0.0000E+00
    -13.704  0.0000E+00  0.0000E+00  0.0000E+00  0.0000E+00
    -13.626  0.0000E+00  0.0000E+00  0.0000E+00  0.0000E+00
    -13.548  0.0000E+00  0.0000E+00  0.0000E+00  0.0000E+00
    -13.470  0.0000E+00  0.0000E+00  0.0000E+00  0.0000E+00
    -13.392  0.0000E+00  0.0000E+00  0.0000E+00  0.0000E+00
    -13.314  0.1262E-11  0.1185E-15  0.9855E-13  0.9252E-17
    -13.236  0.4268E+01  0.4226E+01  0.3333E+00  0.3300E+00
    -13.158  0.1184E+02  0.8934E+01  0.1258E+01  0.1031E+01
    -13.080  0.1378E+02  0.1668E+02  0.2333E+01  0.2333E+01
    -13.002  0.1467E+02  0.9577E+01  0.3479E+01  0.3081E+01
    -12.924  0.8481E+01  0.1454E+02  0.4333E+01  0.4333E+01
    -12.846  0.1360E+02  0.1029E+02  0.5395E+01  0.5137E+01
    -12.767  0.1959E+02  0.2142E+02  0.6990E+01  0.6810E+01
    -12.689  0.1388E+02  0.1167E+02  0.8110E+01  0.7875E+01
    -12.611  0.1026E+02  0.1094E+02  0.8952E+01  0.8757E+01
    -12.533  0.5579E+01  0.5497E+01  0.9436E+01  0.9349E+01
    -12.455  0.1375E+02  0.1296E+02  0.1051E+02  0.1036E+02
    -12.377  0.2321E+02  0.2431E+02  0.1232E+02  0.1226E+02
    -12.299  0.4493E-10  0.4882E-13  0.1233E+02  0.1233E+02
    -12.221  0.5261E+01  0.4313E+01  0.1274E+02  0.1267E+02
    -12.143  0.2462E+02  0.2530E+02  0.1467E+02  0.1465E+02
    -12.065  0.8917E+01  0.8518E+01  0.1536E+02  0.1533E+02
    -11.987  0.8142E+01  0.6867E+01  0.1600E+02  0.1587E+02
    -11.909  0.1723E+02  0.1762E+02  0.1737E+02  0.1733E+02
    -11.831  0.1655E+02  0.1706E+02  0.1867E+02  0.1867E+02
    -11.752  0.1720E+02  0.1154E+02  0.2001E+02  0.1957E+02
    -11.674  0.9523E+01  0.1484E+02  0.2092E+02  0.2079E+02
    -11.596  0.8555E+01  0.1124E+02  0.2167E+02  0.2167E+02
    -11.518  0.2129E+02  0.2134E+02  0.2333E+02  0.2333E+02
    -11.440  0.9803E+01  0.8772E+01  0.2410E+02  0.2402E+02
    -11.362  0.5637E+01  0.5303E+01  0.2454E+02  0.2443E+02
    -11.284  0.1750E+02  0.1964E+02  0.2600E+02  0.2597E+02
    -11.206  0.4285E+01  0.4270E+01  0.2633E+02  0.2633E+02
    -11.128  0.1427E+02  0.1297E+02  0.2745E+02  0.2735E+02
    -11.050  0.7066E+01  0.8381E+01  0.2800E+02  0.2800E+02
    -10.972  0.0000E+00  0.0000E+00  0.2800E+02  0.2800E+02
    -10.894  0.2601E-02  0.1847E-04  0.2800E+02  0.2800E+02
    -10.816  0.8536E+01  0.8539E+01  0.2867E+02  0.2867E+02
    -10.738  0.4269E+01  0.4269E+01  0.2900E+02  0.2900E+02
    -10.659  0.8538E+01  0.8489E+01  0.2967E+02  0.2966E+02
    -10.581  0.2755E+00  0.7012E-02  0.2969E+02  0.2967E+02
    -10.503  0.2470E+02  0.1925E+02  0.3162E+02  0.3117E+02
    -10.425  0.1535E+02  0.2344E+02  0.3300E+02  0.3300E+02
    -10.347  0.1581E+02  0.1103E+02  0.3423E+02  0.3386E+02
    -10.269  0.2927E+02  0.3160E+02  0.3663E+02  0.3635E+02
    -10.191  0.1241E+02  0.1419E+02  0.3764E+02  0.3752E+02
    -10.113  0.8538E+01  0.8498E+01  0.3833E+02  0.3833E+02
    -10.035  0.1769E+02  0.1444E+02  0.3971E+02  0.3946E+02
     -9.957  0.1575E+02  0.1760E+02  0.4096E+02  0.4086E+02
     -9.879  0.8339E+01  0.8623E+01  0.4165E+02  0.4154E+02
     -9.801  0.8661E-10  0.0000E+00  0.4167E+02  0.4167E+02
     -9.723  0.1741E+02  0.1177E+02  0.4303E+02  0.4259E+02
     -9.644  0.2107E+02  0.2595E+02  0.4469E+02  0.4466E+02
     -9.566  0.1249E+02  0.1279E+02  0.4567E+02  0.4567E+02
     -9.488  0.1815E+01  0.1161E+00  0.4581E+02  0.4568E+02
     -9.410  0.1130E+02  0.1270E+02  0.4669E+02  0.4667E+02
     -9.332  0.8235E+01  0.8530E+01  0.4733E+02  0.4733E+02
     -9.254  0.1281E+02  0.1259E+02  0.4833E+02  0.4832E+02
     -9.176  0.8539E+01  0.8539E+01  0.4900E+02  0.4900E+02
     -9.098  0.8282E+01  0.5261E+01  0.4965E+02  0.4941E+02
     -9.020  0.1737E+02  0.1872E+02  0.5103E+02  0.5101E+02
     -8.942  0.2275E+02  0.1847E+02  0.5281E+02  0.5245E+02
     -8.864  0.1251E+01  0.7071E+01  0.5300E+02  0.5300E+02
     -8.786  0.1573E+02  0.7711E+01  0.5423E+02  0.5360E+02
     -8.708  0.2713E+02  0.3187E+02  0.5654E+02  0.5609E+02
     -8.629  0.1373E+02  0.1402E+02  0.5765E+02  0.5719E+02
     -8.551  0.2050E+02  0.2328E+02  0.5927E+02  0.5901E+02
     -8.473  0.3830E+02  0.3730E+02  0.6226E+02  0.6192E+02
     -8.395  0.8500E+01  0.1312E+02  0.6300E+02  0.6300E+02
     -8.317  0.2054E+02  0.1404E+02  0.6460E+02  0.6410E+02
     -8.239  0.2281E+02  0.2706E+02  0.6641E+02  0.6627E+02
     -8.161  0.1647E+02  0.1523E+02  0.6774E+02  0.6747E+02
     -8.083  0.1025E+02  0.1026E+02  0.6856E+02  0.6832E+02
     -8.005  0.4043E+02  0.3647E+02  0.7172E+02  0.7119E+02
     -7.927  0.1828E+02  0.2269E+02  0.7323E+02  0.7305E+02
     -7.849  0.1362E+02  0.1306E+02  0.7433E+02  0.7407E+02
     -7.771  0.2020E+02  0.2025E+02  0.7594E+02  0.7569E+02
     -7.693  0.1039E+02  0.1130E+02  0.7679E+02  0.7660E+02
     -7.615  0.1034E+02  0.1329E+02  0.7767E+02  0.7767E+02
     -7.536  0.7514E+01  0.3452E+01  0.7825E+02  0.7794E+02
     -7.458  0.1268E+02  0.1789E+02  0.7933E+02  0.7933E+02
     -7.380  0.7867E+01  0.5305E+01  0.7995E+02  0.7975E+02
     -7.302  0.1549E+02  0.1280E+02  0.8121E+02  0.8087E+02
     -7.224  0.8082E+01  0.1093E+02  0.8196E+02  0.8172E+02
     -7.146  0.1576E-07  0.1934E+01  0.8200E+02  0.8200E+02
     -7.068  0.6672E+01  0.4515E+01  0.8252E+02  0.8235E+02
     -6.990  0.1865E+01  0.3945E+01  0.8267E+02  0.8267E+02
     -6.912  0.4234E+01  0.3897E+01  0.8300E+02  0.8297E+02
     -6.834  0.1269E+02  0.1162E+02  0.8399E+02  0.8391E+02
     -6.756  0.3555E-04  0.2617E-07  0.8400E+02  0.8400E+02
     -6.678  0.8539E+01  0.8539E+01  0.8467E+02  0.8467E+02
     -6.600  0.8543E+01  0.8539E+01  0.8533E+02  0.8533E+02
     -6.521  0.8534E+01  0.8529E+01  0.8600E+02  0.8600E+02
     -6.443  0.3114E+01  0.1030E+01  0.8624E+02  0.8608E+02
     -6.365  0.1924E+02  0.1941E+02  0.8780E+02  0.8760E+02
     -6.287  0.5611E+01  0.6601E+01  0.8831E+02  0.8822E+02
     -6.209  0.6199E+01  0.7265E+01  0.8884E+02  0.8879E+02
     -6.131  0.1741E+02  0.1581E+02  0.9021E+02  0.9007E+02
     -6.053  0.2891E+02  0.2938E+02  0.9249E+02  0.9238E+02
     -5.975  0.1913E+02  0.1555E+02  0.9399E+02  0.9365E+02
     -5.897  0.2429E+02  0.2572E+02  0.9595E+02  0.9573E+02
     -5.819  0.2478E+02  0.2297E+02  0.9791E+02  0.9761E+02
     -5.741  0.2115E+02  0.2335E+02  0.9960E+02  0.9956E+02
     -5.663  0.1898E+02  0.1882E+02  0.1011E+03  0.1011E+03
     -5.585  0.1834E+02  0.1600E+02  0.1025E+03  0.1023E+03
     -5.506  0.1768E+02  0.1879E+02  0.1039E+03  0.1038E+03
     -5.428  0.2384E+02  0.2043E+02  0.1058E+03  0.1055E+03
     -5.350  0.1876E+02  0.1889E+02  0.1073E+03  0.1070E+03
     -5.272  0.1940E+02  0.2111E+02  0.1089E+03  0.1087E+03
     -5.194  0.1531E+02  0.1217E+02  0.1101E+03  0.1097E+03
     -5.116  0.1137E+02  0.1642E+02  0.1111E+03  0.1110E+03
     -5.038  0.2268E+02  0.1994E+02  0.1129E+03  0.1126E+03
     -4.960  0.1753E+02  0.1953E+02  0.1142E+03  0.1142E+03
     -4.882  0.1614E+02  0.1368E+02  0.1155E+03  0.1153E+03
     -4.804  0.2751E+02  0.2751E+02  0.1177E+03  0.1175E+03
     -4.726  0.3186E+02  0.3008E+02  0.1202E+03  0.1199E+03
     -4.648  0.3340E+02  0.3360E+02  0.1228E+03  0.1226E+03
     -4.570  0.3344E+02  0.3309E+02  0.1255E+03  0.1252E+03
     -4.492  0.3321E+02  0.2980E+02  0.1282E+03  0.1277E+03
     -4.413  0.2287E+02  0.2656E+02  0.1300E+03  0.1298E+03
     -4.335  0.2785E+02  0.2883E+02  0.1322E+03  0.1321E+03
     -4.257  0.3035E+02  0.3048E+02  0.1346E+03  0.1345E+03
     -4.179  0.2321E+02  0.2176E+02  0.1364E+03  0.1363E+03
     -4.101  0.3034E+02  0.2952E+02  0.1388E+03  0.1386E+03
     -4.023  0.2126E+02  0.1833E+02  0.1405E+03  0.1401E+03
     -3.945  0.3102E+02  0.3060E+02  0.1430E+03  0.1426E+03
     -3.867  0.2977E+02  0.3251E+02  0.1454E+03  0.1451E+03
     -3.789  0.2773E+02  0.2737E+02  0.1476E+03  0.1474E+03
     -3.711  0.2172E+02  0.2235E+02  0.1494E+03  0.1492E+03
     -3.633  0.2129E+02  0.2395E+02  0.1511E+03  0.1510E+03
     -3.555  0.1454E+02  0.1305E+02  0.1523E+03  0.1521E+03
     -3.477  0.2980E+02  0.2738E+02  0.1546E+03  0.1542E+03
     -3.398  0.3227E+02  0.3651E+02  0.1572E+03  0.1571E+03
     -3.320  0.3449E+02  0.3222E+02  0.1599E+03  0.1597E+03
     -3.242  0.3135E+02  0.3215E+02  0.1625E+03  0.1623E+03
     -3.164  0.3624E+02  0.3320E+02  0.1653E+03  0.1649E+03
     -3.086  0.2695E+02  0.2856E+02  0.1675E+03  0.1672E+03
     -3.008  0.2846E+02  0.2693E+02  0.1698E+03  0.1693E+03
     -2.930  0.2268E+02  0.2828E+02  0.1717E+03  0.1716E+03
     -2.852  0.3516E+02  0.3234E+02  0.1745E+03  0.1741E+03
     -2.774  0.2238E+02  0.2276E+02  0.1763E+03  0.1759E+03
     -2.696  0.2502E+02  0.2650E+02  0.1783E+03  0.1781E+03
     -2.618  0.3446E+02  0.3420E+02  0.1811E+03  0.1808E+03
     -2.540  0.2849E+02  0.2856E+02  0.1834E+03  0.1831E+03
     -2.462  0.2524E+02  0.2232E+02  0.1854E+03  0.1849E+03
     -2.383  0.1706E+02  0.2092E+02  0.1869E+03  0.1867E+03
     -2.305  0.2546E+02  0.2494E+02  0.1889E+03  0.1887E+03
     -2.227  0.2887E+02  0.2917E+02  0.1912E+03  0.1910E+03
     -2.149  0.4025E+02  0.3712E+02  0.1943E+03  0.1939E+03
     -2.071  0.2155E+02  0.2216E+02  0.1961E+03  0.1957E+03
     -1.993  0.2856E+02  0.2779E+02  0.1984E+03  0.1979E+03
     -1.915  0.2680E+02  0.2923E+02  0.2007E+03  0.2003E+03
     -1.837  0.3941E+02  0.3738E+02  0.2038E+03  0.2034E+03
     -1.759  0.2452E+02  0.2366E+02  0.2057E+03  0.2053E+03
     -1.681  0.2376E+02  0.2583E+02  0.2077E+03  0.2074E+03
     -1.603  0.3282E+02  0.3116E+02  0.2102E+03  0.2099E+03
     -1.525  0.2903E+02  0.2790E+02  0.2125E+03  0.2123E+03
     -1.447  0.2823E+02  0.2730E+02  0.2148E+03  0.2145E+03
     -1.369  0.1893E+02  0.2145E+02  0.2164E+03  0.2163E+03
     -1.290  0.2832E+02  0.2504E+02  0.2186E+03  0.2183E+03
     -1.212  0.2704E+02  0.2815E+02  0.2208E+03  0.2205E+03
     -1.134  0.3557E+02  0.3482E+02  0.2236E+03  0.2233E+03
     -1.056  0.3840E+02  0.3811E+02  0.2267E+03  0.2263E+03
     -0.978  0.2577E+02  0.2786E+02  0.2288E+03  0.2286E+03
     -0.900  0.4164E+02  0.4227E+02  0.2321E+03  0.2319E+03
     -0.822  0.2847E+02  0.2910E+02  0.2344E+03  0.2342E+03
     -0.744  0.3728E+02  0.3482E+02  0.2373E+03  0.2369E+03
     -0.666  0.3866E+02  0.3628E+02  0.2404E+03  0.2400E+03
     -0.588  0.3183E+02  0.3232E+02  0.2430E+03  0.2425E+03
     -0.510  0.3732E+02  0.3878E+02  0.2460E+03  0.2456E+03
     -0.432  0.4303E+02  0.3990E+02  0.2494E+03  0.2488E+03
     -0.354  0.2988E+02  0.3422E+02  0.2518E+03  0.2516E+03
     -0.275  0.4347E+02  0.4093E+02  0.2552E+03  0.2549E+03
     -0.197  0.3578E+02  0.3649E+02  0.2581E+03  0.2578E+03
     -0.119  0.4052E+02  0.4034E+02  0.2613E+03  0.2610E+03
     -0.041  0.2863E+02  0.2589E+02  0.2637E+03  0.2630E+03
      0.037  0.4066E+02  0.4270E+02  0.2670E+03  0.2665E+03
      0.115  0.2529E+02  0.2802E+02  0.2691E+03  0.2688E+03
      0.193  0.4321E+02  0.4025E+02  0.2725E+03  0.2720E+03
      0.271  0.3569E+02  0.3965E+02  0.2754E+03  0.2751E+03
      0.349  0.3720E+02  0.3896E+02  0.2784E+03  0.2782E+03
      0.427  0.3474E+02  0.3035E+02  0.2811E+03  0.2806E+03
      0.505  0.4290E+02  0.4379E+02  0.2845E+03  0.2842E+03
      0.583  0.4076E+02  0.3843E+02  0.2878E+03  0.2873E+03
      0.661  0.4128E+02  0.4528E+02  0.2912E+03  0.2909E+03
      0.740  0.4204E+02  0.4106E+02  0.2945E+03  0.2942E+03
      0.818  0.3273E+02  0.3071E+02  0.2971E+03  0.2967E+03
      0.896  0.3822E+02  0.3763E+02  0.3001E+03  0.2997E+03
      0.974  0.4179E+02  0.4161E+02  0.3035E+03  0.3031E+03
      1.052  0.3263E+02  0.3272E+02  0.3061E+03  0.3057E+03
      1.130  0.4167E+02  0.4335E+02  0.3094E+03  0.3091E+03
      1.208  0.3802E+02  0.3754E+02  0.3125E+03  0.3121E+03
      1.286  0.4462E+02  0.3761E+02  0.3160E+03  0.3152E+03
      1.364  0.3501E+02  0.4094E+02  0.3188E+03  0.3184E+03
      1.442  0.4027E+02  0.3831E+02  0.3220E+03  0.3215E+03
      1.520  0.3173E+02  0.3383E+02  0.3246E+03  0.3243E+03
      1.598  0.4029E+02  0.4069E+02  0.3278E+03  0.3276E+03
      1.676  0.3597E+02  0.3546E+02  0.3307E+03  0.3304E+03
      1.754  0.2483E+02  0.2370E+02  0.3327E+03  0.3323E+03
      1.833  0.4298E+02  0.4170E+02  0.3361E+03  0.3357E+03
      1.911  0.3710E+02  0.3766E+02  0.3391E+03  0.3388E+03
      1.989  0.3185E+02  0.3069E+02  0.3416E+03  0.3413E+03
      2.067  0.4373E+02  0.4171E+02  0.3450E+03  0.3446E+03
      2.145  0.3648E+02  0.3570E+02  0.3479E+03  0.3474E+03
      2.223  0.4549E+02  0.4577E+02  0.3516E+03  0.3511E+03
      2.301  0.3234E+02  0.3456E+02  0.3542E+03  0.3539E+03
      2.379  0.3778E+02  0.3416E+02  0.3572E+03  0.3566E+03
      2.457  0.3125E+02  0.3372E+02  0.3598E+03  0.3594E+03
      2.535  0.3712E+02  0.3508E+02  0.3627E+03  0.3621E+03
      2.613  0.4037E+02  0.4387E+02  0.3660E+03  0.3656E+03
      2.691  0.3746E+02  0.3457E+02  0.3689E+03  0.3684E+03
      2.769  0.3714E+02  0.3694E+02  0.3720E+03  0.3713E+03
      2.848  0.3960E+02  0.4053E+02  0.3751E+03  0.3746E+03
      2.926  0.3883E+02  0.3538E+02  0.3782E+03  0.3774E+03
      3.004  0.4408E+02  0.4774E+02  0.3818E+03  0.3813E+03
      3.082  0.4088E+02  0.4068E+02  0.3850E+03  0.3845E+03
      3.160  0.3859E+02  0.3903E+02  0.3881E+03  0.3876E+03
      3.238  0.4393E+02  0.4451E+02  0.3917E+03  0.3912E+03
      3.316  0.3805E+02  0.3749E+02  0.3948E+03  0.3942E+03
      3.394  0.3649E+02  0.3471E+02  0.3977E+03  0.3969E+03
      3.472  0.5327E+02  0.5499E+02  0.4020E+03  0.4013E+03
      3.550  0.3560E+02  0.3780E+02  0.4049E+03  0.4044E+03
      3.628  0.5003E+02  0.5208E+02  0.4089E+03  0.4085E+03
      3.706  0.3310E+02  0.2700E+02  0.4115E+03  0.4108E+03
      3.784  0.3555E+02  0.3610E+02  0.4145E+03  0.4137E+03
      3.863  0.4584E+02  0.4752E+02  0.4181E+03  0.4176E+03
      3.941  0.3716E+02  0.3662E+02  0.4211E+03  0.4205E+03
      4.019  0.3966E+02  0.4015E+02  0.4242E+03  0.4237E+03
      4.097  0.4331E+02  0.4214E+02  0.4277E+03  0.4270E+03
      4.175  0.4522E+02  0.4069E+02  0.4313E+03  0.4304E+03
      4.253  0.3511E+02  0.3663E+02  0.4341E+03  0.4334E+03
      4.331  0.3100E+02  0.3093E+02  0.4366E+03  0.4360E+03
      4.409  0.4424E+02  0.4733E+02  0.4402E+03  0.4397E+03
      4.487  0.3788E+02  0.3572E+02  0.4432E+03  0.4427E+03
      4.565  0.3555E+02  0.4139E+02  0.4460E+03  0.4460E+03
      4.643  0.5050E+02  0.3924E+02  0.4500E+03  0.4491E+03
      4.721  0.3547E+02  0.4078E+02  0.4529E+03  0.4524E+03
      4.799  0.3464E+02  0.2726E+02  0.4556E+03  0.4545E+03
      4.877  0.4037E+02  0.4743E+02  0.4589E+03  0.4582E+03
      4.956  0.4051E+02  0.4235E+02  0.4622E+03  0.4617E+03
      5.034  0.3951E+02  0.3139E+02  0.4653E+03  0.4644E+03
      5.112  0.5085E+02  0.4897E+02  0.4694E+03  0.4682E+03
      5.190  0.2755E+02  0.3143E+02  0.4717E+03  0.4708E+03
      5.268  0.4313E+02  0.3734E+02  0.4751E+03  0.4737E+03
      5.346  0.4255E+02  0.4737E+02  0.4785E+03  0.4775E+03
      5.424  0.4437E+02  0.4030E+02  0.4820E+03  0.4808E+03
      5.502  0.4664E+02  0.3927E+02  0.4857E+03  0.4840E+03
      5.580  0.4000E+02  0.4590E+02  0.4891E+03  0.4876E+03
      5.658  0.4411E+02  0.4575E+02  0.4926E+03  0.4913E+03
      5.736  0.3994E+02  0.4811E+02  0.4958E+03  0.4951E+03
      5.814  0.4264E+02  0.3739E+02  0.4992E+03  0.4981E+03
      5.892  0.4098E+02  0.4881E+02  0.5025E+03  0.5020E+03
      5.971  0.3575E+02  0.3034E+02  0.5053E+03  0.5045E+03
      6.049  0.4142E+02  0.3918E+02  0.5086E+03  0.5077E+03
      6.127  0.3591E+02  0.4062E+02  0.5114E+03  0.5109E+03
      6.205  0.3533E+02  0.3740E+02  0.5142E+03  0.5139E+03
      6.283  0.4269E+02  0.3488E+02  0.5175E+03  0.5166E+03
      6.361  0.2609E+02  0.3306E+02  0.5197E+03  0.5193E+03
      6.439  0.3984E+02  0.3449E+02  0.5228E+03  0.5220E+03
      6.517  0.3768E+02  0.3315E+02  0.5258E+03  0.5247E+03
      6.595  0.2536E+02  0.3326E+02  0.5280E+03  0.5273E+03
      6.673  0.3857E+02  0.4117E+02  0.5311E+03  0.5306E+03
      6.751  0.3162E+02  0.3478E+02  0.5336E+03  0.5333E+03
      6.829  0.2891E+02  0.1928E+02  0.5359E+03  0.5349E+03
      6.907  0.4287E+02  0.4973E+02  0.5393E+03  0.5388E+03
      6.986  0.3969E+02  0.3639E+02  0.5424E+03  0.5417E+03
      7.064  0.3066E+02  0.3473E+02  0.5448E+03  0.5445E+03
      7.142  0.3613E+02  0.3332E+02  0.5477E+03  0.5472E+03
      7.220  0.4819E+02  0.4194E+02  0.5515E+03  0.5505E+03
      7.298  0.3156E+02  0.3529E+02  0.5540E+03  0.5533E+03
      7.376  0.3111E+02  0.3020E+02  0.5566E+03  0.5557E+03
      7.454  0.2663E+02  0.2661E+02  0.5588E+03  0.5579E+03
      7.532  0.4453E+02  0.4364E+02  0.5623E+03  0.5613E+03
      7.610  0.4349E+02  0.4148E+02  0.5658E+03  0.5647E+03
      7.688  0.3520E+02  0.4249E+02  0.5686E+03  0.5681E+03
      7.766  0.3663E+02  0.4027E+02  0.5716E+03  0.5712E+03
      7.844  0.2781E+02  0.2436E+02  0.5738E+03  0.5733E+03
      7.922  0.1388E+02  0.1543E+02  0.5750E+03  0.5746E+03
      8.000  0.1084E+02  0.1523E+02  0.5758E+03  0.5758E+03
      8.079  0.2037E+01  0.3059E+01  0.5760E+03  0.5760E+03
      8.157  0.0000E+00  0.0000E+00  0.5760E+03  0.5760E+03
      8.235  0.0000E+00  0.0000E+00  0.5760E+03  0.5760E+03
      8.313  0.0000E+00  0.0000E+00  0.5760E+03  0.5760E+03
      8.391  0.0000E+00  0.0000E+00  0.5760E+03  0.5760E+03
      8.469  0.0000E+00  0.0000E+00  0.5760E+03  0.5760E+03
      8.547  0.0000E+00  0.0000E+00  0.5760E+03  0.5760E+03
      8.625  0.0000E+00  0.0000E+00  0.5760E+03  0.5760E+03
      8.703  0.0000E+00  0.0000E+00  0.5760E+03  0.5760E+03
      8.781  0.0000E+00  0.0000E+00  0.5760E+03  0.5760E+03
      8.859  0.0000E+00  0.0000E+00  0.5760E+03  0.5760E+03
      8.937  0.0000E+00  0.0000E+00  0.5760E+03  0.5760E+03
      9.015  0.0000E+00  0.0000E+00  0.5760E+03  0.5760E+03
      9.094  0.0000E+00  0.0000E+00  0.5760E+03  0.5760E+03
