 120 120   0   0
  0.1738714E+02  0.7680595E-09  0.1629300E-08  0.1667299E-08  0.5000000E-15
  1.000000000000000E-004
  CAR 
 Si and Ge interface calculation         
     10.00988065    -11.28484469  301      6.81781334      1.00000000
    -11.285  0.0000E+00  0.0000E+00  0.0000E+00  0.0000E+00
    -11.214  0.0000E+00  0.0000E+00  0.0000E+00  0.0000E+00
    -11.143  0.0000E+00  0.0000E+00  0.0000E+00  0.0000E+00
    -11.072  0.0000E+00  0.0000E+00  0.0000E+00  0.0000E+00
    -11.001  0.0000E+00  0.0000E+00  0.0000E+00  0.0000E+00
    -10.930  0.0000E+00  0.0000E+00  0.0000E+00  0.0000E+00
    -10.859  0.0000E+00  0.0000E+00  0.0000E+00  0.0000E+00
    -10.788  0.0000E+00  0.0000E+00  0.0000E+00  0.0000E+00
    -10.717  0.0000E+00  0.0000E+00  0.0000E+00  0.0000E+00
    -10.646  0.0000E+00  0.0000E+00  0.0000E+00  0.0000E+00
    -10.575  0.0000E+00  0.0000E+00  0.0000E+00  0.0000E+00
    -10.504  0.0000E+00  0.0000E+00  0.0000E+00  0.0000E+00
    -10.433  0.0000E+00  0.0000E+00  0.0000E+00  0.0000E+00
    -10.362  0.8502E-09  0.1644E-09  0.6035E-10  0.1167E-10
    -10.291  0.1409E+02  0.1408E+02  0.9998E+00  0.9996E+00
    -10.220  0.7662E-08  0.1540E-08  0.1000E+01  0.1000E+01
    -10.149  0.2817E+02  0.2817E+02  0.3000E+01  0.3000E+01
    -10.078  0.0000E+00  0.0000E+00  0.3000E+01  0.3000E+01
    -10.007  0.0000E+00  0.0000E+00  0.3000E+01  0.3000E+01
     -9.936  0.0000E+00  0.0000E+00  0.3000E+01  0.3000E+01
     -9.865  0.0000E+00  0.0000E+00  0.3000E+01  0.3000E+01
     -9.794  0.7978E-05  0.2040E-05  0.3000E+01  0.3000E+01
     -9.723  0.2818E+02  0.2818E+02  0.5000E+01  0.5000E+01
     -9.652  0.0000E+00  0.0000E+00  0.5000E+01  0.5000E+01
     -9.581  0.0000E+00  0.0000E+00  0.5000E+01  0.5000E+01
     -9.510  0.0000E+00  0.0000E+00  0.5000E+01  0.5000E+01
     -9.439  0.0000E+00  0.0000E+00  0.5000E+01  0.5000E+01
     -9.368  0.0000E+00  0.0000E+00  0.5000E+01  0.5000E+01
     -9.297  0.0000E+00  0.0000E+00  0.5000E+01  0.5000E+01
     -9.226  0.0000E+00  0.0000E+00  0.5000E+01  0.5000E+01
     -9.155  0.0000E+00  0.0000E+00  0.5000E+01  0.5000E+01
     -9.084  0.1305E+02  0.1000E+02  0.5926E+01  0.5710E+01
     -9.013  0.1512E+02  0.1818E+02  0.7000E+01  0.7000E+01
     -8.942  0.7464E+01  0.7811E+01  0.7530E+01  0.7554E+01
     -8.871  0.6624E+01  0.6277E+01  0.8000E+01  0.8000E+01
     -8.800  0.2660E+02  0.2678E+02  0.9888E+01  0.9901E+01
     -8.729  0.0000E+00  0.0000E+00  0.1000E+02  0.1000E+02
     -8.658  0.0000E+00  0.0000E+00  0.1000E+02  0.1000E+02
     -8.588  0.0000E+00  0.0000E+00  0.1000E+02  0.1000E+02
     -8.517  0.0000E+00  0.0000E+00  0.1000E+02  0.1000E+02
     -8.446  0.4683E+01  0.5051E+01  0.1033E+02  0.1036E+02
     -8.375  0.3758E+02  0.3721E+02  0.1300E+02  0.1300E+02
     -8.304  0.0000E+00  0.0000E+00  0.1300E+02  0.1300E+02
     -8.233  0.0000E+00  0.0000E+00  0.1300E+02  0.1300E+02
     -8.162  0.0000E+00  0.0000E+00  0.1300E+02  0.1300E+02
     -8.091  0.1105E-13  0.1486E-13  0.1300E+02  0.1300E+02
     -8.020  0.1212E+02  0.1224E+02  0.1386E+02  0.1387E+02
     -7.949  0.1933E+01  0.1822E+01  0.1400E+02  0.1400E+02
     -7.878  0.5634E+02  0.5634E+02  0.1800E+02  0.1800E+02
     -7.807  0.0000E+00  0.0000E+00  0.1800E+02  0.1800E+02
     -7.736  0.1427E+00  0.1054E+00  0.1801E+02  0.1801E+02
     -7.665  0.1395E+02  0.1398E+02  0.1900E+02  0.1900E+02
     -7.594  0.1409E+02  0.1409E+02  0.2000E+02  0.2000E+02
     -7.523  0.2818E+02  0.2818E+02  0.2200E+02  0.2200E+02
     -7.452  0.0000E+00  0.0000E+00  0.2200E+02  0.2200E+02
     -7.381  0.0000E+00  0.0000E+00  0.2200E+02  0.2200E+02
     -7.310  0.0000E+00  0.0000E+00  0.2200E+02  0.2200E+02
     -7.239  0.0000E+00  0.0000E+00  0.2200E+02  0.2200E+02
     -7.168  0.0000E+00  0.0000E+00  0.2200E+02  0.2200E+02
     -7.097  0.2103E-02  0.2579E-02  0.2200E+02  0.2200E+02
     -7.026  0.2817E+02  0.2817E+02  0.2400E+02  0.2400E+02
     -6.955  0.0000E+00  0.0000E+00  0.2400E+02  0.2400E+02
     -6.884  0.0000E+00  0.0000E+00  0.2400E+02  0.2400E+02
     -6.813  0.2631E+02  0.2549E+02  0.2587E+02  0.2581E+02
     -6.742  0.3264E+00  0.1185E+01  0.2602E+02  0.2603E+02
     -6.671  0.1376E+02  0.1371E+02  0.2700E+02  0.2700E+02
     -6.600  0.0000E+00  0.0000E+00  0.2700E+02  0.2700E+02
     -6.529  0.0000E+00  0.0000E+00  0.2700E+02  0.2700E+02
     -6.458  0.0000E+00  0.0000E+00  0.2700E+02  0.2700E+02
     -6.387  0.0000E+00  0.0000E+00  0.2700E+02  0.2700E+02
     -6.316  0.2086E+01  0.7143E-01  0.2715E+02  0.2701E+02
     -6.245  0.1273E+02  0.1396E+02  0.2805E+02  0.2800E+02
     -6.174  0.2744E+02  0.2698E+02  0.3000E+02  0.2992E+02
     -6.103  0.0000E+00  0.1189E+01  0.3000E+02  0.3000E+02
     -6.032  0.2712E+01  0.7168E-01  0.3019E+02  0.3001E+02
     -5.961  0.2546E+02  0.2801E+02  0.3200E+02  0.3199E+02
     -5.890  0.0000E+00  0.0000E+00  0.3200E+02  0.3200E+02
     -5.819  0.4498E-04  0.2094E-08  0.3200E+02  0.3200E+02
     -5.748  0.2818E+02  0.2800E+02  0.3400E+02  0.3399E+02
     -5.677  0.9714E+01  0.1727E+01  0.3469E+02  0.3412E+02
     -5.606  0.4374E+01  0.1236E+02  0.3500E+02  0.3500E+02
     -5.535  0.2827E+02  0.2821E+02  0.3701E+02  0.3700E+02
     -5.464  0.1671E+01  0.1729E+01  0.3713E+02  0.3713E+02
     -5.393  0.6887E+01  0.6670E+01  0.3761E+02  0.3760E+02
     -5.322  0.1156E+02  0.1112E+02  0.3845E+02  0.3839E+02
     -5.251  0.1197E+02  0.1246E+02  0.3930E+02  0.3927E+02
     -5.180  0.2029E+02  0.2075E+02  0.4075E+02  0.4075E+02
     -5.109  0.8803E+01  0.8800E+01  0.4137E+02  0.4137E+02
     -5.038  0.2921E+01  0.2716E+01  0.4158E+02  0.4157E+02
     -4.967  0.1293E+02  0.1313E+02  0.4250E+02  0.4250E+02
     -4.896  0.4429E+01  0.4031E+01  0.4281E+02  0.4279E+02
     -4.825  0.2093E+02  0.2100E+02  0.4430E+02  0.4428E+02
     -4.754  0.4599E+02  0.4596E+02  0.4759E+02  0.4754E+02
     -4.683  0.1576E+02  0.1518E+02  0.4873E+02  0.4867E+02
     -4.612  0.1567E+02  0.1520E+02  0.4986E+02  0.4975E+02
     -4.542  0.1540E+02  0.1648E+02  0.5098E+02  0.5093E+02
     -4.471  0.1102E+02  0.1138E+02  0.5177E+02  0.5176E+02
     -4.400  0.2513E+02  0.2451E+02  0.5356E+02  0.5350E+02
     -4.329  0.2091E+02  0.2128E+02  0.5505E+02  0.5502E+02
     -4.258  0.2927E+02  0.2961E+02  0.5712E+02  0.5712E+02
     -4.187  0.1786E+02  0.1677E+02  0.5839E+02  0.5832E+02
     -4.116  0.5253E+02  0.5200E+02  0.6215E+02  0.6201E+02
     -4.045  0.1698E+02  0.1826E+02  0.6341E+02  0.6339E+02
     -3.974  0.2940E+02  0.2866E+02  0.6550E+02  0.6542E+02
     -3.903  0.2979E+02  0.2931E+02  0.6761E+02  0.6751E+02
     -3.832  0.3711E+02  0.3851E+02  0.7025E+02  0.7024E+02
     -3.761  0.1010E+02  0.9316E+01  0.7097E+02  0.7091E+02
     -3.690  0.2947E+02  0.2803E+02  0.7307E+02  0.7291E+02
     -3.619  0.2844E+02  0.3012E+02  0.7510E+02  0.7508E+02
     -3.548  0.2456E+02  0.2371E+02  0.7687E+02  0.7677E+02
     -3.477  0.1762E+02  0.1788E+02  0.7815E+02  0.7806E+02
     -3.406  0.4597E+02  0.4586E+02  0.8141E+02  0.8132E+02
     -3.335  0.3023E+02  0.3116E+02  0.8356E+02  0.8353E+02
     -3.264  0.6080E+02  0.6110E+02  0.8787E+02  0.8787E+02
     -3.193  0.9584E+01  0.9125E+01  0.8856E+02  0.8852E+02
     -3.122  0.3200E+02  0.3072E+02  0.9083E+02  0.9070E+02
     -3.051  0.3766E+02  0.3811E+02  0.9351E+02  0.9342E+02
     -2.980  0.5480E+02  0.5471E+02  0.9741E+02  0.9732E+02
     -2.909  0.3470E+02  0.3566E+02  0.9988E+02  0.9987E+02
     -2.838  0.1392E+02  0.1412E+02  0.1009E+03  0.1009E+03
     -2.767  0.1839E+02  0.1763E+02  0.1022E+03  0.1021E+03
     -2.696  0.2911E+02  0.2775E+02  0.1043E+03  0.1041E+03
     -2.625  0.4102E+02  0.4253E+02  0.1072E+03  0.1071E+03
     -2.554  0.3225E+02  0.3168E+02  0.1095E+03  0.1094E+03
     -2.483  0.3102E+02  0.3121E+02  0.1117E+03  0.1116E+03
     -2.412  0.2039E+02  0.2023E+02  0.1131E+03  0.1130E+03
     -2.341  0.2304E+02  0.2458E+02  0.1148E+03  0.1148E+03
     -2.270  0.2968E+02  0.2850E+02  0.1169E+03  0.1168E+03
     -2.199  0.4236E+02  0.4138E+02  0.1199E+03  0.1198E+03
     -2.128  0.2711E+02  0.2804E+02  0.1218E+03  0.1218E+03
     -2.057  0.1383E+02  0.1269E+02  0.1228E+03  0.1227E+03
     -1.986  0.3215E+02  0.3220E+02  0.1251E+03  0.1250E+03
     -1.915  0.3858E+02  0.3658E+02  0.1278E+03  0.1276E+03
     -1.844  0.1008E+02  0.1331E+02  0.1286E+03  0.1285E+03
     -1.773  0.1742E+02  0.1678E+02  0.1298E+03  0.1297E+03
     -1.702  0.2664E+02  0.2470E+02  0.1317E+03  0.1315E+03
     -1.631  0.2525E+02  0.2834E+02  0.1335E+03  0.1335E+03
     -1.560  0.8693E+01  0.8394E+01  0.1341E+03  0.1341E+03
     -1.489  0.4682E+01  0.4511E+01  0.1345E+03  0.1344E+03
     -1.418  0.3806E+02  0.3702E+02  0.1372E+03  0.1371E+03
     -1.347  0.3396E+02  0.3482E+02  0.1396E+03  0.1395E+03
     -1.276  0.2641E+02  0.2264E+02  0.1414E+03  0.1411E+03
     -1.205  0.3702E+02  0.3920E+02  0.1441E+03  0.1439E+03
     -1.134  0.2776E+02  0.2863E+02  0.1461E+03  0.1460E+03
     -1.063  0.2474E+02  0.2648E+02  0.1479E+03  0.1479E+03
     -0.992  0.1454E+02  0.1408E+02  0.1489E+03  0.1489E+03
     -0.921  0.1608E+02  0.1637E+02  0.1501E+03  0.1500E+03
     -0.850  0.5491E+02  0.4838E+02  0.1540E+03  0.1535E+03
     -0.779  0.2010E+02  0.2396E+02  0.1554E+03  0.1552E+03
     -0.708  0.3336E+02  0.3146E+02  0.1578E+03  0.1574E+03
     -0.637  0.4199E+02  0.4229E+02  0.1608E+03  0.1605E+03
     -0.566  0.3018E+02  0.3255E+02  0.1629E+03  0.1628E+03
     -0.496  0.4867E+02  0.3814E+02  0.1664E+03  0.1655E+03
     -0.425  0.3128E+02  0.4374E+02  0.1686E+03  0.1686E+03
     -0.354  0.3481E+02  0.3216E+02  0.1711E+03  0.1709E+03
     -0.283  0.3654E+02  0.3567E+02  0.1737E+03  0.1734E+03
     -0.212  0.3343E+02  0.2968E+02  0.1761E+03  0.1756E+03
     -0.141  0.5110E+02  0.4647E+02  0.1797E+03  0.1789E+03
     -0.070  0.4916E+02  0.5710E+02  0.1833E+03  0.1829E+03
      0.001  0.2000E+02  0.2333E+02  0.1847E+03  0.1846E+03
      0.072  0.2213E+02  0.2022E+02  0.1863E+03  0.1861E+03
      0.143  0.2850E+02  0.3088E+02  0.1883E+03  0.1883E+03
      0.214  0.2064E+02  0.1910E+02  0.1898E+03  0.1896E+03
      0.285  0.5171E+02  0.5043E+02  0.1935E+03  0.1932E+03
      0.356  0.2973E+02  0.2940E+02  0.1956E+03  0.1953E+03
      0.427  0.3343E+02  0.3023E+02  0.1980E+03  0.1975E+03
      0.498  0.3995E+02  0.4356E+02  0.2008E+03  0.2006E+03
      0.569  0.1420E+02  0.1818E+02  0.2019E+03  0.2019E+03
      0.640  0.5214E+02  0.4803E+02  0.2056E+03  0.2053E+03
      0.711  0.3767E+02  0.4018E+02  0.2083E+03  0.2081E+03
      0.782  0.1913E+02  0.2023E+02  0.2096E+03  0.2096E+03
      0.853  0.2851E+02  0.2510E+02  0.2117E+03  0.2114E+03
      0.924  0.3796E+02  0.3952E+02  0.2144E+03  0.2142E+03
      0.995  0.9876E+01  0.1100E+02  0.2151E+03  0.2150E+03
      1.066  0.3464E+02  0.3158E+02  0.2175E+03  0.2172E+03
      1.137  0.6395E+02  0.6118E+02  0.2221E+03  0.2216E+03
      1.208  0.4375E+02  0.5044E+02  0.2252E+03  0.2252E+03
      1.279  0.2616E+02  0.2010E+02  0.2271E+03  0.2266E+03
      1.350  0.3418E+02  0.3539E+02  0.2295E+03  0.2292E+03
      1.421  0.3135E+02  0.3258E+02  0.2318E+03  0.2315E+03
      1.492  0.3923E+02  0.4197E+02  0.2346E+03  0.2345E+03
      1.563  0.4438E+02  0.4085E+02  0.2378E+03  0.2374E+03
      1.634  0.5004E+02  0.4666E+02  0.2413E+03  0.2408E+03
      1.705  0.2673E+02  0.3017E+02  0.2432E+03  0.2429E+03
      1.776  0.3012E+02  0.3328E+02  0.2454E+03  0.2453E+03
      1.847  0.1674E+02  0.1397E+02  0.2466E+03  0.2463E+03
      1.918  0.5633E+02  0.5687E+02  0.2506E+03  0.2503E+03
      1.989  0.3054E+02  0.3036E+02  0.2527E+03  0.2525E+03
      2.060  0.2454E+02  0.2597E+02  0.2545E+03  0.2544E+03
      2.131  0.5643E+02  0.5007E+02  0.2585E+03  0.2579E+03
      2.202  0.3392E+02  0.3997E+02  0.2609E+03  0.2608E+03
      2.273  0.4491E+02  0.4502E+02  0.2641E+03  0.2640E+03
      2.344  0.2322E+02  0.2373E+02  0.2658E+03  0.2657E+03
      2.415  0.3910E+02  0.3235E+02  0.2686E+03  0.2680E+03
      2.486  0.6096E+02  0.5744E+02  0.2729E+03  0.2721E+03
      2.557  0.4157E+02  0.4790E+02  0.2759E+03  0.2755E+03
      2.628  0.4628E+02  0.4795E+02  0.2792E+03  0.2790E+03
      2.699  0.3567E+02  0.3052E+02  0.2817E+03  0.2811E+03
      2.770  0.6954E+02  0.6463E+02  0.2867E+03  0.2858E+03
      2.841  0.6029E+02  0.6986E+02  0.2910E+03  0.2908E+03
      2.912  0.2405E+02  0.2036E+02  0.2928E+03  0.2922E+03
      2.983  0.4834E+02  0.5097E+02  0.2962E+03  0.2959E+03
      3.054  0.5161E+02  0.5269E+02  0.2999E+03  0.2996E+03
      3.125  0.6208E+02  0.6475E+02  0.3043E+03  0.3042E+03
      3.196  0.3770E+02  0.3137E+02  0.3070E+03  0.3065E+03
      3.267  0.7172E+02  0.7142E+02  0.3121E+03  0.3116E+03
      3.338  0.6322E+02  0.6125E+02  0.3166E+03  0.3159E+03
      3.409  0.4343E+02  0.4914E+02  0.3197E+03  0.3194E+03
      3.479  0.7564E+02  0.7014E+02  0.3251E+03  0.3244E+03
      3.550  0.3663E+02  0.4065E+02  0.3277E+03  0.3273E+03
      3.621  0.5257E+02  0.5063E+02  0.3315E+03  0.3309E+03
      3.692  0.4562E+02  0.4955E+02  0.3348E+03  0.3345E+03
      3.763  0.5902E+02  0.5823E+02  0.3389E+03  0.3386E+03
      3.834  0.6279E+02  0.5915E+02  0.3434E+03  0.3428E+03
      3.905  0.7364E+02  0.7476E+02  0.3487E+03  0.3481E+03
      3.976  0.5673E+02  0.5664E+02  0.3527E+03  0.3522E+03
      4.047  0.6822E+02  0.6583E+02  0.3576E+03  0.3569E+03
      4.118  0.3591E+02  0.4260E+02  0.3601E+03  0.3599E+03
      4.189  0.5061E+02  0.4703E+02  0.3638E+03  0.3632E+03
      4.260  0.5563E+02  0.5948E+02  0.3677E+03  0.3675E+03
      4.331  0.7068E+02  0.7227E+02  0.3727E+03  0.3726E+03
      4.402  0.3858E+02  0.3531E+02  0.3755E+03  0.3751E+03
      4.473  0.7657E+02  0.7937E+02  0.3810E+03  0.3808E+03
      4.544  0.4351E+02  0.4286E+02  0.3841E+03  0.3839E+03
      4.615  0.4312E+02  0.4206E+02  0.3871E+03  0.3869E+03
      4.686  0.4036E+02  0.3725E+02  0.3900E+03  0.3895E+03
      4.757  0.6595E+02  0.6045E+02  0.3947E+03  0.3938E+03
      4.828  0.4751E+02  0.5525E+02  0.3981E+03  0.3978E+03
      4.899  0.3337E+02  0.3862E+02  0.4005E+03  0.4005E+03
      4.970  0.5393E+02  0.5064E+02  0.4044E+03  0.4041E+03
      5.041  0.2977E+02  0.2733E+02  0.4065E+03  0.4061E+03
      5.112  0.2382E+02  0.2419E+02  0.4082E+03  0.4078E+03
      5.183  0.5948E+02  0.6174E+02  0.4124E+03  0.4122E+03
      5.254  0.4343E+02  0.3474E+02  0.4155E+03  0.4147E+03
      5.325  0.5899E+02  0.6242E+02  0.4197E+03  0.4191E+03
      5.396  0.4516E+02  0.5043E+02  0.4230E+03  0.4227E+03
      5.467  0.2800E+02  0.2090E+02  0.4250E+03  0.4242E+03
      5.538  0.4104E+02  0.3757E+02  0.4279E+03  0.4269E+03
      5.609  0.4138E+02  0.4957E+02  0.4309E+03  0.4304E+03
      5.680  0.3975E+02  0.3286E+02  0.4337E+03  0.4327E+03
      5.751  0.3322E+02  0.3784E+02  0.4361E+03  0.4354E+03
      5.822  0.3424E+02  0.3027E+02  0.4385E+03  0.4376E+03
      5.893  0.7919E+02  0.6599E+02  0.4442E+03  0.4423E+03
      5.964  0.4318E+02  0.5013E+02  0.4472E+03  0.4459E+03
      6.035  0.1976E+02  0.3452E+02  0.4486E+03  0.4484E+03
      6.106  0.4057E+02  0.3269E+02  0.4515E+03  0.4507E+03
      6.177  0.3874E+02  0.4316E+02  0.4543E+03  0.4538E+03
      6.248  0.4118E+02  0.3091E+02  0.4572E+03  0.4560E+03
      6.319  0.3043E+02  0.3752E+02  0.4594E+03  0.4586E+03
      6.390  0.5353E+02  0.3424E+02  0.4632E+03  0.4611E+03
      6.461  0.3604E+02  0.4892E+02  0.4658E+03  0.4646E+03
      6.532  0.3472E+02  0.4265E+02  0.4683E+03  0.4676E+03
      6.603  0.4520E+02  0.2461E+02  0.4715E+03  0.4694E+03
      6.674  0.6587E+02  0.6135E+02  0.4762E+03  0.4737E+03
      6.745  0.1694E+02  0.3814E+02  0.4775E+03  0.4765E+03
      6.816  0.5419E+02  0.3408E+02  0.4813E+03  0.4789E+03
      6.887  0.5475E+02  0.5086E+02  0.4852E+03  0.4826E+03
      6.958  0.4275E+02  0.4724E+02  0.4883E+03  0.4859E+03
      7.029  0.3993E+02  0.4786E+02  0.4911E+03  0.4893E+03
      7.100  0.7249E+02  0.3983E+02  0.4963E+03  0.4922E+03
      7.171  0.5341E+02  0.7134E+02  0.5001E+03  0.4972E+03
      7.242  0.2527E+02  0.5173E+02  0.5019E+03  0.5009E+03
      7.313  0.2570E+02  0.3357E+02  0.5037E+03  0.5033E+03
      7.384  0.3486E+02  0.2799E+02  0.5062E+03  0.5053E+03
      7.455  0.2477E+02  0.1770E+02  0.5080E+03  0.5065E+03
      7.525  0.3776E+02  0.4618E+02  0.5106E+03  0.5098E+03
      7.596  0.5223E+02  0.5212E+02  0.5144E+03  0.5135E+03
      7.667  0.3513E+02  0.3376E+02  0.5169E+03  0.5160E+03
      7.738  0.4042E+02  0.4491E+02  0.5198E+03  0.5192E+03
      7.809  0.4902E+02  0.4873E+02  0.5232E+03  0.5227E+03
      7.880  0.2660E+02  0.3188E+02  0.5251E+03  0.5250E+03
      7.951  0.4348E+02  0.3373E+02  0.5282E+03  0.5274E+03
      8.022  0.4708E+02  0.5506E+02  0.5316E+03  0.5313E+03
      8.093  0.4802E+02  0.4168E+02  0.5350E+03  0.5342E+03
      8.164  0.4989E+02  0.5403E+02  0.5386E+03  0.5381E+03
      8.235  0.5323E+02  0.5134E+02  0.5424E+03  0.5417E+03
      8.306  0.4209E+02  0.4393E+02  0.5454E+03  0.5449E+03
      8.377  0.3702E+02  0.3084E+02  0.5481E+03  0.5471E+03
      8.448  0.6789E+02  0.7433E+02  0.5529E+03  0.5524E+03
      8.519  0.4093E+02  0.4540E+02  0.5558E+03  0.5556E+03
      8.590  0.5004E+02  0.4568E+02  0.5594E+03  0.5589E+03
      8.661  0.6205E+02  0.5718E+02  0.5638E+03  0.5629E+03
      8.732  0.4495E+02  0.5599E+02  0.5670E+03  0.5669E+03
      8.803  0.2852E+02  0.2821E+02  0.5691E+03  0.5689E+03
      8.874  0.4830E+02  0.4937E+02  0.5725E+03  0.5724E+03
      8.945  0.3749E+02  0.3710E+02  0.5752E+03  0.5751E+03
      9.016  0.7140E-01  0.2114E+01  0.5753E+03  0.5753E+03
      9.087  0.1049E+02  0.1056E+02  0.5760E+03  0.5760E+03
      9.158  0.0000E+00  0.0000E+00  0.5760E+03  0.5760E+03
      9.229  0.0000E+00  0.0000E+00  0.5760E+03  0.5760E+03
      9.300  0.0000E+00  0.0000E+00  0.5760E+03  0.5760E+03
      9.371  0.0000E+00  0.0000E+00  0.5760E+03  0.5760E+03
      9.442  0.0000E+00  0.0000E+00  0.5760E+03  0.5760E+03
      9.513  0.0000E+00  0.0000E+00  0.5760E+03  0.5760E+03
      9.584  0.0000E+00  0.0000E+00  0.5760E+03  0.5760E+03
      9.655  0.0000E+00  0.0000E+00  0.5760E+03  0.5760E+03
      9.726  0.0000E+00  0.0000E+00  0.5760E+03  0.5760E+03
      9.797  0.0000E+00  0.0000E+00  0.5760E+03  0.5760E+03
      9.868  0.0000E+00  0.0000E+00  0.5760E+03  0.5760E+03
      9.939  0.0000E+00  0.0000E+00  0.5760E+03  0.5760E+03
     10.010  0.0000E+00  0.0000E+00  0.5760E+03  0.5760E+03
