  96  96   0   0
  0.2243693E+02  0.1265123E-08  0.1265123E-08  0.1373516E-08  0.5000000E-15
  1.000000000000000E-004
  CAR 
 Si and Ge interface calculation         
      6.61831645    -10.95955788  301      3.68402239      1.00000000
    -10.960  0.0000E+00  0.0000E+00  0.0000E+00  0.0000E+00
    -10.901  0.0000E+00  0.0000E+00  0.0000E+00  0.0000E+00
    -10.842  0.0000E+00  0.0000E+00  0.0000E+00  0.0000E+00
    -10.784  0.0000E+00  0.0000E+00  0.0000E+00  0.0000E+00
    -10.725  0.0000E+00  0.0000E+00  0.0000E+00  0.0000E+00
    -10.667  0.0000E+00  0.0000E+00  0.0000E+00  0.0000E+00
    -10.608  0.0000E+00  0.0000E+00  0.0000E+00  0.0000E+00
    -10.549  0.0000E+00  0.0000E+00  0.0000E+00  0.0000E+00
    -10.491  0.0000E+00  0.0000E+00  0.0000E+00  0.0000E+00
    -10.432  0.0000E+00  0.0000E+00  0.0000E+00  0.0000E+00
    -10.374  0.0000E+00  0.0000E+00  0.0000E+00  0.0000E+00
    -10.315  0.0000E+00  0.0000E+00  0.0000E+00  0.0000E+00
    -10.256  0.0000E+00  0.0000E+00  0.0000E+00  0.0000E+00
    -10.198  0.1293E-06  0.3199E-11  0.7575E-08  0.1874E-12
    -10.139  0.1010E+02  0.4887E+01  0.5916E+00  0.2863E+00
    -10.081  0.2230E+02  0.1974E+02  0.1898E+01  0.1443E+01
    -10.022  0.1736E+01  0.9503E+01  0.2000E+01  0.2000E+01
     -9.963  0.2894E-02  0.2459E-05  0.2000E+01  0.2000E+01
     -9.905  0.2273E+02  0.2111E+02  0.3332E+01  0.3237E+01
     -9.846  0.1969E-01  0.1645E+01  0.3333E+01  0.3333E+01
     -9.788  0.2526E-14  0.0000E+00  0.3333E+01  0.3333E+01
     -9.729  0.4204E+01  0.8890E+00  0.3580E+01  0.3385E+01
     -9.671  0.3420E+02  0.3351E+02  0.5583E+01  0.5349E+01
     -9.612  0.1849E+02  0.2249E+02  0.6667E+01  0.6667E+01
     -9.553  0.0000E+00  0.0000E+00  0.6667E+01  0.6667E+01
     -9.495  0.0000E+00  0.0000E+00  0.6667E+01  0.6667E+01
     -9.436  0.0000E+00  0.0000E+00  0.6667E+01  0.6667E+01
     -9.378  0.4339E-08  0.6674E-13  0.6667E+01  0.6667E+01
     -9.319  0.1829E+02  0.7202E+01  0.7738E+01  0.7089E+01
     -9.260  0.4471E+01  0.1555E+02  0.8000E+01  0.8000E+01
     -9.202  0.4173E-03  0.4307E-05  0.8000E+01  0.8000E+01
     -9.143  0.2953E+02  0.2626E+02  0.9730E+01  0.9538E+01
     -9.085  0.4605E+01  0.7877E+01  0.1000E+02  0.1000E+02
     -9.026  0.4980E-07  0.1472E-11  0.1000E+02  0.1000E+02
     -8.967  0.2229E+02  0.1642E+02  0.1131E+02  0.1096E+02
     -8.909  0.4696E+00  0.6333E+01  0.1133E+02  0.1133E+02
     -8.850  0.1157E-04  0.2585E-08  0.1133E+02  0.1133E+02
     -8.792  0.1137E+02  0.1101E+02  0.1200E+02  0.1198E+02
     -8.733  0.0000E+00  0.3704E+00  0.1200E+02  0.1200E+02
     -8.674  0.0000E+00  0.0000E+00  0.1200E+02  0.1200E+02
     -8.616  0.2789E-03  0.5939E-06  0.1200E+02  0.1200E+02
     -8.557  0.4904E+01  0.3938E+01  0.1229E+02  0.1223E+02
     -8.499  0.1039E+02  0.1123E+02  0.1290E+02  0.1289E+02
     -8.440  0.2459E+02  0.2402E+02  0.1434E+02  0.1430E+02
     -8.381  0.1423E+02  0.1161E+02  0.1517E+02  0.1498E+02
     -8.323  0.1866E+02  0.1860E+02  0.1626E+02  0.1607E+02
     -8.264  0.2244E+02  0.2054E+02  0.1758E+02  0.1727E+02
     -8.206  0.1195E+02  0.1483E+02  0.1828E+02  0.1814E+02
     -8.147  0.2427E+02  0.2191E+02  0.1970E+02  0.1942E+02
     -8.089  0.3430E+02  0.3634E+02  0.2171E+02  0.2155E+02
     -8.030  0.2017E+02  0.1833E+02  0.2289E+02  0.2263E+02
     -7.971  0.3208E+02  0.3490E+02  0.2477E+02  0.2467E+02
     -7.913  0.1490E+02  0.1470E+02  0.2565E+02  0.2553E+02
     -7.854  0.1488E+02  0.1505E+02  0.2652E+02  0.2641E+02
     -7.796  0.2352E+02  0.2274E+02  0.2790E+02  0.2775E+02
     -7.737  0.2167E+02  0.2126E+02  0.2916E+02  0.2899E+02
     -7.678  0.2830E+02  0.2512E+02  0.3082E+02  0.3046E+02
     -7.620  0.3122E+02  0.3608E+02  0.3265E+02  0.3258E+02
     -7.561  0.1969E+02  0.1594E+02  0.3381E+02  0.3351E+02
     -7.503  0.3158E+02  0.3392E+02  0.3566E+02  0.3550E+02
     -7.444  0.2559E+02  0.2418E+02  0.3716E+02  0.3692E+02
     -7.385  0.1777E+02  0.2120E+02  0.3820E+02  0.3816E+02
     -7.327  0.1283E+02  0.1158E+02  0.3895E+02  0.3884E+02
     -7.268  0.9238E+01  0.1042E+02  0.3949E+02  0.3945E+02
     -7.210  0.3598E+02  0.3306E+02  0.4160E+02  0.4138E+02
     -7.151  0.2529E+02  0.2570E+02  0.4308E+02  0.4289E+02
     -7.092  0.3581E+02  0.3430E+02  0.4518E+02  0.4490E+02
     -7.034  0.3427E+02  0.3195E+02  0.4719E+02  0.4677E+02
     -6.975  0.1879E+02  0.2407E+02  0.4829E+02  0.4818E+02
     -6.917  0.2288E+02  0.2335E+02  0.4963E+02  0.4955E+02
     -6.858  0.2569E+02  0.2191E+02  0.5113E+02  0.5083E+02
     -6.799  0.2543E+02  0.2882E+02  0.5262E+02  0.5252E+02
     -6.741  0.3117E+02  0.2393E+02  0.5445E+02  0.5393E+02
     -6.682  0.3609E+02  0.4084E+02  0.5657E+02  0.5632E+02
     -6.624  0.2630E+02  0.2625E+02  0.5811E+02  0.5786E+02
     -6.565  0.2231E+02  0.2412E+02  0.5941E+02  0.5927E+02
     -6.506  0.1506E+02  0.1473E+02  0.6030E+02  0.6013E+02
     -6.448  0.2980E+02  0.2968E+02  0.6204E+02  0.6187E+02
     -6.389  0.2622E+02  0.2553E+02  0.6358E+02  0.6337E+02
     -6.331  0.2920E+02  0.3029E+02  0.6529E+02  0.6514E+02
     -6.272  0.3703E+02  0.3593E+02  0.6746E+02  0.6725E+02
     -6.214  0.3423E+02  0.3349E+02  0.6947E+02  0.6921E+02
     -6.155  0.3425E+02  0.3234E+02  0.7147E+02  0.7111E+02
     -6.096  0.2271E+02  0.2588E+02  0.7280E+02  0.7262E+02
     -6.038  0.3148E+02  0.3145E+02  0.7465E+02  0.7447E+02
     -5.979  0.1969E+02  0.2050E+02  0.7580E+02  0.7567E+02
     -5.921  0.8789E+01  0.9071E+01  0.7632E+02  0.7620E+02
     -5.862  0.3147E+02  0.2845E+02  0.7816E+02  0.7787E+02
     -5.803  0.1760E+02  0.2019E+02  0.7919E+02  0.7905E+02
     -5.745  0.2514E+02  0.2339E+02  0.8066E+02  0.8042E+02
     -5.686  0.1559E+02  0.1714E+02  0.8158E+02  0.8142E+02
     -5.628  0.1732E+02  0.1935E+02  0.8259E+02  0.8256E+02
     -5.569  0.3028E+02  0.2423E+02  0.8437E+02  0.8398E+02
     -5.510  0.1831E+02  0.2259E+02  0.8544E+02  0.8530E+02
     -5.452  0.3017E+02  0.2844E+02  0.8721E+02  0.8697E+02
     -5.393  0.2031E+02  0.2187E+02  0.8840E+02  0.8825E+02
     -5.335  0.2478E+02  0.1857E+02  0.8985E+02  0.8934E+02
     -5.276  0.3867E+02  0.3938E+02  0.9212E+02  0.9164E+02
     -5.217  0.2624E+02  0.3104E+02  0.9365E+02  0.9346E+02
     -5.159  0.2427E+02  0.2492E+02  0.9508E+02  0.9492E+02
     -5.100  0.3393E+02  0.3175E+02  0.9706E+02  0.9678E+02
     -5.042  0.2293E+02  0.2359E+02  0.9841E+02  0.9817E+02
     -4.983  0.2419E+02  0.2282E+02  0.9982E+02  0.9950E+02
     -4.924  0.2181E+02  0.2214E+02  0.1011E+03  0.1008E+03
     -4.866  0.2416E+02  0.1987E+02  0.1025E+03  0.1020E+03
     -4.807  0.2323E+02  0.2703E+02  0.1039E+03  0.1035E+03
     -4.749  0.2451E+02  0.2480E+02  0.1053E+03  0.1050E+03
     -4.690  0.2844E+02  0.3109E+02  0.1070E+03  0.1068E+03
     -4.632  0.3105E+02  0.2599E+02  0.1088E+03  0.1083E+03
     -4.573  0.2231E+02  0.2448E+02  0.1101E+03  0.1098E+03
     -4.514  0.2851E+02  0.2842E+02  0.1118E+03  0.1114E+03
     -4.456  0.2553E+02  0.2823E+02  0.1133E+03  0.1131E+03
     -4.397  0.2225E+02  0.2329E+02  0.1146E+03  0.1145E+03
     -4.339  0.1729E+02  0.1848E+02  0.1156E+03  0.1155E+03
     -4.280  0.3110E+02  0.2635E+02  0.1174E+03  0.1171E+03
     -4.221  0.2194E+02  0.2331E+02  0.1187E+03  0.1185E+03
     -4.163  0.1550E+02  0.1751E+02  0.1196E+03  0.1195E+03
     -4.104  0.1725E+02  0.1656E+02  0.1206E+03  0.1205E+03
     -4.046  0.2166E+02  0.2092E+02  0.1219E+03  0.1217E+03
     -3.987  0.2158E+02  0.1920E+02  0.1232E+03  0.1228E+03
     -3.928  0.2095E+02  0.2345E+02  0.1244E+03  0.1242E+03
     -3.870  0.1727E+02  0.1883E+02  0.1254E+03  0.1253E+03
     -3.811  0.1718E+02  0.1663E+02  0.1264E+03  0.1263E+03
     -3.753  0.2032E+02  0.1897E+02  0.1276E+03  0.1274E+03
     -3.694  0.2700E+02  0.2785E+02  0.1292E+03  0.1290E+03
     -3.635  0.1792E+02  0.1983E+02  0.1302E+03  0.1302E+03
     -3.577  0.2990E+02  0.2474E+02  0.1320E+03  0.1316E+03
     -3.518  0.1589E+02  0.2032E+02  0.1329E+03  0.1328E+03
     -3.460  0.1987E+02  0.1803E+02  0.1341E+03  0.1339E+03
     -3.401  0.3443E+02  0.3324E+02  0.1361E+03  0.1358E+03
     -3.342  0.2706E+02  0.2707E+02  0.1377E+03  0.1374E+03
     -3.284  0.2532E+02  0.2527E+02  0.1392E+03  0.1389E+03
     -3.225  0.3244E+02  0.3201E+02  0.1411E+03  0.1407E+03
     -3.167  0.2595E+02  0.2750E+02  0.1426E+03  0.1424E+03
     -3.108  0.2140E+02  0.2260E+02  0.1438E+03  0.1437E+03
     -3.050  0.3232E+02  0.3001E+02  0.1457E+03  0.1454E+03
     -2.991  0.1795E+02  0.1461E+02  0.1468E+03  0.1463E+03
     -2.932  0.3154E+02  0.3486E+02  0.1486E+03  0.1483E+03
     -2.874  0.2635E+02  0.2703E+02  0.1502E+03  0.1499E+03
     -2.815  0.1884E+02  0.1695E+02  0.1513E+03  0.1509E+03
     -2.757  0.2953E+02  0.3540E+02  0.1530E+03  0.1530E+03
     -2.698  0.2912E+02  0.2308E+02  0.1547E+03  0.1543E+03
     -2.639  0.2920E+02  0.3025E+02  0.1564E+03  0.1561E+03
     -2.581  0.3343E+02  0.2913E+02  0.1584E+03  0.1578E+03
     -2.522  0.3693E+02  0.4069E+02  0.1605E+03  0.1602E+03
     -2.464  0.2410E+02  0.2585E+02  0.1620E+03  0.1617E+03
     -2.405  0.2556E+02  0.2554E+02  0.1635E+03  0.1632E+03
     -2.346  0.3720E+02  0.3471E+02  0.1656E+03  0.1653E+03
     -2.288  0.1643E+02  0.2227E+02  0.1666E+03  0.1666E+03
     -2.229  0.3344E+02  0.2698E+02  0.1686E+03  0.1681E+03
     -2.171  0.3830E+02  0.3947E+02  0.1708E+03  0.1705E+03
     -2.112  0.3419E+02  0.3615E+02  0.1728E+03  0.1726E+03
     -2.053  0.2606E+02  0.2580E+02  0.1743E+03  0.1741E+03
     -1.995  0.2714E+02  0.2870E+02  0.1759E+03  0.1758E+03
     -1.936  0.1175E+02  0.9377E+01  0.1766E+03  0.1763E+03
     -1.878  0.2063E+02  0.2474E+02  0.1778E+03  0.1778E+03
     -1.819  0.2404E+02  0.2486E+02  0.1792E+03  0.1792E+03
     -1.760  0.1309E+02  0.1170E+02  0.1800E+03  0.1799E+03
     -1.702  0.1831E+02  0.1483E+02  0.1811E+03  0.1808E+03
     -1.643  0.1882E+02  0.2023E+02  0.1822E+03  0.1820E+03
     -1.585  0.1875E+02  0.1875E+02  0.1833E+03  0.1831E+03
     -1.526  0.4776E+01  0.7329E+01  0.1835E+03  0.1835E+03
     -1.468  0.8263E+01  0.5558E+01  0.1840E+03  0.1838E+03
     -1.409  0.2283E+02  0.2375E+02  0.1854E+03  0.1852E+03
     -1.350  0.1534E+02  0.1731E+02  0.1863E+03  0.1862E+03
     -1.292  0.2499E+02  0.2076E+02  0.1877E+03  0.1874E+03
     -1.233  0.1659E+02  0.1870E+02  0.1887E+03  0.1885E+03
     -1.175  0.7263E+01  0.9920E+01  0.1891E+03  0.1891E+03
     -1.116  0.1162E+02  0.8058E+01  0.1898E+03  0.1896E+03
     -1.057  0.2292E+02  0.2399E+02  0.1912E+03  0.1910E+03
     -0.999  0.2316E+02  0.2421E+02  0.1925E+03  0.1924E+03
     -0.940  0.3536E+02  0.3452E+02  0.1946E+03  0.1944E+03
     -0.882  0.3350E+02  0.3419E+02  0.1965E+03  0.1964E+03
     -0.823  0.1799E+02  0.1593E+02  0.1976E+03  0.1974E+03
     -0.764  0.3714E+02  0.3592E+02  0.1998E+03  0.1995E+03
     -0.706  0.3622E+02  0.3381E+02  0.2019E+03  0.2015E+03
     -0.647  0.2724E+02  0.3218E+02  0.2035E+03  0.2033E+03
     -0.589  0.4999E+02  0.4776E+02  0.2064E+03  0.2061E+03
     -0.530  0.4436E+02  0.3560E+02  0.2090E+03  0.2082E+03
     -0.471  0.3796E+02  0.4685E+02  0.2112E+03  0.2110E+03
     -0.413  0.3318E+02  0.3523E+02  0.2132E+03  0.2130E+03
     -0.354  0.3564E+02  0.3187E+02  0.2153E+03  0.2149E+03
     -0.296  0.3050E+02  0.2992E+02  0.2171E+03  0.2167E+03
     -0.237  0.5335E+02  0.5533E+02  0.2202E+03  0.2199E+03
     -0.178  0.3976E+02  0.3654E+02  0.2225E+03  0.2220E+03
     -0.120  0.4203E+02  0.4169E+02  0.2250E+03  0.2245E+03
     -0.061  0.5339E+02  0.5914E+02  0.2281E+03  0.2279E+03
     -0.003  0.3706E+02  0.2866E+02  0.2303E+03  0.2296E+03
      0.056  0.4652E+02  0.4978E+02  0.2330E+03  0.2325E+03
      0.115  0.5172E+02  0.5273E+02  0.2360E+03  0.2356E+03
      0.173  0.2067E+02  0.2416E+02  0.2373E+03  0.2370E+03
      0.232  0.5341E+02  0.4900E+02  0.2404E+03  0.2399E+03
      0.290  0.4485E+02  0.4648E+02  0.2430E+03  0.2426E+03
      0.349  0.4532E+02  0.4641E+02  0.2457E+03  0.2454E+03
      0.407  0.5338E+02  0.5295E+02  0.2488E+03  0.2485E+03
      0.466  0.4958E+02  0.4682E+02  0.2517E+03  0.2512E+03
      0.525  0.4375E+02  0.4976E+02  0.2543E+03  0.2541E+03
      0.583  0.4429E+02  0.4048E+02  0.2569E+03  0.2565E+03
      0.642  0.5469E+02  0.5256E+02  0.2601E+03  0.2596E+03
      0.700  0.5118E+02  0.5226E+02  0.2631E+03  0.2626E+03
      0.759  0.4516E+02  0.4680E+02  0.2657E+03  0.2654E+03
      0.818  0.5397E+02  0.5159E+02  0.2689E+03  0.2684E+03
      0.876  0.4283E+02  0.4359E+02  0.2714E+03  0.2710E+03
      0.935  0.5534E+02  0.5762E+02  0.2746E+03  0.2743E+03
      0.993  0.5229E+02  0.4857E+02  0.2777E+03  0.2772E+03
      1.052  0.6309E+02  0.6340E+02  0.2814E+03  0.2809E+03
      1.111  0.4855E+02  0.5193E+02  0.2842E+03  0.2839E+03
      1.169  0.5061E+02  0.4908E+02  0.2872E+03  0.2868E+03
      1.228  0.5381E+02  0.5409E+02  0.2903E+03  0.2900E+03
      1.286  0.5848E+02  0.5257E+02  0.2938E+03  0.2931E+03
      1.345  0.4515E+02  0.4724E+02  0.2964E+03  0.2958E+03
      1.404  0.3153E+02  0.3516E+02  0.2983E+03  0.2979E+03
      1.462  0.3719E+02  0.3633E+02  0.3004E+03  0.3000E+03
      1.521  0.4493E+02  0.4963E+02  0.3031E+03  0.3029E+03
      1.579  0.3245E+02  0.3044E+02  0.3050E+03  0.3047E+03
      1.638  0.4690E+02  0.4605E+02  0.3077E+03  0.3074E+03
      1.697  0.3545E+02  0.2931E+02  0.3098E+03  0.3091E+03
      1.755  0.3817E+02  0.4138E+02  0.3120E+03  0.3115E+03
      1.814  0.4154E+02  0.4438E+02  0.3145E+03  0.3141E+03
      1.872  0.4105E+02  0.4081E+02  0.3169E+03  0.3165E+03
      1.931  0.3128E+02  0.3208E+02  0.3187E+03  0.3184E+03
      1.989  0.3727E+02  0.3319E+02  0.3209E+03  0.3204E+03
      2.048  0.2986E+02  0.3205E+02  0.3226E+03  0.3222E+03
      2.107  0.4751E+02  0.4180E+02  0.3254E+03  0.3247E+03
      2.165  0.3437E+02  0.4366E+02  0.3274E+03  0.3272E+03
      2.224  0.3719E+02  0.3191E+02  0.3296E+03  0.3291E+03
      2.282  0.3385E+02  0.3431E+02  0.3316E+03  0.3311E+03
      2.341  0.3634E+02  0.3841E+02  0.3337E+03  0.3334E+03
      2.400  0.3204E+02  0.2943E+02  0.3356E+03  0.3351E+03
      2.458  0.3417E+02  0.3609E+02  0.3376E+03  0.3372E+03
      2.517  0.3426E+02  0.3451E+02  0.3396E+03  0.3392E+03
      2.575  0.3146E+02  0.2895E+02  0.3415E+03  0.3409E+03
      2.634  0.4185E+02  0.4019E+02  0.3439E+03  0.3433E+03
      2.693  0.4777E+02  0.4950E+02  0.3467E+03  0.3462E+03
      2.751  0.3457E+02  0.3573E+02  0.3487E+03  0.3483E+03
      2.810  0.3970E+02  0.3797E+02  0.3511E+03  0.3505E+03
      2.868  0.3447E+02  0.3356E+02  0.3531E+03  0.3525E+03
      2.927  0.3836E+02  0.4142E+02  0.3553E+03  0.3549E+03
      2.986  0.3732E+02  0.3720E+02  0.3575E+03  0.3571E+03
      3.044  0.2953E+02  0.3360E+02  0.3593E+03  0.3591E+03
      3.103  0.4092E+02  0.3819E+02  0.3617E+03  0.3613E+03
      3.161  0.3405E+02  0.3391E+02  0.3636E+03  0.3633E+03
      3.220  0.4757E+02  0.4654E+02  0.3664E+03  0.3660E+03
      3.279  0.4697E+02  0.4025E+02  0.3692E+03  0.3684E+03
      3.337  0.2771E+02  0.3790E+02  0.3708E+03  0.3706E+03
      3.396  0.3482E+02  0.3155E+02  0.3729E+03  0.3724E+03
      3.454  0.4833E+02  0.4986E+02  0.3757E+03  0.3754E+03
      3.513  0.3102E+02  0.2860E+02  0.3775E+03  0.3770E+03
      3.571  0.3252E+02  0.3226E+02  0.3794E+03  0.3789E+03
      3.630  0.3420E+02  0.3443E+02  0.3814E+03  0.3809E+03
      3.689  0.3407E+02  0.3724E+02  0.3834E+03  0.3831E+03
      3.747  0.3912E+02  0.3629E+02  0.3857E+03  0.3852E+03
      3.806  0.2946E+02  0.2860E+02  0.3874E+03  0.3869E+03
      3.864  0.4681E+02  0.4785E+02  0.3902E+03  0.3897E+03
      3.923  0.1874E+02  0.2072E+02  0.3913E+03  0.3909E+03
      3.982  0.3240E+02  0.3177E+02  0.3932E+03  0.3928E+03
      4.040  0.2160E+02  0.1776E+02  0.3944E+03  0.3938E+03
      4.099  0.4028E+02  0.4629E+02  0.3968E+03  0.3966E+03
      4.157  0.1874E+02  0.1394E+02  0.3979E+03  0.3974E+03
      4.216  0.4577E+02  0.4283E+02  0.4006E+03  0.3999E+03
      4.275  0.4558E+02  0.4948E+02  0.4032E+03  0.4028E+03
      4.333  0.4530E+02  0.4854E+02  0.4059E+03  0.4056E+03
      4.392  0.3503E+02  0.3096E+02  0.4080E+03  0.4074E+03
      4.450  0.2562E+02  0.2876E+02  0.4095E+03  0.4091E+03
      4.509  0.3800E+02  0.3676E+02  0.4117E+03  0.4113E+03
      4.568  0.2901E+02  0.3214E+02  0.4134E+03  0.4132E+03
      4.626  0.3960E+02  0.3375E+02  0.4157E+03  0.4151E+03
      4.685  0.4436E+02  0.4841E+02  0.4183E+03  0.4180E+03
      4.743  0.4369E+02  0.3788E+02  0.4209E+03  0.4202E+03
      4.802  0.4762E+02  0.5223E+02  0.4236E+03  0.4233E+03
      4.861  0.3913E+02  0.4073E+02  0.4259E+03  0.4256E+03
      4.919  0.2475E+02  0.2390E+02  0.4274E+03  0.4270E+03
      4.978  0.4332E+02  0.3985E+02  0.4299E+03  0.4294E+03
      5.036  0.4181E+02  0.4406E+02  0.4324E+03  0.4320E+03
      5.095  0.3107E+02  0.3339E+02  0.4342E+03  0.4339E+03
      5.153  0.4930E+02  0.4501E+02  0.4371E+03  0.4366E+03
      5.212  0.4840E+02  0.4484E+02  0.4399E+03  0.4392E+03
      5.271  0.3641E+02  0.4504E+02  0.4421E+03  0.4418E+03
      5.329  0.3799E+02  0.3531E+02  0.4443E+03  0.4439E+03
      5.388  0.4608E+02  0.4304E+02  0.4470E+03  0.4464E+03
      5.446  0.4155E+02  0.3921E+02  0.4494E+03  0.4487E+03
      5.505  0.4283E+02  0.4853E+02  0.4519E+03  0.4516E+03
      5.564  0.4203E+02  0.4043E+02  0.4544E+03  0.4539E+03
      5.622  0.4999E+02  0.4556E+02  0.4573E+03  0.4566E+03
      5.681  0.4278E+02  0.5161E+02  0.4598E+03  0.4596E+03
      5.739  0.4220E+02  0.3698E+02  0.4623E+03  0.4618E+03
      5.798  0.2524E+02  0.3363E+02  0.4638E+03  0.4638E+03
      5.857  0.3788E+01  0.4232E+01  0.4640E+03  0.4640E+03
      5.915  0.0000E+00  0.0000E+00  0.4640E+03  0.4640E+03
      5.974  0.0000E+00  0.0000E+00  0.4640E+03  0.4640E+03
      6.032  0.0000E+00  0.0000E+00  0.4640E+03  0.4640E+03
      6.091  0.0000E+00  0.0000E+00  0.4640E+03  0.4640E+03
      6.150  0.0000E+00  0.0000E+00  0.4640E+03  0.4640E+03
      6.208  0.0000E+00  0.0000E+00  0.4640E+03  0.4640E+03
      6.267  0.0000E+00  0.0000E+00  0.4640E+03  0.4640E+03
      6.325  0.0000E+00  0.0000E+00  0.4640E+03  0.4640E+03
      6.384  0.0000E+00  0.0000E+00  0.4640E+03  0.4640E+03
      6.443  0.0000E+00  0.0000E+00  0.4640E+03  0.4640E+03
      6.501  0.0000E+00  0.0000E+00  0.4640E+03  0.4640E+03
      6.560  0.0000E+00  0.0000E+00  0.4640E+03  0.4640E+03
      6.618  0.0000E+00  0.0000E+00  0.4640E+03  0.4640E+03
