 120 120   0   0
  0.2190039E+02  0.7680595E-09  0.1629300E-08  0.2100086E-08  0.5000000E-15
  1.000000000000000E-004
  CAR 
 Si and Ge interface calculation         
      7.79715974     -8.59439374  301      4.76557159      1.00000000
     -8.594  0.0000E+00  0.0000E+00  0.0000E+00  0.0000E+00
     -8.540  0.0000E+00  0.0000E+00  0.0000E+00  0.0000E+00
     -8.485  0.0000E+00  0.0000E+00  0.0000E+00  0.0000E+00
     -8.430  0.0000E+00  0.0000E+00  0.0000E+00  0.0000E+00
     -8.376  0.0000E+00  0.0000E+00  0.0000E+00  0.0000E+00
     -8.321  0.0000E+00  0.0000E+00  0.0000E+00  0.0000E+00
     -8.267  0.0000E+00  0.0000E+00  0.0000E+00  0.0000E+00
     -8.212  0.0000E+00  0.0000E+00  0.0000E+00  0.0000E+00
     -8.157  0.0000E+00  0.0000E+00  0.0000E+00  0.0000E+00
     -8.103  0.0000E+00  0.0000E+00  0.0000E+00  0.0000E+00
     -8.048  0.0000E+00  0.0000E+00  0.0000E+00  0.0000E+00
     -7.993  0.0000E+00  0.0000E+00  0.0000E+00  0.0000E+00
     -7.939  0.0000E+00  0.0000E+00  0.0000E+00  0.0000E+00
     -7.884  0.2008E-05  0.1063E-07  0.1097E-06  0.5806E-09
     -7.829  0.4564E+01  0.4434E+01  0.2494E+00  0.2423E+00
     -7.775  0.1158E-01  0.1414E+00  0.2500E+00  0.2500E+00
     -7.720  0.1017E+02  0.9266E+01  0.8059E+00  0.7563E+00
     -7.666  0.8126E+01  0.9036E+01  0.1250E+01  0.1250E+01
     -7.611  0.6533E+01  0.1786E+01  0.1607E+01  0.1348E+01
     -7.556  0.1177E+02  0.1652E+02  0.2250E+01  0.2250E+01
     -7.502  0.9132E+01  0.8978E+01  0.2749E+01  0.2741E+01
     -7.447  0.1964E-01  0.1733E+00  0.2750E+01  0.2750E+01
     -7.392  0.1831E+02  0.1604E+02  0.3750E+01  0.3626E+01
     -7.338  0.1490E+02  0.1629E+02  0.4564E+01  0.4517E+01
     -7.283  0.2406E+02  0.1291E+02  0.5879E+01  0.5222E+01
     -7.228  0.3027E+02  0.4155E+02  0.7533E+01  0.7492E+01
     -7.174  0.8685E+01  0.9005E+01  0.8007E+01  0.7984E+01
     -7.119  0.3189E+02  0.3198E+02  0.9749E+01  0.9732E+01
     -7.065  0.9161E+01  0.9476E+01  0.1025E+02  0.1025E+02
     -7.010  0.1751E+02  0.1509E+02  0.1121E+02  0.1107E+02
     -6.955  0.3238E+02  0.2942E+02  0.1298E+02  0.1268E+02
     -6.901  0.2933E+02  0.2791E+02  0.1458E+02  0.1421E+02
     -6.846  0.2890E+02  0.3429E+02  0.1616E+02  0.1608E+02
     -6.791  0.1433E+02  0.1417E+02  0.1694E+02  0.1685E+02
     -6.737  0.1005E+02  0.1055E+02  0.1749E+02  0.1743E+02
     -6.682  0.1222E+02  0.8673E+01  0.1816E+02  0.1790E+02
     -6.627  0.2197E+02  0.2531E+02  0.1936E+02  0.1929E+02
     -6.573  0.2995E+02  0.2439E+02  0.2099E+02  0.2062E+02
     -6.518  0.4302E+02  0.4545E+02  0.2334E+02  0.2310E+02
     -6.463  0.3776E+02  0.3741E+02  0.2541E+02  0.2515E+02
     -6.409  0.4303E+02  0.4445E+02  0.2776E+02  0.2758E+02
     -6.354  0.2165E+02  0.2178E+02  0.2894E+02  0.2877E+02
     -6.300  0.3721E+02  0.3859E+02  0.3097E+02  0.3087E+02
     -6.245  0.2357E+02  0.2241E+02  0.3226E+02  0.3210E+02
     -6.190  0.3593E+02  0.3591E+02  0.3422E+02  0.3406E+02
     -6.136  0.2647E+02  0.2580E+02  0.3567E+02  0.3547E+02
     -6.081  0.4886E+02  0.4607E+02  0.3834E+02  0.3799E+02
     -6.026  0.4069E+02  0.4632E+02  0.4056E+02  0.4052E+02
     -5.972  0.2161E+02  0.1968E+02  0.4174E+02  0.4159E+02
     -5.917  0.2150E+02  0.2094E+02  0.4292E+02  0.4274E+02
     -5.862  0.4187E+02  0.4175E+02  0.4521E+02  0.4502E+02
     -5.808  0.3504E+02  0.3122E+02  0.4712E+02  0.4672E+02
     -5.753  0.4369E+02  0.4925E+02  0.4951E+02  0.4942E+02
     -5.699  0.3545E+02  0.3343E+02  0.5145E+02  0.5124E+02
     -5.644  0.2860E+02  0.3197E+02  0.5301E+02  0.5299E+02
     -5.589  0.2836E+02  0.2238E+02  0.5456E+02  0.5421E+02
     -5.535  0.5264E+02  0.5464E+02  0.5743E+02  0.5720E+02
     -5.480  0.3728E+02  0.3684E+02  0.5947E+02  0.5921E+02
     -5.425  0.3903E+02  0.3974E+02  0.6160E+02  0.6138E+02
     -5.371  0.5616E+02  0.5659E+02  0.6467E+02  0.6447E+02
     -5.316  0.4240E+02  0.4275E+02  0.6699E+02  0.6681E+02
     -5.261  0.3072E+02  0.2671E+02  0.6867E+02  0.6827E+02
     -5.207  0.6827E+02  0.6793E+02  0.7240E+02  0.7198E+02
     -5.152  0.5894E+02  0.6246E+02  0.7562E+02  0.7539E+02
     -5.098  0.3253E+02  0.3150E+02  0.7740E+02  0.7711E+02
     -5.043  0.5223E+02  0.5723E+02  0.8025E+02  0.8024E+02
     -4.988  0.2291E+02  0.2156E+02  0.8150E+02  0.8142E+02
     -4.934  0.2138E+02  0.1841E+02  0.8267E+02  0.8243E+02
     -4.879  0.4735E+02  0.5130E+02  0.8526E+02  0.8523E+02
     -4.824  0.3649E+02  0.2842E+02  0.8725E+02  0.8678E+02
     -4.770  0.3883E+02  0.4236E+02  0.8937E+02  0.8910E+02
     -4.715  0.4724E+02  0.4605E+02  0.9195E+02  0.9161E+02
     -4.660  0.3292E+02  0.3279E+02  0.9375E+02  0.9340E+02
     -4.606  0.2110E+02  0.2518E+02  0.9490E+02  0.9478E+02
     -4.551  0.3359E+02  0.3209E+02  0.9674E+02  0.9653E+02
     -4.497  0.3171E+02  0.3050E+02  0.9847E+02  0.9820E+02
     -4.442  0.3398E+02  0.3636E+02  0.1003E+03  0.1002E+03
     -4.387  0.5046E+02  0.4902E+02  0.1031E+03  0.1029E+03
     -4.333  0.2871E+02  0.2963E+02  0.1047E+03  0.1045E+03
     -4.278  0.4438E+02  0.4303E+02  0.1071E+03  0.1068E+03
     -4.223  0.1671E+02  0.1765E+02  0.1080E+03  0.1078E+03
     -4.169  0.1016E+02  0.1307E+02  0.1085E+03  0.1085E+03
     -4.114  0.1577E+02  0.1380E+02  0.1094E+03  0.1093E+03
     -4.059  0.9200E+01  0.9496E+01  0.1099E+03  0.1098E+03
     -4.005  0.2345E+02  0.2203E+02  0.1112E+03  0.1110E+03
     -3.950  0.2697E+02  0.2464E+02  0.1127E+03  0.1123E+03
     -3.895  0.2447E+02  0.2888E+02  0.1140E+03  0.1139E+03
     -3.841  0.5083E+01  0.6222E+01  0.1143E+03  0.1143E+03
     -3.786  0.1243E+02  0.9804E+01  0.1150E+03  0.1148E+03
     -3.732  0.2845E+02  0.2805E+02  0.1165E+03  0.1163E+03
     -3.677  0.1805E+02  0.2149E+02  0.1175E+03  0.1175E+03
     -3.622  0.1326E+02  0.1016E+02  0.1182E+03  0.1181E+03
     -3.568  0.2904E+02  0.3027E+02  0.1198E+03  0.1197E+03
     -3.513  0.1008E+02  0.1001E+02  0.1204E+03  0.1203E+03
     -3.458  0.2960E+02  0.2737E+02  0.1220E+03  0.1217E+03
     -3.404  0.9189E+01  0.8399E+01  0.1225E+03  0.1222E+03
     -3.349  0.1926E+02  0.2112E+02  0.1235E+03  0.1234E+03
     -3.294  0.1354E+02  0.1638E+02  0.1243E+03  0.1243E+03
     -3.240  0.2018E+02  0.1326E+02  0.1254E+03  0.1250E+03
     -3.185  0.3483E+02  0.3251E+02  0.1273E+03  0.1268E+03
     -3.131  0.2546E+02  0.3286E+02  0.1287E+03  0.1286E+03
     -3.076  0.6115E+01  0.8212E+01  0.1290E+03  0.1290E+03
     -3.021  0.1835E+02  0.1769E+02  0.1300E+03  0.1300E+03
     -2.967  0.1339E+02  0.1353E+02  0.1307E+03  0.1307E+03
     -2.912  0.3426E+02  0.2912E+02  0.1326E+03  0.1323E+03
     -2.857  0.3178E+02  0.2675E+02  0.1343E+03  0.1338E+03
     -2.803  0.2826E+02  0.3439E+02  0.1359E+03  0.1356E+03
     -2.748  0.3539E+02  0.3854E+02  0.1378E+03  0.1377E+03
     -2.693  0.4705E+02  0.4000E+02  0.1404E+03  0.1399E+03
     -2.639  0.4836E+02  0.4788E+02  0.1430E+03  0.1425E+03
     -2.584  0.6492E+02  0.7063E+02  0.1466E+03  0.1464E+03
     -2.530  0.6055E+02  0.5193E+02  0.1499E+03  0.1492E+03
     -2.475  0.5108E+02  0.5972E+02  0.1527E+03  0.1525E+03
     -2.420  0.5084E+02  0.4773E+02  0.1555E+03  0.1551E+03
     -2.366  0.7443E+02  0.6849E+02  0.1595E+03  0.1589E+03
     -2.311  0.5244E+02  0.5571E+02  0.1624E+03  0.1619E+03
     -2.256  0.4645E+02  0.4741E+02  0.1649E+03  0.1645E+03
     -2.202  0.4212E+02  0.4623E+02  0.1672E+03  0.1670E+03
     -2.147  0.4792E+02  0.4196E+02  0.1699E+03  0.1693E+03
     -2.092  0.4961E+02  0.4283E+02  0.1726E+03  0.1716E+03
     -2.038  0.5914E+02  0.6762E+02  0.1758E+03  0.1753E+03
     -1.983  0.4299E+02  0.4632E+02  0.1781E+03  0.1779E+03
     -1.928  0.2463E+02  0.2572E+02  0.1795E+03  0.1793E+03
     -1.874  0.1465E+02  0.1741E+02  0.1803E+03  0.1802E+03
     -1.819  0.1014E+02  0.9710E+01  0.1808E+03  0.1808E+03
     -1.765  0.2523E+02  0.2319E+02  0.1822E+03  0.1820E+03
     -1.710  0.6123E+02  0.5625E+02  0.1856E+03  0.1851E+03
     -1.655  0.5354E+02  0.5322E+02  0.1885E+03  0.1880E+03
     -1.601  0.6065E+02  0.6814E+02  0.1918E+03  0.1917E+03
     -1.546  0.1998E+02  0.1468E+02  0.1929E+03  0.1925E+03
     -1.491  0.1693E+02  0.2179E+02  0.1938E+03  0.1937E+03
     -1.437  0.2155E+02  0.2114E+02  0.1950E+03  0.1949E+03
     -1.382  0.3172E+02  0.3076E+02  0.1967E+03  0.1966E+03
     -1.327  0.1921E+02  0.2124E+02  0.1978E+03  0.1977E+03
     -1.273  0.2635E+02  0.2187E+02  0.1992E+03  0.1989E+03
     -1.218  0.5093E+01  0.1070E+02  0.1995E+03  0.1995E+03
     -1.164  0.9057E+01  0.7722E+01  0.2000E+03  0.1999E+03
     -1.109  0.1173E+02  0.7842E+01  0.2006E+03  0.2004E+03
     -1.054  0.3805E+02  0.3691E+02  0.2027E+03  0.2024E+03
     -1.000  0.2682E+02  0.2771E+02  0.2042E+03  0.2039E+03
     -0.945  0.1744E+02  0.2196E+02  0.2051E+03  0.2051E+03
     -0.890  0.1672E+02  0.1688E+02  0.2060E+03  0.2060E+03
     -0.836  0.1084E+02  0.9336E+01  0.2066E+03  0.2065E+03
     -0.781  0.1192E+02  0.1350E+02  0.2073E+03  0.2073E+03
     -0.726  0.2663E+02  0.2638E+02  0.2087E+03  0.2087E+03
     -0.672  0.2327E+02  0.1709E+02  0.2100E+03  0.2096E+03
     -0.617  0.3230E+02  0.3281E+02  0.2118E+03  0.2114E+03
     -0.563  0.3944E+02  0.4296E+02  0.2139E+03  0.2138E+03
     -0.508  0.5137E+02  0.5431E+02  0.2167E+03  0.2167E+03
     -0.453  0.7686E+01  0.5028E+01  0.2172E+03  0.2170E+03
     -0.399  0.3193E+02  0.2759E+02  0.2189E+03  0.2185E+03
     -0.344  0.1993E+02  0.2661E+02  0.2200E+03  0.2200E+03
     -0.289  0.6340E-01  0.5582E+00  0.2200E+03  0.2200E+03
     -0.235  0.1341E+02  0.1046E+02  0.2207E+03  0.2206E+03
     -0.180  0.3227E+02  0.3010E+02  0.2225E+03  0.2222E+03
     -0.125  0.9214E+01  0.1435E+02  0.2230E+03  0.2230E+03
     -0.071  0.1424E+02  0.1220E+02  0.2238E+03  0.2237E+03
     -0.016  0.2728E+02  0.2549E+02  0.2253E+03  0.2251E+03
      0.038  0.4280E+01  0.8064E+01  0.2255E+03  0.2255E+03
      0.093  0.4527E+01  0.4574E+01  0.2258E+03  0.2257E+03
      0.148  0.1814E+02  0.1124E+02  0.2267E+03  0.2264E+03
      0.202  0.4972E+02  0.4592E+02  0.2295E+03  0.2289E+03
      0.257  0.8456E+02  0.8352E+02  0.2341E+03  0.2334E+03
      0.312  0.3571E+02  0.4546E+02  0.2360E+03  0.2359E+03
      0.366  0.4309E+02  0.4149E+02  0.2384E+03  0.2382E+03
      0.421  0.3916E+02  0.3638E+02  0.2405E+03  0.2402E+03
      0.476  0.4224E+02  0.4584E+02  0.2428E+03  0.2427E+03
      0.530  0.5021E+02  0.4540E+02  0.2456E+03  0.2452E+03
      0.585  0.3469E+02  0.3569E+02  0.2475E+03  0.2471E+03
      0.640  0.7193E+02  0.7071E+02  0.2514E+03  0.2510E+03
      0.694  0.3583E+02  0.3736E+02  0.2534E+03  0.2530E+03
      0.749  0.1013E+03  0.9451E+02  0.2589E+03  0.2582E+03
      0.803  0.8677E+02  0.9025E+02  0.2636E+03  0.2631E+03
      0.858  0.6336E+02  0.6677E+02  0.2671E+03  0.2668E+03
      0.913  0.5435E+02  0.5469E+02  0.2701E+03  0.2697E+03
      0.967  0.4779E+02  0.4778E+02  0.2727E+03  0.2724E+03
      1.022  0.4698E+02  0.4882E+02  0.2752E+03  0.2750E+03
      1.077  0.9861E+02  0.8978E+02  0.2806E+03  0.2799E+03
      1.131  0.5505E+02  0.5997E+02  0.2836E+03  0.2832E+03
      1.186  0.7155E+02  0.6585E+02  0.2876E+03  0.2868E+03
      1.241  0.7418E+02  0.8363E+02  0.2916E+03  0.2914E+03
      1.295  0.6663E+02  0.6163E+02  0.2952E+03  0.2947E+03
      1.350  0.9614E+02  0.9591E+02  0.3005E+03  0.3000E+03
      1.404  0.6852E+02  0.6695E+02  0.3042E+03  0.3036E+03
      1.459  0.9077E+02  0.8658E+02  0.3092E+03  0.3084E+03
      1.514  0.4310E+02  0.5178E+02  0.3116E+03  0.3112E+03
      1.568  0.5462E+02  0.5250E+02  0.3145E+03  0.3141E+03
      1.623  0.7939E+02  0.7846E+02  0.3189E+03  0.3184E+03
      1.678  0.8649E+02  0.9147E+02  0.3236E+03  0.3234E+03
      1.732  0.7057E+02  0.6839E+02  0.3275E+03  0.3271E+03
      1.787  0.9674E+02  0.9302E+02  0.3327E+03  0.3322E+03
      1.842  0.1008E+03  0.9112E+02  0.3383E+03  0.3372E+03
      1.896  0.8507E+02  0.9341E+02  0.3429E+03  0.3423E+03
      1.951  0.7464E+02  0.7738E+02  0.3470E+03  0.3465E+03
      2.005  0.5099E+02  0.5336E+02  0.3498E+03  0.3494E+03
      2.060  0.6036E+02  0.5786E+02  0.3531E+03  0.3526E+03
      2.115  0.7097E+02  0.6807E+02  0.3569E+03  0.3563E+03
      2.169  0.5056E+02  0.5888E+02  0.3597E+03  0.3595E+03
      2.224  0.8043E+02  0.7741E+02  0.3641E+03  0.3637E+03
      2.279  0.6939E+02  0.6638E+02  0.3679E+03  0.3674E+03
      2.333  0.9330E+02  0.9105E+02  0.3730E+03  0.3723E+03
      2.388  0.5259E+02  0.5531E+02  0.3759E+03  0.3753E+03
      2.443  0.8053E+02  0.8087E+02  0.3803E+03  0.3798E+03
      2.497  0.7578E+02  0.7300E+02  0.3844E+03  0.3838E+03
      2.552  0.6673E+02  0.7022E+02  0.3880E+03  0.3876E+03
      2.607  0.6861E+02  0.6827E+02  0.3918E+03  0.3913E+03
      2.661  0.5718E+02  0.5455E+02  0.3949E+03  0.3943E+03
      2.716  0.7176E+02  0.7287E+02  0.3988E+03  0.3983E+03
      2.770  0.6402E+02  0.6748E+02  0.4023E+03  0.4020E+03
      2.825  0.4091E+02  0.4286E+02  0.4046E+03  0.4043E+03
      2.880  0.5681E+02  0.5166E+02  0.4077E+03  0.4071E+03
      2.934  0.8010E+02  0.8118E+02  0.4121E+03  0.4116E+03
      2.989  0.4987E+02  0.5341E+02  0.4148E+03  0.4145E+03
      3.044  0.5900E+02  0.5041E+02  0.4180E+03  0.4172E+03
      3.098  0.8692E+02  0.8639E+02  0.4228E+03  0.4220E+03
      3.153  0.4540E+02  0.4706E+02  0.4252E+03  0.4245E+03
      3.208  0.7346E+02  0.7390E+02  0.4292E+03  0.4286E+03
      3.262  0.9326E+02  0.9635E+02  0.4343E+03  0.4338E+03
      3.317  0.6078E+02  0.6281E+02  0.4377E+03  0.4373E+03
      3.371  0.6670E+02  0.6071E+02  0.4413E+03  0.4406E+03
      3.426  0.5842E+02  0.5935E+02  0.4445E+03  0.4438E+03
      3.481  0.5970E+02  0.6906E+02  0.4478E+03  0.4476E+03
      3.535  0.2827E+02  0.2181E+02  0.4493E+03  0.4488E+03
      3.590  0.5526E+02  0.5557E+02  0.4523E+03  0.4518E+03
      3.645  0.2449E+02  0.2751E+02  0.4537E+03  0.4533E+03
      3.699  0.3585E+02  0.2932E+02  0.4556E+03  0.4549E+03
      3.754  0.2993E+02  0.3809E+02  0.4573E+03  0.4570E+03
      3.809  0.3363E+02  0.2909E+02  0.4591E+03  0.4586E+03
      3.863  0.2303E+02  0.3041E+02  0.4604E+03  0.4603E+03
      3.918  0.3394E+02  0.2987E+02  0.4622E+03  0.4619E+03
      3.972  0.2824E+02  0.2843E+02  0.4638E+03  0.4635E+03
      4.027  0.3118E+02  0.3397E+02  0.4655E+03  0.4653E+03
      4.082  0.2829E+02  0.3061E+02  0.4670E+03  0.4670E+03
      4.136  0.1823E+02  0.1749E+02  0.4680E+03  0.4679E+03
      4.191  0.2858E+02  0.1493E+02  0.4696E+03  0.4688E+03
      4.246  0.1145E+02  0.2280E+02  0.4702E+03  0.4700E+03
      4.300  0.2746E+02  0.2205E+02  0.4717E+03  0.4712E+03
      4.355  0.1489E+02  0.2368E+02  0.4725E+03  0.4725E+03
      4.410  0.1394E+01  0.1834E+00  0.4726E+03  0.4725E+03
      4.464  0.2685E+02  0.9388E+01  0.4740E+03  0.4730E+03
      4.519  0.2684E+02  0.2627E+02  0.4755E+03  0.4745E+03
      4.573  0.1670E+02  0.2555E+02  0.4764E+03  0.4759E+03
      4.628  0.6002E+01  0.1095E+02  0.4767E+03  0.4765E+03
      4.683  0.1725E+02  0.5844E+01  0.4777E+03  0.4768E+03
      4.737  0.2739E+02  0.2142E+02  0.4792E+03  0.4779E+03
      4.792  0.4260E+02  0.3761E+02  0.4815E+03  0.4800E+03
      4.847  0.2721E+02  0.4119E+02  0.4830E+03  0.4822E+03
      4.901  0.2631E+02  0.2280E+02  0.4844E+03  0.4835E+03
      4.956  0.3275E+02  0.2698E+02  0.4862E+03  0.4850E+03
      5.011  0.2024E+02  0.2356E+02  0.4873E+03  0.4863E+03
      5.065  0.4699E+02  0.3643E+02  0.4899E+03  0.4882E+03
      5.120  0.2753E+02  0.4961E+02  0.4914E+03  0.4910E+03
      5.175  0.2682E+02  0.1487E+02  0.4929E+03  0.4918E+03
      5.229  0.3060E+02  0.3770E+02  0.4945E+03  0.4938E+03
      5.284  0.5716E+02  0.4479E+02  0.4977E+03  0.4963E+03
      5.338  0.3151E+02  0.5055E+02  0.4994E+03  0.4990E+03
      5.393  0.3850E+02  0.3280E+02  0.5015E+03  0.5008E+03
      5.448  0.3617E+02  0.3309E+02  0.5035E+03  0.5026E+03
      5.502  0.3013E+02  0.3642E+02  0.5051E+03  0.5046E+03
      5.557  0.5266E+02  0.5467E+02  0.5080E+03  0.5076E+03
      5.612  0.3266E+02  0.3373E+02  0.5098E+03  0.5095E+03
      5.666  0.7938E+02  0.6025E+02  0.5141E+03  0.5127E+03
      5.721  0.3467E+02  0.5501E+02  0.5160E+03  0.5158E+03
      5.776  0.5523E+02  0.4480E+02  0.5190E+03  0.5182E+03
      5.830  0.3914E+02  0.3929E+02  0.5212E+03  0.5203E+03
      5.885  0.5674E+02  0.5752E+02  0.5243E+03  0.5235E+03
      5.939  0.6230E+02  0.6605E+02  0.5277E+03  0.5271E+03
      5.994  0.5961E+02  0.5463E+02  0.5309E+03  0.5301E+03
      6.049  0.2572E+02  0.3540E+02  0.5323E+03  0.5320E+03
      6.103  0.5950E+02  0.4682E+02  0.5356E+03  0.5346E+03
      6.158  0.5460E+02  0.5411E+02  0.5386E+03  0.5375E+03
      6.213  0.6688E+02  0.7787E+02  0.5422E+03  0.5418E+03
      6.267  0.3711E+02  0.4224E+02  0.5443E+03  0.5441E+03
      6.322  0.1660E+02  0.1326E+02  0.5452E+03  0.5448E+03
      6.377  0.6704E+02  0.6276E+02  0.5488E+03  0.5483E+03
      6.431  0.6380E+02  0.6648E+02  0.5523E+03  0.5519E+03
      6.486  0.6221E+02  0.5718E+02  0.5557E+03  0.5550E+03
      6.540  0.7309E+02  0.8029E+02  0.5597E+03  0.5594E+03
      6.595  0.2264E+02  0.2465E+02  0.5609E+03  0.5607E+03
      6.650  0.4368E+02  0.3938E+02  0.5633E+03  0.5629E+03
      6.704  0.4258E+02  0.4593E+02  0.5656E+03  0.5654E+03
      6.759  0.4333E+02  0.4121E+02  0.5680E+03  0.5677E+03
      6.814  0.4864E+02  0.4707E+02  0.5707E+03  0.5702E+03
      6.868  0.5551E+02  0.5574E+02  0.5737E+03  0.5733E+03
      6.923  0.1323E+02  0.1764E+02  0.5744E+03  0.5742E+03
      6.978  0.2319E+01  0.4955E+01  0.5746E+03  0.5745E+03
      7.032  0.1982E+02  0.1902E+02  0.5756E+03  0.5755E+03
      7.087  0.6579E+01  0.8322E+01  0.5760E+03  0.5760E+03
      7.141  0.0000E+00  0.0000E+00  0.5760E+03  0.5760E+03
      7.196  0.0000E+00  0.0000E+00  0.5760E+03  0.5760E+03
      7.251  0.0000E+00  0.0000E+00  0.5760E+03  0.5760E+03
      7.305  0.0000E+00  0.0000E+00  0.5760E+03  0.5760E+03
      7.360  0.0000E+00  0.0000E+00  0.5760E+03  0.5760E+03
      7.415  0.0000E+00  0.0000E+00  0.5760E+03  0.5760E+03
      7.469  0.0000E+00  0.0000E+00  0.5760E+03  0.5760E+03
      7.524  0.0000E+00  0.0000E+00  0.5760E+03  0.5760E+03
      7.579  0.0000E+00  0.0000E+00  0.5760E+03  0.5760E+03
      7.633  0.0000E+00  0.0000E+00  0.5760E+03  0.5760E+03
      7.688  0.0000E+00  0.0000E+00  0.5760E+03  0.5760E+03
      7.743  0.0000E+00  0.0000E+00  0.5760E+03  0.5760E+03
      7.797  0.0000E+00  0.0000E+00  0.5760E+03  0.5760E+03
