       N       E                     dE             d eps       ncg     rms          rms(c)
DAV:   1     0.965434295326E+03    0.96543E+03   -0.74147E+04  4640   0.159E+03
DAV:   2    -0.398923099450E+02   -0.10053E+04   -0.97769E+03  5496   0.181E+02
DAV:   3    -0.154793048158E+03   -0.11490E+03   -0.11023E+03  5696   0.621E+01
DAV:   4    -0.160481229982E+03   -0.56882E+01   -0.54562E+01  5904   0.132E+01
DAV:   5    -0.160741822252E+03   -0.26059E+00   -0.25678E+00  6240   0.252E+00    0.131E+01
DAV:   6    -0.157697242958E+03    0.30446E+01   -0.98493E+00  6112   0.647E+00    0.625E+00
DAV:   7    -0.157379369041E+03    0.31787E+00   -0.37090E+00  5896   0.478E+00    0.275E+00
DAV:   8    -0.157269304085E+03    0.11006E+00   -0.76075E-01  5560   0.223E+00    0.831E-01
DAV:   9    -0.157264276643E+03    0.50274E-02   -0.16058E-01  5672   0.952E-01    0.409E-01
DAV:  10    -0.157264084307E+03    0.19234E-03   -0.38219E-02  5616   0.452E-01    0.214E-01
DAV:  11    -0.157264770981E+03   -0.68667E-03   -0.10703E-02  5336   0.227E-01    0.891E-02
DAV:  12    -0.157264836012E+03   -0.65031E-04   -0.17874E-03  5808   0.946E-02    0.460E-02
DAV:  13    -0.157264893039E+03   -0.57027E-04   -0.51624E-04  5336   0.476E-02    0.237E-02
DAV:  14    -0.157264931842E+03   -0.38803E-04   -0.12462E-04  5296   0.257E-02    0.133E-02
DAV:  15    -0.157264944107E+03   -0.12265E-04   -0.24179E-05  5488   0.129E-02    0.721E-03
DAV:  16    -0.157264948864E+03   -0.47565E-05   -0.69591E-06  5680   0.637E-03    0.335E-03
DAV:  17    -0.157264951034E+03   -0.21699E-05   -0.28289E-06  5144   0.394E-03    0.170E-03
DAV:  18    -0.157264951373E+03   -0.33950E-06   -0.79246E-07  4768   0.225E-03    0.968E-04
DAV:  19    -0.157264951349E+03    0.23826E-07   -0.15215E-07  3152   0.108E-03
   1 F= -.15726495E+03 E0= -.15726404E+03  d E =-.182336E-02  mag=     1.0000
