  96  96   0   0
  0.2882730E+02  0.1131560E-08  0.1789154E-08  0.1366942E-08  0.5000000E-15
  1.000000000000000E-004
  CAR 
 Si and Ge interface calculation         
      6.12387790    -10.48786709  301      3.34849509      1.00000000
    -10.488  0.0000E+00  0.0000E+00  0.0000E+00  0.0000E+00
    -10.432  0.0000E+00  0.0000E+00  0.0000E+00  0.0000E+00
    -10.377  0.0000E+00  0.0000E+00  0.0000E+00  0.0000E+00
    -10.322  0.0000E+00  0.0000E+00  0.0000E+00  0.0000E+00
    -10.266  0.0000E+00  0.0000E+00  0.0000E+00  0.0000E+00
    -10.211  0.0000E+00  0.0000E+00  0.0000E+00  0.0000E+00
    -10.156  0.0000E+00  0.0000E+00  0.0000E+00  0.0000E+00
    -10.100  0.0000E+00  0.0000E+00  0.0000E+00  0.0000E+00
    -10.045  0.0000E+00  0.0000E+00  0.0000E+00  0.0000E+00
     -9.990  0.0000E+00  0.0000E+00  0.0000E+00  0.0000E+00
     -9.934  0.0000E+00  0.0000E+00  0.0000E+00  0.0000E+00
     -9.879  0.0000E+00  0.0000E+00  0.0000E+00  0.0000E+00
     -9.823  0.0000E+00  0.0000E+00  0.0000E+00  0.0000E+00
     -9.768  0.1817E-05  0.7191E-07  0.1006E-06  0.3982E-08
     -9.713  0.3331E+02  0.2576E+02  0.1844E+01  0.1427E+01
     -9.657  0.3893E+02  0.4647E+02  0.4000E+01  0.4000E+01
     -9.602  0.0000E+00  0.0000E+00  0.4000E+01  0.4000E+01
     -9.547  0.0000E+00  0.0000E+00  0.4000E+01  0.4000E+01
     -9.491  0.0000E+00  0.0000E+00  0.4000E+01  0.4000E+01
     -9.436  0.0000E+00  0.0000E+00  0.4000E+01  0.4000E+01
     -9.380  0.0000E+00  0.0000E+00  0.4000E+01  0.4000E+01
     -9.325  0.0000E+00  0.0000E+00  0.4000E+01  0.4000E+01
     -9.270  0.0000E+00  0.0000E+00  0.4000E+01  0.4000E+01
     -9.214  0.0000E+00  0.0000E+00  0.4000E+01  0.4000E+01
     -9.159  0.0000E+00  0.0000E+00  0.4000E+01  0.4000E+01
     -9.104  0.0000E+00  0.0000E+00  0.4000E+01  0.4000E+01
     -9.048  0.0000E+00  0.0000E+00  0.4000E+01  0.4000E+01
     -8.993  0.0000E+00  0.0000E+00  0.4000E+01  0.4000E+01
     -8.937  0.3723E-01  0.1512E-02  0.4002E+01  0.4000E+01
     -8.882  0.6594E+02  0.5418E+02  0.7654E+01  0.7000E+01
     -8.827  0.6254E+01  0.1806E+02  0.8000E+01  0.8000E+01
     -8.771  0.0000E+00  0.0000E+00  0.8000E+01  0.8000E+01
     -8.716  0.0000E+00  0.0000E+00  0.8000E+01  0.8000E+01
     -8.661  0.5289E+00  0.3093E-01  0.8029E+01  0.8002E+01
     -8.605  0.3951E+02  0.3155E+02  0.1022E+02  0.9749E+01
     -8.550  0.1414E+02  0.2260E+02  0.1100E+02  0.1100E+02
     -8.494  0.1805E+02  0.1784E+02  0.1200E+02  0.1199E+02
     -8.439  0.9799E-02  0.2190E+00  0.1200E+02  0.1200E+02
     -8.384  0.0000E+00  0.0000E+00  0.1200E+02  0.1200E+02
     -8.328  0.0000E+00  0.0000E+00  0.1200E+02  0.1200E+02
     -8.273  0.0000E+00  0.0000E+00  0.1200E+02  0.1200E+02
     -8.218  0.2392E-05  0.3457E-08  0.1200E+02  0.1200E+02
     -8.162  0.1646E+02  0.1118E+02  0.1291E+02  0.1262E+02
     -8.107  0.1603E+01  0.6878E+01  0.1300E+02  0.1300E+02
     -8.051  0.3909E-02  0.1474E-04  0.1300E+02  0.1300E+02
     -7.996  0.1778E+02  0.1312E+02  0.1398E+02  0.1373E+02
     -7.941  0.3038E+02  0.3503E+02  0.1567E+02  0.1567E+02
     -7.885  0.2698E+02  0.1572E+02  0.1716E+02  0.1654E+02
     -7.830  0.3324E+01  0.1438E+02  0.1734E+02  0.1733E+02
     -7.775  0.2945E+02  0.2805E+02  0.1898E+02  0.1889E+02
     -7.719  0.8269E+00  0.2058E+01  0.1902E+02  0.1900E+02
     -7.664  0.1739E+02  0.1613E+02  0.1998E+02  0.1989E+02
     -7.608  0.1036E+02  0.5685E+01  0.2056E+02  0.2021E+02
     -7.553  0.7589E+01  0.1073E+02  0.2098E+02  0.2080E+02
     -7.498  0.3951E+00  0.3558E+01  0.2100E+02  0.2100E+02
     -7.442  0.1551E+01  0.8029E-01  0.2109E+02  0.2100E+02
     -7.387  0.3460E+02  0.3528E+02  0.2300E+02  0.2296E+02
     -7.332  0.1963E+02  0.1416E+02  0.2409E+02  0.2374E+02
     -7.276  0.2352E+02  0.2890E+02  0.2539E+02  0.2534E+02
     -7.221  0.3947E+02  0.3572E+02  0.2758E+02  0.2732E+02
     -7.166  0.1645E+01  0.6262E+01  0.2767E+02  0.2767E+02
     -7.110  0.2285E+02  0.1713E+02  0.2893E+02  0.2862E+02
     -7.055  0.1273E+02  0.1278E+02  0.2964E+02  0.2932E+02
     -6.999  0.3380E+02  0.2963E+02  0.3151E+02  0.3096E+02
     -6.944  0.2276E+02  0.2461E+02  0.3277E+02  0.3233E+02
     -6.889  0.1624E+02  0.2420E+02  0.3367E+02  0.3367E+02
     -6.833  0.2534E+02  0.1714E+02  0.3507E+02  0.3462E+02
     -6.778  0.3093E+02  0.3420E+02  0.3679E+02  0.3651E+02
     -6.723  0.1503E+02  0.1634E+02  0.3762E+02  0.3741E+02
     -6.667  0.1592E+02  0.1920E+02  0.3850E+02  0.3848E+02
     -6.612  0.8615E+01  0.6604E+01  0.3898E+02  0.3884E+02
     -6.556  0.3368E+02  0.3522E+02  0.4084E+02  0.4079E+02
     -6.501  0.8954E+01  0.9751E+01  0.4134E+02  0.4133E+02
     -6.446  0.2838E+02  0.2660E+02  0.4291E+02  0.4281E+02
     -6.390  0.3846E+02  0.2806E+02  0.4504E+02  0.4436E+02
     -6.335  0.3071E+02  0.3650E+02  0.4674E+02  0.4638E+02
     -6.280  0.3391E+02  0.3854E+02  0.4862E+02  0.4852E+02
     -6.224  0.1743E+02  0.1827E+02  0.4958E+02  0.4953E+02
     -6.169  0.1777E+02  0.1725E+02  0.5057E+02  0.5048E+02
     -6.113  0.2008E+02  0.1969E+02  0.5168E+02  0.5157E+02
     -6.058  0.2470E+02  0.2585E+02  0.5305E+02  0.5300E+02
     -6.003  0.2155E+02  0.1647E+02  0.5424E+02  0.5392E+02
     -5.947  0.4337E+02  0.4451E+02  0.5664E+02  0.5638E+02
     -5.892  0.4721E+02  0.4284E+02  0.5925E+02  0.5875E+02
     -5.837  0.1344E+02  0.1867E+02  0.6000E+02  0.5979E+02
     -5.781  0.2820E+02  0.2406E+02  0.6156E+02  0.6112E+02
     -5.726  0.1995E+02  0.2559E+02  0.6266E+02  0.6254E+02
     -5.670  0.2325E+02  0.1939E+02  0.6395E+02  0.6361E+02
     -5.615  0.4588E+02  0.4407E+02  0.6649E+02  0.6605E+02
     -5.560  0.3373E+02  0.3844E+02  0.6836E+02  0.6818E+02
     -5.504  0.2938E+02  0.2953E+02  0.6999E+02  0.6981E+02
     -5.449  0.4980E+02  0.4762E+02  0.7274E+02  0.7245E+02
     -5.394  0.2800E+02  0.2757E+02  0.7430E+02  0.7398E+02
     -5.338  0.4131E+02  0.4290E+02  0.7658E+02  0.7635E+02
     -5.283  0.3262E+02  0.2906E+02  0.7839E+02  0.7796E+02
     -5.227  0.1830E+02  0.2488E+02  0.7940E+02  0.7934E+02
     -5.172  0.3287E+02  0.3146E+02  0.8122E+02  0.8108E+02
     -5.117  0.3151E+02  0.3203E+02  0.8297E+02  0.8285E+02
     -5.061  0.3488E+02  0.3196E+02  0.8490E+02  0.8462E+02
     -5.006  0.4203E+02  0.4267E+02  0.8723E+02  0.8699E+02
     -4.951  0.1897E+02  0.2141E+02  0.8828E+02  0.8817E+02
     -4.895  0.2884E+02  0.2243E+02  0.8987E+02  0.8941E+02
     -4.840  0.3187E+02  0.3554E+02  0.9164E+02  0.9138E+02
     -4.785  0.3633E+02  0.3807E+02  0.9365E+02  0.9349E+02
     -4.729  0.1207E+02  0.1039E+02  0.9432E+02  0.9407E+02
     -4.674  0.4221E+02  0.4001E+02  0.9666E+02  0.9628E+02
     -4.618  0.2656E+02  0.2674E+02  0.9813E+02  0.9776E+02
     -4.563  0.2432E+02  0.2623E+02  0.9947E+02  0.9921E+02
     -4.508  0.3629E+02  0.3830E+02  0.1015E+03  0.1013E+03
     -4.452  0.6562E+01  0.8042E+01  0.1018E+03  0.1018E+03
     -4.397  0.2696E+02  0.2690E+02  0.1033E+03  0.1033E+03
     -4.342  0.2125E+02  0.1990E+02  0.1045E+03  0.1044E+03
     -4.286  0.2293E+02  0.1848E+02  0.1058E+03  0.1054E+03
     -4.231  0.3255E+02  0.3674E+02  0.1076E+03  0.1074E+03
     -4.175  0.3555E+02  0.2662E+02  0.1096E+03  0.1089E+03
     -4.120  0.1615E+02  0.2496E+02  0.1104E+03  0.1103E+03
     -4.065  0.3629E+02  0.2903E+02  0.1125E+03  0.1119E+03
     -4.009  0.2822E+02  0.3295E+02  0.1140E+03  0.1137E+03
     -3.954  0.2340E+02  0.2371E+02  0.1153E+03  0.1150E+03
     -3.899  0.2482E+02  0.2466E+02  0.1167E+03  0.1164E+03
     -3.843  0.2081E+02  0.2534E+02  0.1178E+03  0.1178E+03
     -3.788  0.2803E+02  0.2313E+02  0.1194E+03  0.1191E+03
     -3.732  0.7903E+01  0.1362E+02  0.1198E+03  0.1198E+03
     -3.677  0.1343E+02  0.8826E+01  0.1206E+03  0.1203E+03
     -3.622  0.3130E+02  0.3372E+02  0.1223E+03  0.1222E+03
     -3.566  0.2917E+02  0.2163E+02  0.1239E+03  0.1234E+03
     -3.511  0.2772E+02  0.3361E+02  0.1255E+03  0.1252E+03
     -3.456  0.2897E+02  0.3172E+02  0.1271E+03  0.1270E+03
     -3.400  0.2291E+02  0.2279E+02  0.1283E+03  0.1283E+03
     -3.345  0.3702E+02  0.3369E+02  0.1304E+03  0.1301E+03
     -3.289  0.1709E+02  0.1749E+02  0.1313E+03  0.1311E+03
     -3.234  0.4217E+02  0.4533E+02  0.1337E+03  0.1336E+03
     -3.179  0.2170E+02  0.1956E+02  0.1349E+03  0.1347E+03
     -3.123  0.2350E+02  0.2602E+02  0.1362E+03  0.1361E+03
     -3.068  0.2402E+02  0.1812E+02  0.1375E+03  0.1371E+03
     -3.013  0.3742E+02  0.3665E+02  0.1396E+03  0.1392E+03
     -2.957  0.3945E+02  0.4131E+02  0.1418E+03  0.1415E+03
     -2.902  0.4118E+02  0.3930E+02  0.1440E+03  0.1436E+03
     -2.846  0.2360E+02  0.3040E+02  0.1453E+03  0.1453E+03
     -2.791  0.2986E+02  0.2658E+02  0.1470E+03  0.1468E+03
     -2.736  0.1610E+02  0.1894E+02  0.1479E+03  0.1478E+03
     -2.680  0.4014E+02  0.3847E+02  0.1501E+03  0.1500E+03
     -2.625  0.2586E+02  0.2405E+02  0.1515E+03  0.1513E+03
     -2.570  0.1432E+02  0.1872E+02  0.1523E+03  0.1523E+03
     -2.514  0.3519E+02  0.2907E+02  0.1543E+03  0.1539E+03
     -2.459  0.2302E+02  0.2469E+02  0.1556E+03  0.1553E+03
     -2.403  0.3334E+02  0.3065E+02  0.1574E+03  0.1570E+03
     -2.348  0.3556E+02  0.3862E+02  0.1594E+03  0.1591E+03
     -2.293  0.1976E+02  0.1739E+02  0.1605E+03  0.1601E+03
     -2.237  0.3589E+02  0.3598E+02  0.1625E+03  0.1621E+03
     -2.182  0.1518E+02  0.1777E+02  0.1633E+03  0.1631E+03
     -2.127  0.2555E+02  0.2332E+02  0.1647E+03  0.1644E+03
     -2.071  0.6652E+01  0.9486E+01  0.1651E+03  0.1649E+03
     -2.016  0.4015E+02  0.4117E+02  0.1673E+03  0.1672E+03
     -1.961  0.2404E+02  0.2283E+02  0.1686E+03  0.1684E+03
     -1.905  0.4089E+02  0.3879E+02  0.1709E+03  0.1706E+03
     -1.850  0.1369E+02  0.1568E+02  0.1717E+03  0.1715E+03
     -1.794  0.1706E+02  0.1609E+02  0.1726E+03  0.1724E+03
     -1.739  0.3379E+02  0.3609E+02  0.1745E+03  0.1744E+03
     -1.684  0.8549E+01  0.8557E+01  0.1749E+03  0.1748E+03
     -1.628  0.2139E+02  0.2137E+02  0.1761E+03  0.1760E+03
     -1.573  0.1564E+02  0.1705E+02  0.1770E+03  0.1770E+03
     -1.518  0.1412E+02  0.9370E+01  0.1778E+03  0.1775E+03
     -1.462  0.2359E+02  0.2432E+02  0.1791E+03  0.1788E+03
     -1.407  0.1868E+02  0.2097E+02  0.1801E+03  0.1800E+03
     -1.351  0.2026E+02  0.1833E+02  0.1812E+03  0.1810E+03
     -1.296  0.2229E+02  0.2435E+02  0.1825E+03  0.1823E+03
     -1.241  0.2275E+02  0.2412E+02  0.1837E+03  0.1837E+03
     -1.185  0.1803E+02  0.1783E+02  0.1847E+03  0.1847E+03
     -1.130  0.4631E+02  0.4558E+02  0.1873E+03  0.1872E+03
     -1.075  0.2090E+02  0.2127E+02  0.1885E+03  0.1884E+03
     -1.019  0.8425E+01  0.5110E+01  0.1889E+03  0.1887E+03
     -0.964  0.2885E+02  0.2637E+02  0.1905E+03  0.1901E+03
     -0.908  0.1200E+02  0.1885E+02  0.1912E+03  0.1912E+03
     -0.853  0.1416E+02  0.1050E+02  0.1920E+03  0.1917E+03
     -0.798  0.3375E+02  0.3782E+02  0.1938E+03  0.1938E+03
     -0.742  0.2388E+02  0.2120E+02  0.1952E+03  0.1950E+03
     -0.687  0.2412E+02  0.2614E+02  0.1965E+03  0.1965E+03
     -0.632  0.1648E+02  0.1347E+02  0.1974E+03  0.1972E+03
     -0.576  0.2276E+02  0.2653E+02  0.1987E+03  0.1987E+03
     -0.521  0.6134E+01  0.5653E+01  0.1990E+03  0.1990E+03
     -0.465  0.3644E+02  0.3204E+02  0.2010E+03  0.2008E+03
     -0.410  0.4188E+02  0.3840E+02  0.2033E+03  0.2029E+03
     -0.355  0.2638E+02  0.3081E+02  0.2048E+03  0.2046E+03
     -0.299  0.2817E+02  0.2807E+02  0.2064E+03  0.2061E+03
     -0.244  0.5215E+02  0.5291E+02  0.2093E+03  0.2091E+03
     -0.189  0.3535E+02  0.3594E+02  0.2112E+03  0.2111E+03
     -0.133  0.4601E+02  0.4131E+02  0.2138E+03  0.2133E+03
     -0.078  0.3753E+02  0.4431E+02  0.2158E+03  0.2158E+03
     -0.022  0.3771E+02  0.3159E+02  0.2179E+03  0.2176E+03
      0.033  0.4680E+02  0.4692E+02  0.2205E+03  0.2201E+03
      0.088  0.4623E+02  0.4276E+02  0.2231E+03  0.2225E+03
      0.144  0.5121E+02  0.4811E+02  0.2259E+03  0.2252E+03
      0.199  0.3137E+02  0.4219E+02  0.2276E+03  0.2275E+03
      0.254  0.5033E+02  0.4389E+02  0.2304E+03  0.2299E+03
      0.310  0.4022E+02  0.4585E+02  0.2327E+03  0.2325E+03
      0.365  0.5230E+02  0.5051E+02  0.2356E+03  0.2353E+03
      0.421  0.6600E+02  0.6272E+02  0.2392E+03  0.2388E+03
      0.476  0.5724E+02  0.5311E+02  0.2424E+03  0.2417E+03
      0.531  0.4969E+02  0.5285E+02  0.2451E+03  0.2446E+03
      0.587  0.5388E+02  0.5610E+02  0.2481E+03  0.2477E+03
      0.642  0.4205E+02  0.3733E+02  0.2504E+03  0.2498E+03
      0.697  0.6419E+02  0.6635E+02  0.2540E+03  0.2535E+03
      0.753  0.5785E+02  0.5593E+02  0.2572E+03  0.2566E+03
      0.808  0.5192E+02  0.5641E+02  0.2601E+03  0.2597E+03
      0.863  0.6559E+02  0.6625E+02  0.2637E+03  0.2634E+03
      0.919  0.5564E+02  0.4805E+02  0.2668E+03  0.2660E+03
      0.974  0.6061E+02  0.6462E+02  0.2701E+03  0.2696E+03
      1.030  0.6928E+02  0.7265E+02  0.2740E+03  0.2736E+03
      1.085  0.5565E+02  0.4866E+02  0.2771E+03  0.2763E+03
      1.140  0.6115E+02  0.6552E+02  0.2805E+03  0.2799E+03
      1.196  0.6238E+02  0.6767E+02  0.2839E+03  0.2837E+03
      1.251  0.5344E+02  0.5192E+02  0.2869E+03  0.2866E+03
      1.306  0.6346E+02  0.6120E+02  0.2904E+03  0.2900E+03
      1.362  0.6656E+02  0.6238E+02  0.2941E+03  0.2934E+03
      1.417  0.4634E+02  0.4749E+02  0.2966E+03  0.2960E+03
      1.473  0.4155E+02  0.4611E+02  0.2989E+03  0.2986E+03
      1.528  0.6498E+02  0.6241E+02  0.3025E+03  0.3020E+03
      1.583  0.5305E+02  0.5926E+02  0.3055E+03  0.3053E+03
      1.639  0.4477E+02  0.4352E+02  0.3079E+03  0.3077E+03
      1.694  0.5390E+02  0.4519E+02  0.3109E+03  0.3102E+03
      1.749  0.3612E+02  0.4455E+02  0.3129E+03  0.3127E+03
      1.805  0.5651E+02  0.5114E+02  0.3161E+03  0.3155E+03
      1.860  0.6697E+02  0.6846E+02  0.3198E+03  0.3193E+03
      1.916  0.3414E+02  0.3953E+02  0.3217E+03  0.3215E+03
      1.971  0.3705E+02  0.3685E+02  0.3237E+03  0.3236E+03
      2.026  0.4767E+02  0.4503E+02  0.3263E+03  0.3261E+03
      2.082  0.4553E+02  0.4056E+02  0.3289E+03  0.3283E+03
      2.137  0.4439E+02  0.4000E+02  0.3313E+03  0.3305E+03
      2.192  0.4485E+02  0.5580E+02  0.3338E+03  0.3336E+03
      2.248  0.6358E+02  0.6024E+02  0.3373E+03  0.3369E+03
      2.303  0.3539E+02  0.3493E+02  0.3393E+03  0.3389E+03
      2.359  0.5943E+02  0.5406E+02  0.3426E+03  0.3419E+03
      2.414  0.2663E+02  0.3065E+02  0.3441E+03  0.3436E+03
      2.469  0.5956E+02  0.5641E+02  0.3474E+03  0.3467E+03
      2.525  0.4198E+02  0.5358E+02  0.3497E+03  0.3497E+03
      2.580  0.4205E+02  0.3442E+02  0.3520E+03  0.3516E+03
      2.635  0.5797E+02  0.5139E+02  0.3552E+03  0.3544E+03
      2.691  0.3678E+02  0.3759E+02  0.3573E+03  0.3565E+03
      2.746  0.5911E+02  0.5548E+02  0.3605E+03  0.3596E+03
      2.802  0.3632E+02  0.4240E+02  0.3625E+03  0.3619E+03
      2.857  0.4793E+02  0.4127E+02  0.3652E+03  0.3642E+03
      2.912  0.3838E+02  0.4305E+02  0.3673E+03  0.3666E+03
      2.968  0.4164E+02  0.4474E+02  0.3696E+03  0.3691E+03
      3.023  0.2667E+02  0.2903E+02  0.3711E+03  0.3707E+03
      3.078  0.1820E+02  0.2019E+02  0.3721E+03  0.3718E+03
      3.134  0.4826E+02  0.3263E+02  0.3748E+03  0.3736E+03
      3.189  0.5174E+02  0.6463E+02  0.3776E+03  0.3772E+03
      3.245  0.2626E+02  0.1845E+02  0.3791E+03  0.3782E+03
      3.300  0.4234E+02  0.4886E+02  0.3814E+03  0.3809E+03
      3.355  0.5168E+02  0.4577E+02  0.3843E+03  0.3834E+03
      3.411  0.3750E+02  0.4119E+02  0.3864E+03  0.3857E+03
      3.466  0.4088E+02  0.3263E+02  0.3886E+03  0.3875E+03
      3.521  0.4575E+02  0.5364E+02  0.3912E+03  0.3905E+03
      3.577  0.3420E+02  0.3184E+02  0.3931E+03  0.3922E+03
      3.632  0.4123E+02  0.4166E+02  0.3954E+03  0.3946E+03
      3.687  0.3409E+02  0.3932E+02  0.3972E+03  0.3967E+03
      3.743  0.5431E+02  0.4666E+02  0.4003E+03  0.3993E+03
      3.798  0.5085E+02  0.5783E+02  0.4031E+03  0.4025E+03
      3.854  0.4372E+02  0.3802E+02  0.4055E+03  0.4046E+03
      3.909  0.3799E+02  0.4549E+02  0.4076E+03  0.4071E+03
      3.964  0.3515E+02  0.3901E+02  0.4095E+03  0.4093E+03
      4.020  0.3538E+02  0.3638E+02  0.4115E+03  0.4113E+03
      4.075  0.1173E+02  0.9307E+01  0.4121E+03  0.4118E+03
      4.130  0.3725E+02  0.3292E+02  0.4142E+03  0.4137E+03
      4.186  0.3898E+02  0.3730E+02  0.4164E+03  0.4157E+03
      4.241  0.2886E+02  0.3412E+02  0.4180E+03  0.4176E+03
      4.297  0.4277E+02  0.4721E+02  0.4203E+03  0.4202E+03
      4.352  0.4571E+02  0.3700E+02  0.4229E+03  0.4223E+03
      4.407  0.2879E+02  0.3145E+02  0.4245E+03  0.4240E+03
      4.463  0.2017E+02  0.2420E+02  0.4256E+03  0.4254E+03
      4.518  0.3111E+02  0.3132E+02  0.4273E+03  0.4271E+03
      4.573  0.3521E+02  0.3755E+02  0.4292E+03  0.4292E+03
      4.629  0.2796E+02  0.2024E+02  0.4308E+03  0.4303E+03
      4.684  0.4905E+02  0.4911E+02  0.4335E+03  0.4330E+03
      4.740  0.3601E+02  0.3390E+02  0.4355E+03  0.4349E+03
      4.795  0.3147E+02  0.3620E+02  0.4372E+03  0.4369E+03
      4.850  0.5257E+02  0.5033E+02  0.4402E+03  0.4397E+03
      4.906  0.4639E+02  0.4795E+02  0.4427E+03  0.4423E+03
      4.961  0.4604E+02  0.4324E+02  0.4453E+03  0.4447E+03
      5.016  0.4139E+02  0.4415E+02  0.4476E+03  0.4472E+03
      5.072  0.5629E+02  0.5573E+02  0.4507E+03  0.4503E+03
      5.127  0.4902E+02  0.4928E+02  0.4534E+03  0.4530E+03
      5.183  0.3447E+02  0.3677E+02  0.4553E+03  0.4550E+03
      5.238  0.5217E+02  0.5400E+02  0.4582E+03  0.4580E+03
      5.293  0.5446E+02  0.5025E+02  0.4612E+03  0.4608E+03
      5.349  0.4104E+02  0.4603E+02  0.4635E+03  0.4633E+03
      5.404  0.9268E+01  0.1184E+02  0.4640E+03  0.4640E+03
      5.459  0.0000E+00  0.0000E+00  0.4640E+03  0.4640E+03
      5.515  0.0000E+00  0.0000E+00  0.4640E+03  0.4640E+03
      5.570  0.0000E+00  0.0000E+00  0.4640E+03  0.4640E+03
      5.626  0.0000E+00  0.0000E+00  0.4640E+03  0.4640E+03
      5.681  0.0000E+00  0.0000E+00  0.4640E+03  0.4640E+03
      5.736  0.0000E+00  0.0000E+00  0.4640E+03  0.4640E+03
      5.792  0.0000E+00  0.0000E+00  0.4640E+03  0.4640E+03
      5.847  0.0000E+00  0.0000E+00  0.4640E+03  0.4640E+03
      5.902  0.0000E+00  0.0000E+00  0.4640E+03  0.4640E+03
      5.958  0.0000E+00  0.0000E+00  0.4640E+03  0.4640E+03
      6.013  0.0000E+00  0.0000E+00  0.4640E+03  0.4640E+03
      6.069  0.0000E+00  0.0000E+00  0.4640E+03  0.4640E+03
      6.124  0.0000E+00  0.0000E+00  0.4640E+03  0.4640E+03
