 156 156   0   0
  0.2314675E+02  0.1600268E-08  0.1697340E-08  0.1329392E-08  0.5000000E-15
  1.000000000000000E-004
  CAR 
 Si and Ge interface calculation         
      6.95459519     -8.80318691  301      4.21887774      1.00000000
     -8.803  0.0000E+00  0.0000E+00  0.0000E+00  0.0000E+00
     -8.751  0.0000E+00  0.0000E+00  0.0000E+00  0.0000E+00
     -8.698  0.0000E+00  0.0000E+00  0.0000E+00  0.0000E+00
     -8.646  0.0000E+00  0.0000E+00  0.0000E+00  0.0000E+00
     -8.593  0.0000E+00  0.0000E+00  0.0000E+00  0.0000E+00
     -8.541  0.0000E+00  0.0000E+00  0.0000E+00  0.0000E+00
     -8.488  0.0000E+00  0.0000E+00  0.0000E+00  0.0000E+00
     -8.436  0.0000E+00  0.0000E+00  0.0000E+00  0.0000E+00
     -8.383  0.0000E+00  0.0000E+00  0.0000E+00  0.0000E+00
     -8.330  0.0000E+00  0.0000E+00  0.0000E+00  0.0000E+00
     -8.278  0.0000E+00  0.0000E+00  0.0000E+00  0.0000E+00
     -8.225  0.0000E+00  0.0000E+00  0.0000E+00  0.0000E+00
     -8.173  0.0000E+00  0.0000E+00  0.0000E+00  0.0000E+00
     -8.120  0.5662E-05  0.1662E-06  0.2974E-06  0.8732E-08
     -8.068  0.9420E+01  0.9059E+01  0.4948E+00  0.4758E+00
     -8.015  0.1936E+02  0.1946E+02  0.1512E+01  0.1498E+01
     -7.963  0.9296E+01  0.9557E+01  0.2000E+01  0.2000E+01
     -7.910  0.3334E+01  0.1421E+01  0.2175E+01  0.2075E+01
     -7.858  0.1344E+02  0.1282E+02  0.2881E+01  0.2748E+01
     -7.805  0.2381E+01  0.4806E+01  0.3006E+01  0.3001E+01
     -7.753  0.1893E+02  0.1903E+02  0.4000E+01  0.4000E+01
     -7.700  0.6300E+01  0.3819E+01  0.4331E+01  0.4201E+01
     -7.648  0.3163E+02  0.3364E+02  0.5992E+01  0.5968E+01
     -7.595  0.5653E+01  0.3102E+01  0.6289E+01  0.6131E+01
     -7.543  0.1362E+02  0.1656E+02  0.7005E+01  0.7000E+01
     -7.490  0.2527E+02  0.2059E+02  0.8332E+01  0.8082E+01
     -7.438  0.1844E+02  0.2186E+02  0.9301E+01  0.9230E+01
     -7.385  0.1945E+02  0.1984E+02  0.1032E+02  0.1027E+02
     -7.332  0.2765E+02  0.2552E+02  0.1177E+02  0.1161E+02
     -7.280  0.2806E+02  0.3030E+02  0.1325E+02  0.1320E+02
     -7.227  0.1682E+02  0.1654E+02  0.1413E+02  0.1407E+02
     -7.175  0.3452E+02  0.3296E+02  0.1595E+02  0.1580E+02
     -7.122  0.3617E+02  0.3568E+02  0.1785E+02  0.1768E+02
     -7.070  0.2995E+02  0.3202E+02  0.1942E+02  0.1936E+02
     -7.017  0.3058E+02  0.2941E+02  0.2102E+02  0.2090E+02
     -6.965  0.3834E+02  0.3840E+02  0.2304E+02  0.2292E+02
     -6.912  0.2968E+02  0.2800E+02  0.2460E+02  0.2439E+02
     -6.860  0.2707E+02  0.2941E+02  0.2602E+02  0.2594E+02
     -6.807  0.3231E+02  0.2925E+02  0.2772E+02  0.2747E+02
     -6.755  0.3708E+02  0.3990E+02  0.2966E+02  0.2957E+02
     -6.702  0.3765E+02  0.3639E+02  0.3164E+02  0.3148E+02
     -6.650  0.2906E+02  0.2945E+02  0.3317E+02  0.3303E+02
     -6.597  0.2656E+02  0.2778E+02  0.3456E+02  0.3449E+02
     -6.545  0.3030E+02  0.2971E+02  0.3615E+02  0.3605E+02
     -6.492  0.2337E+02  0.2310E+02  0.3738E+02  0.3726E+02
     -6.440  0.3555E+02  0.3626E+02  0.3925E+02  0.3916E+02
     -6.387  0.4573E+02  0.4388E+02  0.4165E+02  0.4147E+02
     -6.334  0.4123E+02  0.4153E+02  0.4382E+02  0.4365E+02
     -6.282  0.4673E+02  0.4545E+02  0.4627E+02  0.4604E+02
     -6.229  0.3576E+02  0.3783E+02  0.4815E+02  0.4803E+02
     -6.177  0.4152E+02  0.4016E+02  0.5033E+02  0.5013E+02
     -6.124  0.4580E+02  0.4703E+02  0.5274E+02  0.5261E+02
     -6.072  0.5076E+02  0.4877E+02  0.5540E+02  0.5517E+02
     -6.019  0.4055E+02  0.4446E+02  0.5753E+02  0.5750E+02
     -5.967  0.3688E+02  0.3394E+02  0.5947E+02  0.5928E+02
     -5.914  0.4823E+02  0.4724E+02  0.6200E+02  0.6177E+02
     -5.862  0.5038E+02  0.4765E+02  0.6465E+02  0.6427E+02
     -5.809  0.3925E+02  0.4202E+02  0.6671E+02  0.6648E+02
     -5.757  0.5436E+02  0.5436E+02  0.6957E+02  0.6933E+02
     -5.704  0.3927E+02  0.3983E+02  0.7163E+02  0.7142E+02
     -5.652  0.6364E+02  0.6036E+02  0.7497E+02  0.7459E+02
     -5.599  0.6033E+02  0.6345E+02  0.7814E+02  0.7793E+02
     -5.547  0.4305E+02  0.4288E+02  0.8040E+02  0.8018E+02
     -5.494  0.4707E+02  0.4786E+02  0.8287E+02  0.8269E+02
     -5.442  0.7895E+02  0.7718E+02  0.8702E+02  0.8675E+02
     -5.389  0.6353E+02  0.6204E+02  0.9036E+02  0.9001E+02
     -5.336  0.5335E+02  0.5786E+02  0.9316E+02  0.9305E+02
     -5.284  0.3855E+02  0.3346E+02  0.9518E+02  0.9480E+02
     -5.231  0.5094E+02  0.5567E+02  0.9786E+02  0.9773E+02
     -5.179  0.2905E+02  0.2845E+02  0.9939E+02  0.9922E+02
     -5.126  0.4667E+02  0.4733E+02  0.1018E+03  0.1017E+03
     -5.074  0.2629E+02  0.2549E+02  0.1032E+03  0.1030E+03
     -5.021  0.4101E+02  0.3935E+02  0.1054E+03  0.1051E+03
     -4.969  0.3361E+02  0.3359E+02  0.1071E+03  0.1069E+03
     -4.916  0.5725E+02  0.5814E+02  0.1101E+03  0.1099E+03
     -4.864  0.7414E+02  0.7278E+02  0.1140E+03  0.1138E+03
     -4.811  0.4510E+02  0.4611E+02  0.1164E+03  0.1162E+03
     -4.759  0.7060E+02  0.6837E+02  0.1201E+03  0.1198E+03
     -4.706  0.5183E+02  0.5439E+02  0.1228E+03  0.1226E+03
     -4.654  0.4508E+02  0.4615E+02  0.1252E+03  0.1250E+03
     -4.601  0.4722E+02  0.4682E+02  0.1277E+03  0.1275E+03
     -4.549  0.2991E+02  0.2741E+02  0.1293E+03  0.1289E+03
     -4.496  0.4040E+02  0.4349E+02  0.1314E+03  0.1312E+03
     -4.444  0.2864E+02  0.2674E+02  0.1329E+03  0.1326E+03
     -4.391  0.3624E+02  0.3734E+02  0.1348E+03  0.1346E+03
     -4.338  0.3765E+02  0.3773E+02  0.1368E+03  0.1366E+03
     -4.286  0.3036E+02  0.2935E+02  0.1384E+03  0.1381E+03
     -4.233  0.4137E+02  0.4284E+02  0.1405E+03  0.1404E+03
     -4.181  0.2542E+02  0.2649E+02  0.1419E+03  0.1418E+03
     -4.128  0.3797E+02  0.3655E+02  0.1439E+03  0.1437E+03
     -4.076  0.3132E+02  0.2974E+02  0.1455E+03  0.1452E+03
     -4.023  0.3463E+02  0.3449E+02  0.1473E+03  0.1471E+03
     -3.971  0.3708E+02  0.3727E+02  0.1493E+03  0.1490E+03
     -3.918  0.3747E+02  0.3992E+02  0.1512E+03  0.1511E+03
     -3.866  0.3756E+02  0.3546E+02  0.1532E+03  0.1530E+03
     -3.813  0.4185E+02  0.4115E+02  0.1554E+03  0.1551E+03
     -3.761  0.3306E+02  0.3320E+02  0.1572E+03  0.1569E+03
     -3.708  0.6743E+02  0.6518E+02  0.1607E+03  0.1603E+03
     -3.656  0.3284E+02  0.3636E+02  0.1624E+03  0.1622E+03
     -3.603  0.4527E+02  0.4504E+02  0.1648E+03  0.1646E+03
     -3.551  0.3820E+02  0.3725E+02  0.1668E+03  0.1665E+03
     -3.498  0.2750E+02  0.3235E+02  0.1682E+03  0.1682E+03
     -3.446  0.2881E+02  0.2086E+02  0.1698E+03  0.1693E+03
     -3.393  0.4915E+02  0.5165E+02  0.1723E+03  0.1720E+03
     -3.340  0.3615E+02  0.3436E+02  0.1742E+03  0.1738E+03
     -3.288  0.3512E+02  0.3932E+02  0.1761E+03  0.1759E+03
     -3.235  0.1552E+02  0.1274E+02  0.1769E+03  0.1766E+03
     -3.183  0.4609E+02  0.4469E+02  0.1793E+03  0.1789E+03
     -3.130  0.2939E+02  0.3488E+02  0.1809E+03  0.1808E+03
     -3.078  0.4726E+02  0.4376E+02  0.1833E+03  0.1831E+03
     -3.025  0.4016E+02  0.4146E+02  0.1855E+03  0.1852E+03
     -2.973  0.3071E+02  0.3105E+02  0.1871E+03  0.1869E+03
     -2.920  0.3599E+02  0.3356E+02  0.1890E+03  0.1886E+03
     -2.868  0.4264E+02  0.4325E+02  0.1912E+03  0.1909E+03
     -2.815  0.4220E+02  0.4404E+02  0.1934E+03  0.1932E+03
     -2.763  0.3820E+02  0.3656E+02  0.1954E+03  0.1951E+03
     -2.710  0.4426E+02  0.4344E+02  0.1977E+03  0.1974E+03
     -2.658  0.5703E+02  0.5856E+02  0.2007E+03  0.2005E+03
     -2.605  0.4999E+02  0.5110E+02  0.2034E+03  0.2032E+03
     -2.553  0.3936E+02  0.3655E+02  0.2054E+03  0.2051E+03
     -2.500  0.4145E+02  0.4500E+02  0.2076E+03  0.2075E+03
     -2.448  0.4675E+02  0.4251E+02  0.2101E+03  0.2097E+03
     -2.395  0.4916E+02  0.5380E+02  0.2127E+03  0.2125E+03
     -2.342  0.5739E+02  0.5418E+02  0.2157E+03  0.2154E+03
     -2.290  0.5431E+02  0.5420E+02  0.2185E+03  0.2182E+03
     -2.237  0.5379E+02  0.5281E+02  0.2213E+03  0.2210E+03
     -2.185  0.6276E+02  0.6265E+02  0.2246E+03  0.2243E+03
     -2.132  0.3797E+02  0.4032E+02  0.2266E+03  0.2264E+03
     -2.080  0.6475E+02  0.6568E+02  0.2300E+03  0.2298E+03
     -2.027  0.5267E+02  0.5138E+02  0.2328E+03  0.2325E+03
     -1.975  0.4214E+02  0.4379E+02  0.2350E+03  0.2348E+03
     -1.922  0.4882E+02  0.4665E+02  0.2376E+03  0.2373E+03
     -1.870  0.4847E+02  0.4696E+02  0.2401E+03  0.2398E+03
     -1.817  0.4617E+02  0.4946E+02  0.2426E+03  0.2424E+03
     -1.765  0.3421E+02  0.3296E+02  0.2444E+03  0.2441E+03
     -1.712  0.4226E+02  0.4271E+02  0.2466E+03  0.2463E+03
     -1.660  0.5292E+02  0.5448E+02  0.2493E+03  0.2492E+03
     -1.607  0.2047E+02  0.1992E+02  0.2504E+03  0.2502E+03
     -1.555  0.3424E+02  0.3497E+02  0.2522E+03  0.2521E+03
     -1.502  0.4264E+02  0.3803E+02  0.2545E+03  0.2541E+03
     -1.450  0.3743E+02  0.4258E+02  0.2564E+03  0.2563E+03
     -1.397  0.3757E+02  0.3648E+02  0.2584E+03  0.2582E+03
     -1.345  0.5176E+02  0.4738E+02  0.2611E+03  0.2607E+03
     -1.292  0.3891E+02  0.4321E+02  0.2632E+03  0.2630E+03
     -1.239  0.4544E+02  0.4355E+02  0.2656E+03  0.2653E+03
     -1.187  0.3446E+02  0.3163E+02  0.2674E+03  0.2669E+03
     -1.134  0.3505E+02  0.4051E+02  0.2692E+03  0.2691E+03
     -1.082  0.3339E+02  0.3041E+02  0.2710E+03  0.2707E+03
     -1.029  0.4060E+02  0.4246E+02  0.2731E+03  0.2729E+03
     -0.977  0.1308E+02  0.1640E+02  0.2738E+03  0.2738E+03
     -0.924  0.2653E+02  0.2380E+02  0.2752E+03  0.2750E+03
     -0.872  0.1954E+02  0.2065E+02  0.2762E+03  0.2761E+03
     -0.819  0.3569E+02  0.3473E+02  0.2781E+03  0.2779E+03
     -0.767  0.3694E+02  0.3904E+02  0.2800E+03  0.2800E+03
     -0.714  0.3521E+02  0.3207E+02  0.2819E+03  0.2816E+03
     -0.662  0.4056E+02  0.4325E+02  0.2840E+03  0.2839E+03
     -0.609  0.3840E+02  0.3373E+02  0.2860E+03  0.2857E+03
     -0.557  0.3026E+02  0.3356E+02  0.2876E+03  0.2875E+03
     -0.504  0.3022E+02  0.2866E+02  0.2892E+03  0.2890E+03
     -0.452  0.3719E+02  0.3709E+02  0.2911E+03  0.2909E+03
     -0.399  0.2238E+02  0.2569E+02  0.2923E+03  0.2923E+03
     -0.347  0.2947E+02  0.2896E+02  0.2939E+03  0.2938E+03
     -0.294  0.1003E+02  0.1016E+02  0.2944E+03  0.2943E+03
     -0.241  0.3670E+02  0.3462E+02  0.2963E+03  0.2961E+03
     -0.189  0.2833E+02  0.2661E+02  0.2978E+03  0.2975E+03
     -0.136  0.3240E+02  0.3750E+02  0.2995E+03  0.2995E+03
     -0.084  0.2894E+02  0.2449E+02  0.3010E+03  0.3008E+03
     -0.031  0.4004E+02  0.4255E+02  0.3031E+03  0.3030E+03
      0.021  0.3844E+02  0.3682E+02  0.3051E+03  0.3050E+03
      0.074  0.2230E+02  0.2127E+02  0.3063E+03  0.3061E+03
      0.126  0.7148E+02  0.6865E+02  0.3101E+03  0.3097E+03
      0.179  0.7971E+02  0.8080E+02  0.3143E+03  0.3139E+03
      0.231  0.5944E+02  0.6043E+02  0.3174E+03  0.3171E+03
      0.284  0.7073E+02  0.7074E+02  0.3211E+03  0.3208E+03
      0.336  0.7718E+02  0.7413E+02  0.3252E+03  0.3247E+03
      0.389  0.7471E+02  0.7228E+02  0.3291E+03  0.3285E+03
      0.441  0.9404E+02  0.9677E+02  0.3340E+03  0.3336E+03
      0.494  0.8832E+02  0.8872E+02  0.3387E+03  0.3382E+03
      0.546  0.8044E+02  0.7925E+02  0.3429E+03  0.3424E+03
      0.599  0.9994E+02  0.1007E+03  0.3481E+03  0.3477E+03
      0.651  0.7368E+02  0.7294E+02  0.3520E+03  0.3515E+03
      0.704  0.7904E+02  0.7994E+02  0.3562E+03  0.3557E+03
      0.757  0.1001E+03  0.1007E+03  0.3614E+03  0.3610E+03
      0.809  0.6181E+02  0.6202E+02  0.3647E+03  0.3643E+03
      0.862  0.8200E+02  0.8072E+02  0.3690E+03  0.3685E+03
      0.914  0.1062E+03  0.1052E+03  0.3745E+03  0.3740E+03
      0.967  0.7806E+02  0.8086E+02  0.3786E+03  0.3783E+03
      1.019  0.9864E+02  0.9659E+02  0.3838E+03  0.3834E+03
      1.072  0.1032E+03  0.1043E+03  0.3892E+03  0.3888E+03
      1.124  0.8300E+02  0.7961E+02  0.3936E+03  0.3930E+03
      1.177  0.9642E+02  0.9725E+02  0.3987E+03  0.3981E+03
      1.229  0.9439E+02  0.9395E+02  0.4036E+03  0.4031E+03
      1.282  0.8584E+02  0.9032E+02  0.4081E+03  0.4078E+03
      1.334  0.9523E+02  0.9206E+02  0.4131E+03  0.4126E+03
      1.387  0.1001E+03  0.1010E+03  0.4184E+03  0.4180E+03
      1.439  0.8743E+02  0.8538E+02  0.4230E+03  0.4224E+03
      1.492  0.9056E+02  0.9369E+02  0.4277E+03  0.4274E+03
      1.544  0.1066E+03  0.1026E+03  0.4333E+03  0.4327E+03
      1.597  0.9327E+02  0.9754E+02  0.4382E+03  0.4379E+03
      1.649  0.1064E+03  0.1044E+03  0.4438E+03  0.4433E+03
      1.702  0.8370E+02  0.8538E+02  0.4482E+03  0.4478E+03
      1.755  0.8150E+02  0.8116E+02  0.4525E+03  0.4521E+03
      1.807  0.9695E+02  0.9384E+02  0.4576E+03  0.4570E+03
      1.860  0.8143E+02  0.8405E+02  0.4619E+03  0.4614E+03
      1.912  0.7543E+02  0.7691E+02  0.4658E+03  0.4655E+03
      1.965  0.8706E+02  0.8227E+02  0.4704E+03  0.4698E+03
      2.017  0.7739E+02  0.8394E+02  0.4745E+03  0.4742E+03
      2.070  0.9872E+02  0.9447E+02  0.4797E+03  0.4792E+03
      2.122  0.9463E+02  0.9427E+02  0.4846E+03  0.4841E+03
      2.175  0.9977E+02  0.1022E+03  0.4899E+03  0.4895E+03
      2.227  0.8152E+02  0.8170E+02  0.4942E+03  0.4938E+03
      2.280  0.1016E+03  0.1002E+03  0.4995E+03  0.4990E+03
      2.332  0.8645E+02  0.8095E+02  0.5040E+03  0.5033E+03
      2.385  0.8866E+02  0.9507E+02  0.5087E+03  0.5083E+03
      2.437  0.9202E+02  0.8656E+02  0.5135E+03  0.5128E+03
      2.490  0.8841E+02  0.9083E+02  0.5182E+03  0.5176E+03
      2.542  0.8199E+02  0.8546E+02  0.5225E+03  0.5221E+03
      2.595  0.7457E+02  0.7293E+02  0.5264E+03  0.5259E+03
      2.647  0.7879E+02  0.7726E+02  0.5305E+03  0.5300E+03
      2.700  0.1041E+03  0.1064E+03  0.5360E+03  0.5356E+03
      2.753  0.7074E+02  0.6636E+02  0.5397E+03  0.5391E+03
      2.805  0.7501E+02  0.7502E+02  0.5436E+03  0.5430E+03
      2.858  0.7873E+02  0.7674E+02  0.5478E+03  0.5470E+03
      2.910  0.6477E+02  0.7329E+02  0.5512E+03  0.5509E+03
      2.963  0.7935E+02  0.7615E+02  0.5554E+03  0.5549E+03
      3.015  0.5130E+02  0.5120E+02  0.5580E+03  0.5576E+03
      3.068  0.6663E+02  0.6742E+02  0.5615E+03  0.5611E+03
      3.120  0.5491E+02  0.4861E+02  0.5644E+03  0.5637E+03
      3.173  0.6287E+02  0.7028E+02  0.5677E+03  0.5674E+03
      3.225  0.5499E+02  0.5308E+02  0.5706E+03  0.5701E+03
      3.278  0.6550E+02  0.6814E+02  0.5741E+03  0.5737E+03
      3.330  0.6581E+02  0.6216E+02  0.5775E+03  0.5770E+03
      3.383  0.6541E+02  0.6509E+02  0.5810E+03  0.5804E+03
      3.435  0.5740E+02  0.5924E+02  0.5840E+03  0.5835E+03
      3.488  0.6956E+02  0.6646E+02  0.5876E+03  0.5870E+03
      3.540  0.4693E+02  0.4545E+02  0.5901E+03  0.5894E+03
      3.593  0.5061E+02  0.5374E+02  0.5927E+03  0.5922E+03
      3.645  0.4214E+02  0.4464E+02  0.5950E+03  0.5946E+03
      3.698  0.4492E+02  0.4796E+02  0.5973E+03  0.5971E+03
      3.751  0.5392E+02  0.4904E+02  0.6002E+03  0.5997E+03
      3.803  0.4037E+02  0.4269E+02  0.6023E+03  0.6019E+03
      3.856  0.4996E+02  0.5079E+02  0.6049E+03  0.6046E+03
      3.908  0.4127E+02  0.3608E+02  0.6071E+03  0.6065E+03
      3.961  0.5808E+02  0.5616E+02  0.6101E+03  0.6094E+03
      4.013  0.5082E+02  0.4827E+02  0.6128E+03  0.6120E+03
      4.066  0.5547E+02  0.5462E+02  0.6157E+03  0.6148E+03
      4.118  0.4970E+02  0.5689E+02  0.6183E+03  0.6178E+03
      4.171  0.6111E+02  0.5262E+02  0.6215E+03  0.6206E+03
      4.223  0.5983E+02  0.5023E+02  0.6247E+03  0.6232E+03
      4.276  0.5267E+02  0.6652E+02  0.6274E+03  0.6267E+03
      4.328  0.5154E+02  0.4788E+02  0.6301E+03  0.6292E+03
      4.381  0.4949E+02  0.5217E+02  0.6327E+03  0.6320E+03
      4.433  0.5656E+02  0.6029E+02  0.6357E+03  0.6351E+03
      4.486  0.6213E+02  0.5841E+02  0.6390E+03  0.6382E+03
      4.538  0.6327E+02  0.6402E+02  0.6423E+03  0.6416E+03
      4.591  0.5437E+02  0.5787E+02  0.6451E+03  0.6446E+03
      4.643  0.6223E+02  0.5844E+02  0.6484E+03  0.6477E+03
      4.696  0.6567E+02  0.6518E+02  0.6519E+03  0.6511E+03
      4.749  0.5286E+02  0.5734E+02  0.6546E+03  0.6541E+03
      4.801  0.5702E+02  0.5488E+02  0.6576E+03  0.6570E+03
      4.854  0.5550E+02  0.5830E+02  0.6606E+03  0.6600E+03
      4.906  0.6910E+02  0.6409E+02  0.6642E+03  0.6634E+03
      4.959  0.4815E+02  0.5227E+02  0.6667E+03  0.6662E+03
      5.011  0.5517E+02  0.5285E+02  0.6696E+03  0.6689E+03
      5.064  0.6861E+02  0.6534E+02  0.6732E+03  0.6724E+03
      5.116  0.6548E+02  0.6948E+02  0.6767E+03  0.6760E+03
      5.169  0.5971E+02  0.5860E+02  0.6798E+03  0.6791E+03
      5.221  0.6940E+02  0.6614E+02  0.6834E+03  0.6826E+03
      5.274  0.6170E+02  0.6561E+02  0.6867E+03  0.6860E+03
      5.326  0.6107E+02  0.6330E+02  0.6899E+03  0.6893E+03
      5.379  0.6021E+02  0.5800E+02  0.6930E+03  0.6924E+03
      5.431  0.7979E+02  0.7220E+02  0.6972E+03  0.6962E+03
      5.484  0.7966E+02  0.8239E+02  0.7014E+03  0.7005E+03
      5.536  0.5504E+02  0.6205E+02  0.7043E+03  0.7038E+03
      5.589  0.7541E+02  0.7111E+02  0.7083E+03  0.7075E+03
      5.641  0.7485E+02  0.7775E+02  0.7122E+03  0.7116E+03
      5.694  0.7807E+02  0.7862E+02  0.7163E+03  0.7157E+03
      5.746  0.6028E+02  0.6017E+02  0.7195E+03  0.7189E+03
      5.799  0.5632E+02  0.5555E+02  0.7224E+03  0.7218E+03
      5.852  0.6026E+02  0.6545E+02  0.7256E+03  0.7252E+03
      5.904  0.8752E+02  0.7786E+02  0.7302E+03  0.7293E+03
      5.957  0.8756E+02  0.9048E+02  0.7348E+03  0.7341E+03
      6.009  0.6589E+02  0.7411E+02  0.7383E+03  0.7380E+03
      6.062  0.7002E+02  0.6739E+02  0.7419E+03  0.7415E+03
      6.114  0.5155E+02  0.4826E+02  0.7446E+03  0.7440E+03
      6.167  0.6653E+02  0.7062E+02  0.7481E+03  0.7477E+03
      6.219  0.5502E+02  0.6189E+02  0.7510E+03  0.7510E+03
      6.272  0.1861E+02  0.1907E+02  0.7520E+03  0.7520E+03
      6.324  0.0000E+00  0.0000E+00  0.7520E+03  0.7520E+03
      6.377  0.0000E+00  0.0000E+00  0.7520E+03  0.7520E+03
      6.429  0.0000E+00  0.0000E+00  0.7520E+03  0.7520E+03
      6.482  0.0000E+00  0.0000E+00  0.7520E+03  0.7520E+03
      6.534  0.0000E+00  0.0000E+00  0.7520E+03  0.7520E+03
      6.587  0.0000E+00  0.0000E+00  0.7520E+03  0.7520E+03
      6.639  0.0000E+00  0.0000E+00  0.7520E+03  0.7520E+03
      6.692  0.0000E+00  0.0000E+00  0.7520E+03  0.7520E+03
      6.744  0.0000E+00  0.0000E+00  0.7520E+03  0.7520E+03
      6.797  0.0000E+00  0.0000E+00  0.7520E+03  0.7520E+03
      6.850  0.0000E+00  0.0000E+00  0.7520E+03  0.7520E+03
      6.902  0.0000E+00  0.0000E+00  0.7520E+03  0.7520E+03
      6.955  0.0000E+00  0.0000E+00  0.7520E+03  0.7520E+03
