Si and Ge interface calculation         
           1
    16.002676    0.000000    0.000000
     0.000000   16.973402    0.000000
     0.000000    0.000000   13.293920
   Ge   Si
    48   108
Direct configuration=     1
   0.91323775  0.91002428  0.00000002
   0.53823775  0.52113539  0.05015674
   0.16323781  0.13224649  0.10031344
   0.78823781  0.74335742  0.15047023
   0.41323781  0.35446858  0.20062693
   0.03823769  0.96557951  0.25078365
   0.41323769  0.91002428  0.00000002
   0.03823772  0.52113533  0.05015674
   0.66323775  0.13224643  0.10031344
   0.28823769  0.74335742  0.15047018
   0.91323781  0.35446846  0.20062693
   0.53823781  0.96557975  0.25078374
   0.03823773  0.66002423  0.00000002
   0.66323775  0.27113530  0.05015672
   0.28823781  0.88224638  0.10031345
   0.91323781  0.49335742  0.15047018
   0.53823769  0.10446840  0.20062689
   0.16323769  0.71557963  0.25078365
   0.53823769  0.66002423  0.00000002
   0.16323771  0.27113530  0.05015672
   0.78823775  0.88224638  0.10031345
   0.41323769  0.49335748  0.15047018
   0.03823775  0.10446846  0.20062694
   0.66323769  0.71557963  0.25078368
   0.28823775  0.66002423  0.00000002
   0.91323775  0.27113530  0.05015672
   0.53823781  0.88224638  0.10031345
   0.16323781  0.49335742  0.15047018
   0.78823781  0.10446846  0.20062689
   0.41323781  0.71557951  0.25078365
   0.78823769  0.66002417  0.00000000
   0.41323772  0.27113530  0.05015672
   0.03823778  0.88224638  0.10031345
   0.66323775  0.49335742  0.15047017
   0.28823769  0.10446846  0.20062689
   0.91323781  0.71557963  0.25078368
   0.16323772  0.91002428  0.00000002
   0.78823769  0.52113533  0.05015674
   0.41323781  0.13224649  0.10031347
   0.03823775  0.74335742  0.15047023
   0.66323781  0.35446858  0.20062688
   0.28823769  0.96557951  0.25078365
   0.66323769  0.91002428  0.00000003
   0.28823775  0.52113533  0.05015672
   0.91323775  0.13224649  0.10031347
   0.53823781  0.74335742  0.15047023
   0.16323769  0.35446846  0.20062688
   0.78823781  0.96557975  0.25078365
   0.03773585  0.72187829  0.37005895
   0.03773585  0.55521166  0.57432526
   0.03773585  0.38854492  0.77859163
   0.37106919  0.72187829  0.37005895
   0.37106919  0.55521166  0.57432526
   0.37106919  0.38854492  0.77859163
   0.70440257  0.72187829  0.37005895
   0.70440257  0.55521166  0.57432526
   0.70440257  0.38854492  0.77859163
   0.03773585  0.05521166  0.37005895
   0.03773585  0.88854498  0.57432526
   0.03773585  0.72187829  0.77859163
   0.37106919  0.05521166  0.37005895
   0.37106919  0.88854498  0.57432526
   0.37106919  0.72187829  0.77859163
   0.70440257  0.05521166  0.37005895
   0.70440257  0.88854498  0.57432526
   0.70440257  0.72187829  0.77859163
   0.03773585  0.38854504  0.37005895
   0.03773585  0.22187829  0.57432526
   0.03773585  0.05521166  0.77859163
   0.37106919  0.38854504  0.37005895
   0.37106919  0.22187829  0.57432526
   0.37106919  0.05521166  0.77859163
   0.70440257  0.38854504  0.37005895
   0.70440257  0.22187829  0.57432526
   0.70440257  0.05521166  0.77859163
   0.12106919  0.80521166  0.47219214
   0.12106919  0.63854504  0.67645836
   0.12106919  0.47187829  0.88072479
   0.45440254  0.80521166  0.47219214
   0.45440254  0.63854504  0.67645836
   0.45440254  0.47187829  0.88072479
   0.78773582  0.80521166  0.47219214
   0.78773582  0.63854504  0.67645836
   0.78773582  0.47187829  0.88072479
   0.12106919  0.13854504  0.47219214
   0.12106919  0.97187829  0.67645836
   0.12106919  0.80521160  0.88072479
   0.45440254  0.13854504  0.47219214
   0.45440254  0.97187829  0.67645836
   0.45440254  0.80521160  0.88072479
   0.78773582  0.13854504  0.47219214
   0.78773582  0.97187829  0.67645836
   0.78773582  0.80521160  0.88072479
   0.12106919  0.47187829  0.47219214
   0.12106919  0.30521166  0.67645836
   0.12106919  0.13854504  0.88072479
   0.45440254  0.47187829  0.47219214
   0.45440254  0.30521166  0.67645836
   0.45440254  0.13854504  0.88072479
   0.78773582  0.47187829  0.47219214
   0.78773582  0.30521166  0.67645836
   0.78773582  0.13854504  0.88072479
   0.20440252  0.88854504  0.37005895
   0.20440252  0.72187829  0.57432526
   0.20440252  0.55521154  0.77859163
   0.53773582  0.88854504  0.37005895
   0.53773582  0.72187829  0.57432526
   0.53773582  0.55521154  0.77859163
   0.87106919  0.88854504  0.37005895
   0.87106919  0.72187829  0.57432526
   0.87106919  0.55521154  0.77859163
   0.20440252  0.22187829  0.37005895
   0.20440252  0.05521166  0.57432526
   0.20440252  0.88854492  0.77859163
   0.53773582  0.22187829  0.37005895
   0.53773582  0.05521166  0.57432526
   0.53773582  0.88854492  0.77859163
   0.87106919  0.22187829  0.37005895
   0.87106919  0.05521166  0.57432526
   0.87106919  0.88854492  0.77859163
   0.20440252  0.55521166  0.37005895
   0.20440252  0.38854504  0.57432526
   0.20440252  0.22187829  0.77859163
   0.53773582  0.55521166  0.37005895
   0.53773582  0.38854504  0.57432526
   0.53773582  0.22187829  0.77859163
   0.87106919  0.55521166  0.37005895
   0.87106919  0.38854504  0.57432526
   0.87106919  0.22187829  0.77859163
   0.28773585  0.97187835  0.47219214
   0.28773585  0.80521166  0.67645836
   0.28773585  0.63854504  0.88072479
   0.62106919  0.97187835  0.47219214
   0.62106919  0.80521166  0.67645836
   0.62106919  0.63854504  0.88072479
   0.95440257  0.97187835  0.47219214
   0.95440257  0.80521166  0.67645836
   0.95440257  0.63854504  0.88072479
   0.28773585  0.30521178  0.47219214
   0.28773585  0.13854504  0.67645836
   0.28773585  0.97187835  0.88072479
   0.62106919  0.30521178  0.47219214
   0.62106919  0.13854504  0.67645836
   0.62106919  0.97187835  0.88072479
   0.95440257  0.30521178  0.47219214
   0.95440257  0.13854504  0.67645836
   0.95440257  0.97187835  0.88072479
   0.28773585  0.63854504  0.47219214
   0.28773585  0.47187829  0.67645836
   0.28773585  0.30521166  0.88072479
   0.62106919  0.63854504  0.47219214
   0.62106919  0.47187829  0.67645836
   0.62106919  0.30521166  0.88072479
   0.95440257  0.63854504  0.47219214
   0.95440257  0.47187829  0.67645836
   0.95440257  0.30521166  0.88072479
