 120 120   0   0
  0.2091485E+02  0.9177115E-09  0.1297840E-08  0.2107214E-08  0.5000000E-15
  1.000000000000000E-004
  CAR 
 Si and Ge interface calculation         
      9.58229014     -9.86087859  301      6.83982412      1.00000000
     -9.861  0.0000E+00  0.0000E+00  0.0000E+00  0.0000E+00
     -9.796  0.0000E+00  0.0000E+00  0.0000E+00  0.0000E+00
     -9.731  0.0000E+00  0.0000E+00  0.0000E+00  0.0000E+00
     -9.666  0.0000E+00  0.0000E+00  0.0000E+00  0.0000E+00
     -9.602  0.0000E+00  0.0000E+00  0.0000E+00  0.0000E+00
     -9.537  0.0000E+00  0.0000E+00  0.0000E+00  0.0000E+00
     -9.472  0.0000E+00  0.0000E+00  0.0000E+00  0.0000E+00
     -9.407  0.0000E+00  0.0000E+00  0.0000E+00  0.0000E+00
     -9.342  0.0000E+00  0.0000E+00  0.0000E+00  0.0000E+00
     -9.278  0.0000E+00  0.0000E+00  0.0000E+00  0.0000E+00
     -9.213  0.0000E+00  0.0000E+00  0.0000E+00  0.0000E+00
     -9.148  0.0000E+00  0.0000E+00  0.0000E+00  0.0000E+00
     -9.083  0.0000E+00  0.0000E+00  0.0000E+00  0.0000E+00
     -9.018  0.1403E-07  0.1085E-13  0.9092E-09  0.7031E-15
     -8.954  0.5143E+01  0.4660E+01  0.3333E+00  0.3020E+00
     -8.889  0.2488E+02  0.2110E+02  0.1946E+01  0.1669E+01
     -8.824  0.3093E+02  0.2846E+02  0.3951E+01  0.3515E+01
     -8.759  0.7551E+00  0.7489E+01  0.4000E+01  0.4000E+01
     -8.694  0.0000E+00  0.0000E+00  0.4000E+01  0.4000E+01
     -8.629  0.4048E+00  0.4992E-01  0.4026E+01  0.4003E+01
     -8.565  0.4738E+01  0.5093E+01  0.4333E+01  0.4333E+01
     -8.500  0.2055E+02  0.2027E+02  0.5665E+01  0.5647E+01
     -8.435  0.4497E+01  0.1372E+01  0.5958E+01  0.5737E+01
     -8.370  0.2122E+02  0.2463E+02  0.7333E+01  0.7333E+01
     -8.305  0.9806E+01  0.7934E+01  0.7969E+01  0.7848E+01
     -8.241  0.4808E+00  0.2352E+01  0.8000E+01  0.8000E+01
     -8.176  0.0000E+00  0.0000E+00  0.8000E+01  0.8000E+01
     -8.111  0.0000E+00  0.0000E+00  0.8000E+01  0.8000E+01
     -8.046  0.0000E+00  0.0000E+00  0.8000E+01  0.8000E+01
     -7.981  0.0000E+00  0.0000E+00  0.8000E+01  0.8000E+01
     -7.917  0.0000E+00  0.0000E+00  0.8000E+01  0.8000E+01
     -7.852  0.1113E-05  0.8963E-08  0.8000E+01  0.8000E+01
     -7.787  0.1029E+02  0.1028E+02  0.8667E+01  0.8666E+01
     -7.722  0.1784E+02  0.1461E+02  0.9823E+01  0.9613E+01
     -7.657  0.5933E+01  0.6151E+01  0.1021E+02  0.1001E+02
     -7.593  0.1737E+02  0.2039E+02  0.1133E+02  0.1133E+02
     -7.528  0.1810E+02  0.1215E+02  0.1251E+02  0.1212E+02
     -7.463  0.2470E+01  0.8416E+01  0.1267E+02  0.1267E+02
     -7.398  0.5917E+01  0.1348E+01  0.1305E+02  0.1275E+02
     -7.333  0.1960E+02  0.2310E+02  0.1432E+02  0.1425E+02
     -7.268  0.5345E+01  0.6408E+01  0.1467E+02  0.1467E+02
     -7.204  0.5038E+01  0.3695E+01  0.1499E+02  0.1491E+02
     -7.139  0.9971E+01  0.7588E+01  0.1564E+02  0.1540E+02
     -7.074  0.5395E+01  0.8432E+01  0.1599E+02  0.1594E+02
     -7.009  0.5711E+01  0.6034E+01  0.1636E+02  0.1634E+02
     -6.944  0.2017E+02  0.2054E+02  0.1767E+02  0.1767E+02
     -6.880  0.1224E+02  0.9368E+01  0.1846E+02  0.1827E+02
     -6.815  0.1346E+02  0.1635E+02  0.1933E+02  0.1933E+02
     -6.750  0.2044E+02  0.1773E+02  0.2066E+02  0.2048E+02
     -6.685  0.9307E+01  0.9432E+01  0.2127E+02  0.2109E+02
     -6.620  0.1104E+01  0.3695E+01  0.2134E+02  0.2133E+02
     -6.556  0.1016E+02  0.1029E+02  0.2200E+02  0.2200E+02
     -6.491  0.2055E+02  0.1981E+02  0.2333E+02  0.2328E+02
     -6.426  0.1729E+01  0.8389E+00  0.2345E+02  0.2334E+02
     -6.361  0.1313E+02  0.1207E+02  0.2430E+02  0.2412E+02
     -6.296  0.5685E+00  0.3290E+01  0.2433E+02  0.2433E+02
     -6.231  0.0000E+00  0.0000E+00  0.2433E+02  0.2433E+02
     -6.167  0.1572E-02  0.1182E-05  0.2433E+02  0.2433E+02
     -6.102  0.2224E+02  0.1895E+02  0.2577E+02  0.2556E+02
     -6.037  0.3341E+01  0.6762E+01  0.2600E+02  0.2600E+02
     -5.972  0.1012E+02  0.7655E+01  0.2666E+02  0.2650E+02
     -5.907  0.9391E+01  0.9431E+01  0.2726E+02  0.2711E+02
     -5.843  0.1167E+02  0.1378E+02  0.2802E+02  0.2800E+02
     -5.778  0.4823E+01  0.5138E+01  0.2833E+02  0.2833E+02
     -5.713  0.1270E+02  0.5816E+01  0.2916E+02  0.2871E+02
     -5.648  0.1610E+02  0.1988E+02  0.3020E+02  0.3000E+02
     -5.583  0.7204E+01  0.1027E+02  0.3067E+02  0.3066E+02
     -5.519  0.4801E+01  0.1629E+01  0.3098E+02  0.3077E+02
     -5.454  0.3012E+02  0.2886E+02  0.3293E+02  0.3264E+02
     -5.389  0.1079E+01  0.5515E+01  0.3300E+02  0.3300E+02
     -5.324  0.2009E+02  0.1752E+02  0.3430E+02  0.3414E+02
     -5.259  0.5607E+01  0.7451E+01  0.3467E+02  0.3462E+02
     -5.195  0.1996E+02  0.1723E+02  0.3596E+02  0.3573E+02
     -5.130  0.3166E+02  0.2620E+02  0.3801E+02  0.3744E+02
     -5.065  0.1521E+02  0.2318E+02  0.3900E+02  0.3894E+02
     -5.000  0.7282E+01  0.2472E+01  0.3947E+02  0.3910E+02
     -4.935  0.1842E+02  0.2358E+02  0.4067E+02  0.4063E+02
     -4.870  0.1683E+02  0.1211E+02  0.4176E+02  0.4141E+02
     -4.806  0.1400E+02  0.1935E+02  0.4267E+02  0.4267E+02
     -4.741  0.3147E-08  0.2843E-11  0.4267E+02  0.4267E+02
     -4.676  0.4663E+02  0.4055E+02  0.4569E+02  0.4529E+02
     -4.611  0.4892E+01  0.1089E+02  0.4601E+02  0.4600E+02
     -4.546  0.5990E+01  0.5305E+01  0.4640E+02  0.4634E+02
     -4.482  0.1968E+02  0.1722E+02  0.4768E+02  0.4746E+02
     -4.417  0.1633E+02  0.1161E+02  0.4873E+02  0.4821E+02
     -4.352  0.1954E+02  0.2756E+02  0.5000E+02  0.5000E+02
     -4.287  0.5599E+01  0.5197E+01  0.5036E+02  0.5034E+02
     -4.222  0.5571E+02  0.5260E+02  0.5397E+02  0.5375E+02
     -4.158  0.1567E+02  0.1837E+02  0.5499E+02  0.5494E+02
     -4.093  0.1028E+02  0.1097E+02  0.5567E+02  0.5565E+02
     -4.028  0.2864E+02  0.2493E+02  0.5752E+02  0.5726E+02
     -3.963  0.1682E+02  0.1545E+02  0.5862E+02  0.5827E+02
     -3.898  0.1645E+02  0.2161E+02  0.5969E+02  0.5967E+02
     -3.833  0.3399E+02  0.3058E+02  0.6189E+02  0.6165E+02
     -3.769  0.2811E+02  0.3073E+02  0.6371E+02  0.6364E+02
     -3.704  0.1472E+02  0.1558E+02  0.6467E+02  0.6466E+02
     -3.639  0.1033E+02  0.1010E+02  0.6534E+02  0.6531E+02
     -3.574  0.2565E+02  0.2576E+02  0.6700E+02  0.6698E+02
     -3.509  0.6833E+00  0.3000E+00  0.6704E+02  0.6700E+02
     -3.445  0.3044E+02  0.3080E+02  0.6902E+02  0.6900E+02
     -3.380  0.4085E+02  0.3249E+02  0.7166E+02  0.7111E+02
     -3.315  0.2282E+02  0.2954E+02  0.7315E+02  0.7302E+02
     -3.250  0.2861E+02  0.3054E+02  0.7500E+02  0.7500E+02
     -3.185  0.2974E+02  0.2612E+02  0.7693E+02  0.7669E+02
     -3.121  0.3009E+02  0.2779E+02  0.7888E+02  0.7849E+02
     -3.056  0.3506E+02  0.3291E+02  0.8116E+02  0.8063E+02
     -2.991  0.3581E+02  0.3668E+02  0.8348E+02  0.8300E+02
     -2.926  0.3795E+02  0.3800E+02  0.8594E+02  0.8547E+02
     -2.861  0.2440E+02  0.2585E+02  0.8752E+02  0.8714E+02
     -2.797  0.4986E+02  0.4720E+02  0.9075E+02  0.9020E+02
     -2.732  0.3085E+02  0.3783E+02  0.9275E+02  0.9265E+02
     -2.667  0.3463E+02  0.3603E+02  0.9500E+02  0.9500E+02
     -2.602  0.2941E+02  0.2639E+02  0.9691E+02  0.9671E+02
     -2.537  0.4653E+02  0.3967E+02  0.9992E+02  0.9928E+02
     -2.472  0.2597E+02  0.3075E+02  0.1016E+03  0.1013E+03
     -2.408  0.4189E+02  0.4553E+02  0.1043E+03  0.1042E+03
     -2.343  0.2041E+02  0.1996E+02  0.1056E+03  0.1055E+03
     -2.278  0.2256E+02  0.1770E+02  0.1071E+03  0.1067E+03
     -2.213  0.2150E+02  0.2583E+02  0.1085E+03  0.1083E+03
     -2.148  0.7190E+02  0.6635E+02  0.1132E+03  0.1127E+03
     -2.084  0.8050E+01  0.1555E+02  0.1137E+03  0.1137E+03
     -2.019  0.3521E+02  0.3198E+02  0.1160E+03  0.1157E+03
     -1.954  0.4383E+02  0.4092E+02  0.1188E+03  0.1184E+03
     -1.889  0.3958E+02  0.4198E+02  0.1214E+03  0.1211E+03
     -1.824  0.3786E+02  0.3372E+02  0.1238E+03  0.1233E+03
     -1.760  0.4125E+02  0.3707E+02  0.1265E+03  0.1257E+03
     -1.695  0.3336E+02  0.4573E+02  0.1287E+03  0.1287E+03
     -1.630  0.2129E+02  0.1740E+02  0.1300E+03  0.1298E+03
     -1.565  0.4951E+02  0.4531E+02  0.1333E+03  0.1327E+03
     -1.500  0.2685E+02  0.3487E+02  0.1350E+03  0.1350E+03
     -1.436  0.3335E+02  0.2425E+02  0.1372E+03  0.1366E+03
     -1.371  0.3787E+02  0.4459E+02  0.1396E+03  0.1395E+03
     -1.306  0.5141E+02  0.4283E+02  0.1430E+03  0.1422E+03
     -1.241  0.1646E+02  0.2414E+02  0.1440E+03  0.1438E+03
     -1.176  0.3051E+02  0.2778E+02  0.1460E+03  0.1456E+03
     -1.111  0.4773E+02  0.4727E+02  0.1491E+03  0.1487E+03
     -1.047  0.1667E+02  0.2101E+02  0.1502E+03  0.1500E+03
     -0.982  0.4832E+02  0.4913E+02  0.1533E+03  0.1532E+03
     -0.917  0.2096E+02  0.2220E+02  0.1547E+03  0.1547E+03
     -0.852  0.3319E+02  0.2614E+02  0.1568E+03  0.1564E+03
     -0.787  0.3871E+02  0.4146E+02  0.1593E+03  0.1590E+03
     -0.723  0.3049E+02  0.3223E+02  0.1613E+03  0.1611E+03
     -0.658  0.4103E+02  0.3916E+02  0.1640E+03  0.1637E+03
     -0.593  0.4975E+01  0.5481E+01  0.1643E+03  0.1640E+03
     -0.528  0.4382E+02  0.4120E+02  0.1671E+03  0.1667E+03
     -0.463  0.2204E+02  0.2554E+02  0.1686E+03  0.1684E+03
     -0.399  0.3159E+02  0.3268E+02  0.1706E+03  0.1705E+03
     -0.334  0.4226E+02  0.3598E+02  0.1734E+03  0.1728E+03
     -0.269  0.3196E+02  0.3418E+02  0.1754E+03  0.1750E+03
     -0.204  0.2933E+02  0.3555E+02  0.1773E+03  0.1773E+03
     -0.139  0.2583E+02  0.2425E+02  0.1790E+03  0.1789E+03
     -0.074  0.2374E+02  0.2133E+02  0.1806E+03  0.1803E+03
     -0.010  0.5191E+02  0.4671E+02  0.1839E+03  0.1833E+03
      0.055  0.2695E+02  0.3619E+02  0.1857E+03  0.1857E+03
      0.120  0.1868E+02  0.1100E+02  0.1869E+03  0.1864E+03
      0.185  0.5587E+02  0.5992E+02  0.1905E+03  0.1903E+03
      0.250  0.4571E+02  0.4514E+02  0.1935E+03  0.1932E+03
      0.314  0.2827E+02  0.2431E+02  0.1953E+03  0.1948E+03
      0.379  0.3272E+02  0.3949E+02  0.1974E+03  0.1973E+03
      0.444  0.4795E+02  0.4646E+02  0.2005E+03  0.2003E+03
      0.509  0.3376E+02  0.3231E+02  0.2027E+03  0.2024E+03
      0.574  0.3853E+02  0.3925E+02  0.2052E+03  0.2050E+03
      0.638  0.5635E+02  0.4437E+02  0.2089E+03  0.2079E+03
      0.703  0.2726E+02  0.3833E+02  0.2106E+03  0.2103E+03
      0.768  0.3161E+02  0.3322E+02  0.2127E+03  0.2125E+03
      0.833  0.4456E+02  0.3454E+02  0.2156E+03  0.2147E+03
      0.898  0.8974E+01  0.1988E+02  0.2162E+03  0.2160E+03
      0.962  0.3490E+02  0.3171E+02  0.2184E+03  0.2181E+03
      1.027  0.3148E+02  0.3410E+02  0.2205E+03  0.2203E+03
      1.092  0.5231E+02  0.5218E+02  0.2239E+03  0.2237E+03
      1.157  0.2664E+02  0.2326E+02  0.2256E+03  0.2252E+03
      1.222  0.4523E+02  0.4804E+02  0.2285E+03  0.2283E+03
      1.287  0.6381E+02  0.6528E+02  0.2326E+03  0.2325E+03
      1.351  0.2231E+02  0.1822E+02  0.2341E+03  0.2337E+03
      1.416  0.6837E+02  0.6738E+02  0.2385E+03  0.2381E+03
      1.481  0.2220E+02  0.2521E+02  0.2400E+03  0.2397E+03
      1.546  0.3829E+02  0.3878E+02  0.2424E+03  0.2422E+03
      1.611  0.3005E+02  0.3101E+02  0.2444E+03  0.2443E+03
      1.675  0.5068E+02  0.4891E+02  0.2477E+03  0.2474E+03
      1.740  0.2001E+02  0.2187E+02  0.2490E+03  0.2488E+03
      1.805  0.6391E+02  0.6196E+02  0.2531E+03  0.2529E+03
      1.870  0.3232E+02  0.2649E+02  0.2552E+03  0.2546E+03
      1.935  0.2522E+02  0.3268E+02  0.2569E+03  0.2567E+03
      1.999  0.5712E+02  0.5225E+02  0.2606E+03  0.2601E+03
      2.064  0.2740E+02  0.3442E+02  0.2623E+03  0.2623E+03
      2.129  0.3624E+02  0.2717E+02  0.2647E+03  0.2641E+03
      2.194  0.3034E+02  0.3203E+02  0.2667E+03  0.2662E+03
      2.259  0.3732E+02  0.4130E+02  0.2691E+03  0.2688E+03
      2.324  0.5354E+02  0.5236E+02  0.2725E+03  0.2722E+03
      2.388  0.4048E+02  0.3415E+02  0.2752E+03  0.2745E+03
      2.453  0.4649E+02  0.4811E+02  0.2782E+03  0.2776E+03
      2.518  0.1778E+02  0.2610E+02  0.2793E+03  0.2793E+03
      2.583  0.5460E+02  0.5013E+02  0.2829E+03  0.2825E+03
      2.648  0.4073E+02  0.4345E+02  0.2855E+03  0.2853E+03
      2.712  0.2788E+02  0.2451E+02  0.2873E+03  0.2869E+03
      2.777  0.6274E+02  0.6101E+02  0.2914E+03  0.2909E+03
      2.842  0.4456E+02  0.4573E+02  0.2943E+03  0.2938E+03
      2.907  0.4518E+02  0.4337E+02  0.2972E+03  0.2967E+03
      2.972  0.4162E+02  0.4538E+02  0.2999E+03  0.2996E+03
      3.036  0.5779E+02  0.5151E+02  0.3037E+03  0.3029E+03
      3.101  0.2830E+02  0.3492E+02  0.3055E+03  0.3052E+03
      3.166  0.4542E+02  0.4304E+02  0.3085E+03  0.3080E+03
      3.231  0.4907E+02  0.5246E+02  0.3116E+03  0.3114E+03
      3.296  0.6192E+02  0.6375E+02  0.3157E+03  0.3155E+03
      3.360  0.4078E+02  0.4081E+02  0.3183E+03  0.3182E+03
      3.425  0.4786E+02  0.4708E+02  0.3214E+03  0.3212E+03
      3.490  0.5439E+02  0.5262E+02  0.3250E+03  0.3246E+03
      3.555  0.5150E+02  0.5140E+02  0.3283E+03  0.3280E+03
      3.620  0.5253E+02  0.5646E+02  0.3317E+03  0.3316E+03
      3.685  0.3774E+02  0.3527E+02  0.3341E+03  0.3339E+03
      3.749  0.4359E+02  0.3440E+02  0.3370E+03  0.3362E+03
      3.814  0.7996E+02  0.8377E+02  0.3422E+03  0.3416E+03
      3.879  0.7300E+02  0.7062E+02  0.3469E+03  0.3462E+03
      3.944  0.6198E+02  0.7001E+02  0.3509E+03  0.3507E+03
      4.009  0.6270E+02  0.6450E+02  0.3550E+03  0.3549E+03
      4.073  0.3072E+02  0.2825E+02  0.3570E+03  0.3567E+03
      4.138  0.7783E+02  0.7358E+02  0.3620E+03  0.3615E+03
      4.203  0.5318E+02  0.5752E+02  0.3655E+03  0.3652E+03
      4.268  0.4637E+02  0.4185E+02  0.3685E+03  0.3679E+03
      4.333  0.8769E+02  0.8881E+02  0.3742E+03  0.3737E+03
      4.397  0.5658E+02  0.5465E+02  0.3778E+03  0.3772E+03
      4.462  0.4577E+02  0.5306E+02  0.3808E+03  0.3807E+03
      4.527  0.6831E+02  0.6247E+02  0.3852E+03  0.3847E+03
      4.592  0.4493E+02  0.5066E+02  0.3882E+03  0.3880E+03
      4.657  0.5702E+02  0.4987E+02  0.3918E+03  0.3913E+03
      4.721  0.5564E+02  0.5997E+02  0.3955E+03  0.3951E+03
      4.786  0.5652E+02  0.5733E+02  0.3991E+03  0.3989E+03
      4.851  0.6919E+02  0.6819E+02  0.4036E+03  0.4033E+03
      4.916  0.6246E+02  0.6656E+02  0.4077E+03  0.4076E+03
      4.981  0.3197E+02  0.2301E+02  0.4097E+03  0.4091E+03
      5.046  0.4135E+02  0.4611E+02  0.4124E+03  0.4121E+03
      5.110  0.4285E+02  0.4519E+02  0.4152E+03  0.4150E+03
      5.175  0.4343E+02  0.4341E+02  0.4180E+03  0.4178E+03
      5.240  0.3830E+02  0.3415E+02  0.4205E+03  0.4200E+03
      5.305  0.2658E+02  0.2794E+02  0.4222E+03  0.4218E+03
      5.370  0.2906E+02  0.3200E+02  0.4241E+03  0.4239E+03
      5.434  0.6301E+02  0.6309E+02  0.4282E+03  0.4280E+03
      5.499  0.3821E+02  0.3959E+02  0.4307E+03  0.4306E+03
      5.564  0.2426E+02  0.2324E+02  0.4322E+03  0.4321E+03
      5.629  0.3687E+02  0.3199E+02  0.4346E+03  0.4342E+03
      5.694  0.3964E+02  0.3978E+02  0.4372E+03  0.4368E+03
      5.758  0.2620E+02  0.2647E+02  0.4389E+03  0.4385E+03
      5.823  0.2816E+02  0.2680E+02  0.4407E+03  0.4402E+03
      5.888  0.3508E+02  0.3132E+02  0.4430E+03  0.4422E+03
      5.953  0.3631E+02  0.4774E+02  0.4454E+03  0.4453E+03
      6.018  0.4432E+02  0.3209E+02  0.4482E+03  0.4474E+03
      6.083  0.3227E+02  0.4375E+02  0.4503E+03  0.4502E+03
      6.147  0.4735E+02  0.4648E+02  0.4534E+03  0.4533E+03
      6.212  0.2467E+02  0.2624E+02  0.4550E+03  0.4550E+03
      6.277  0.4261E+01  0.7657E+00  0.4553E+03  0.4550E+03
      6.342  0.5763E+02  0.5671E+02  0.4590E+03  0.4587E+03
      6.407  0.3492E+02  0.3212E+02  0.4613E+03  0.4608E+03
      6.471  0.3195E+02  0.3476E+02  0.4633E+03  0.4630E+03
      6.536  0.4885E+02  0.4165E+02  0.4665E+03  0.4657E+03
      6.601  0.2798E+02  0.2746E+02  0.4683E+03  0.4675E+03
      6.666  0.4560E+02  0.5154E+02  0.4713E+03  0.4709E+03
      6.731  0.4595E+02  0.4251E+02  0.4743E+03  0.4736E+03
      6.795  0.4536E+02  0.4752E+02  0.4772E+03  0.4767E+03
      6.860  0.5803E+02  0.5115E+02  0.4810E+03  0.4800E+03
      6.925  0.2691E+02  0.4053E+02  0.4827E+03  0.4826E+03
      6.990  0.4639E+02  0.3544E+02  0.4857E+03  0.4849E+03
      7.055  0.5480E+02  0.5664E+02  0.4893E+03  0.4886E+03
      7.119  0.2935E+02  0.3040E+02  0.4912E+03  0.4906E+03
      7.184  0.5653E+02  0.6180E+02  0.4948E+03  0.4946E+03
      7.249  0.5382E+02  0.3763E+02  0.4983E+03  0.4970E+03
      7.314  0.2544E+02  0.3971E+02  0.5000E+03  0.4996E+03
      7.379  0.5640E+02  0.5407E+02  0.5036E+03  0.5031E+03
      7.444  0.4163E+02  0.4168E+02  0.5063E+03  0.5058E+03
      7.508  0.4255E+02  0.4615E+02  0.5091E+03  0.5088E+03
      7.573  0.5981E+02  0.5154E+02  0.5130E+03  0.5121E+03
      7.638  0.3502E+02  0.4056E+02  0.5152E+03  0.5148E+03
      7.703  0.4870E+02  0.4155E+02  0.5184E+03  0.5175E+03
      7.768  0.5393E+02  0.6180E+02  0.5219E+03  0.5215E+03
      7.832  0.1897E+02  0.2235E+02  0.5231E+03  0.5229E+03
      7.897  0.6662E+02  0.6558E+02  0.5274E+03  0.5272E+03
      7.962  0.4529E+02  0.3654E+02  0.5304E+03  0.5295E+03
      8.027  0.4907E+02  0.5520E+02  0.5336E+03  0.5331E+03
      8.092  0.6460E+02  0.6518E+02  0.5377E+03  0.5374E+03
      8.156  0.5573E+02  0.4906E+02  0.5414E+03  0.5405E+03
      8.221  0.7438E+02  0.8409E+02  0.5462E+03  0.5460E+03
      8.286  0.5249E+02  0.4905E+02  0.5496E+03  0.5492E+03
      8.351  0.6987E+02  0.6479E+02  0.5541E+03  0.5534E+03
      8.416  0.6401E+02  0.6406E+02  0.5583E+03  0.5575E+03
      8.481  0.7061E+02  0.7497E+02  0.5629E+03  0.5624E+03
      8.545  0.7260E+02  0.6807E+02  0.5676E+03  0.5668E+03
      8.610  0.7701E+02  0.8004E+02  0.5726E+03  0.5720E+03
      8.675  0.4482E+02  0.3757E+02  0.5755E+03  0.5744E+03
      8.740  0.8150E+01  0.2442E+02  0.5760E+03  0.5760E+03
      8.805  0.0000E+00  0.0000E+00  0.5760E+03  0.5760E+03
      8.869  0.0000E+00  0.0000E+00  0.5760E+03  0.5760E+03
      8.934  0.0000E+00  0.0000E+00  0.5760E+03  0.5760E+03
      8.999  0.0000E+00  0.0000E+00  0.5760E+03  0.5760E+03
      9.064  0.0000E+00  0.0000E+00  0.5760E+03  0.5760E+03
      9.129  0.0000E+00  0.0000E+00  0.5760E+03  0.5760E+03
      9.193  0.0000E+00  0.0000E+00  0.5760E+03  0.5760E+03
      9.258  0.0000E+00  0.0000E+00  0.5760E+03  0.5760E+03
      9.323  0.0000E+00  0.0000E+00  0.5760E+03  0.5760E+03
      9.388  0.0000E+00  0.0000E+00  0.5760E+03  0.5760E+03
      9.453  0.0000E+00  0.0000E+00  0.5760E+03  0.5760E+03
      9.517  0.0000E+00  0.0000E+00  0.5760E+03  0.5760E+03
      9.582  0.0000E+00  0.0000E+00  0.5760E+03  0.5760E+03
