  96  96   0   0
  0.2276159E+02  0.1265123E-08  0.1265123E-08  0.1393391E-08  0.5000000E-15
  1.000000000000000E-004
  CAR 
 Si and Ge interface calculation         
      6.44118300    -12.79149661  301      3.51390084      1.00000000
    -12.791  0.0000E+00  0.0000E+00  0.0000E+00  0.0000E+00
    -12.727  0.0000E+00  0.0000E+00  0.0000E+00  0.0000E+00
    -12.663  0.0000E+00  0.0000E+00  0.0000E+00  0.0000E+00
    -12.599  0.0000E+00  0.0000E+00  0.0000E+00  0.0000E+00
    -12.535  0.0000E+00  0.0000E+00  0.0000E+00  0.0000E+00
    -12.471  0.0000E+00  0.0000E+00  0.0000E+00  0.0000E+00
    -12.407  0.0000E+00  0.0000E+00  0.0000E+00  0.0000E+00
    -12.343  0.0000E+00  0.0000E+00  0.0000E+00  0.0000E+00
    -12.279  0.0000E+00  0.0000E+00  0.0000E+00  0.0000E+00
    -12.215  0.0000E+00  0.0000E+00  0.0000E+00  0.0000E+00
    -12.150  0.0000E+00  0.0000E+00  0.0000E+00  0.0000E+00
    -12.086  0.0000E+00  0.0000E+00  0.0000E+00  0.0000E+00
    -12.022  0.0000E+00  0.0000E+00  0.0000E+00  0.0000E+00
    -11.958  0.9584E-07  0.2071E-10  0.6144E-08  0.1328E-11
    -11.894  0.3118E+02  0.3044E+02  0.1999E+01  0.1951E+01
    -11.830  0.0000E+00  0.7566E+00  0.2000E+01  0.2000E+01
    -11.766  0.0000E+00  0.0000E+00  0.2000E+01  0.2000E+01
    -11.702  0.0000E+00  0.0000E+00  0.2000E+01  0.2000E+01
    -11.638  0.0000E+00  0.0000E+00  0.2000E+01  0.2000E+01
    -11.573  0.0000E+00  0.0000E+00  0.2000E+01  0.2000E+01
    -11.509  0.0000E+00  0.0000E+00  0.2000E+01  0.2000E+01
    -11.445  0.0000E+00  0.0000E+00  0.2000E+01  0.2000E+01
    -11.381  0.0000E+00  0.0000E+00  0.2000E+01  0.2000E+01
    -11.317  0.0000E+00  0.0000E+00  0.2000E+01  0.2000E+01
    -11.253  0.1134E+02  0.2127E+01  0.2727E+01  0.2136E+01
    -11.189  0.1985E+02  0.2907E+02  0.4000E+01  0.4000E+01
    -11.125  0.0000E+00  0.0000E+00  0.4000E+01  0.4000E+01
    -11.061  0.0000E+00  0.0000E+00  0.4000E+01  0.4000E+01
    -10.996  0.0000E+00  0.0000E+00  0.4000E+01  0.4000E+01
    -10.932  0.0000E+00  0.0000E+00  0.4000E+01  0.4000E+01
    -10.868  0.0000E+00  0.0000E+00  0.4000E+01  0.4000E+01
    -10.804  0.0000E+00  0.0000E+00  0.4000E+01  0.4000E+01
    -10.740  0.0000E+00  0.0000E+00  0.4000E+01  0.4000E+01
    -10.676  0.0000E+00  0.0000E+00  0.4000E+01  0.4000E+01
    -10.612  0.0000E+00  0.0000E+00  0.4000E+01  0.4000E+01
    -10.548  0.0000E+00  0.0000E+00  0.4000E+01  0.4000E+01
    -10.484  0.0000E+00  0.0000E+00  0.4000E+01  0.4000E+01
    -10.419  0.0000E+00  0.0000E+00  0.4000E+01  0.4000E+01
    -10.355  0.0000E+00  0.0000E+00  0.4000E+01  0.4000E+01
    -10.291  0.0000E+00  0.0000E+00  0.4000E+01  0.4000E+01
    -10.227  0.5123E+00  0.6369E-01  0.4033E+01  0.4004E+01
    -10.163  0.1225E+02  0.1067E+02  0.4818E+01  0.4688E+01
    -10.099  0.1996E+02  0.2060E+02  0.6098E+01  0.6008E+01
    -10.035  0.2905E+02  0.2608E+02  0.7960E+01  0.7680E+01
     -9.971  0.1256E+02  0.1057E+02  0.8768E+01  0.8358E+01
     -9.907  0.8822E+01  0.1521E+02  0.9333E+01  0.9333E+01
     -9.842  0.1297E+02  0.3229E+01  0.1016E+02  0.9540E+01
     -9.778  0.1823E+02  0.2797E+02  0.1133E+02  0.1133E+02
     -9.714  0.8510E-04  0.7605E-06  0.1133E+02  0.1133E+02
     -9.650  0.2078E+02  0.2053E+02  0.1267E+02  0.1265E+02
     -9.586  0.0000E+00  0.2506E+00  0.1267E+02  0.1267E+02
     -9.522  0.0000E+00  0.0000E+00  0.1267E+02  0.1267E+02
     -9.458  0.2503E+01  0.1681E+00  0.1283E+02  0.1268E+02
     -9.394  0.1830E+02  0.2063E+02  0.1400E+02  0.1400E+02
     -9.330  0.1028E+02  0.8279E+01  0.1466E+02  0.1453E+02
     -9.266  0.2802E+02  0.2541E+02  0.1646E+02  0.1616E+02
     -9.201  0.3212E+01  0.7907E+01  0.1667E+02  0.1667E+02
     -9.137  0.2080E+02  0.2080E+02  0.1800E+02  0.1800E+02
     -9.073  0.1104E-01  0.2404E-04  0.1800E+02  0.1800E+02
     -9.009  0.2081E+02  0.2080E+02  0.1933E+02  0.1933E+02
     -8.945  0.1038E+02  0.1040E+02  0.2000E+02  0.2000E+02
     -8.881  0.3837E-03  0.3122E-05  0.2000E+02  0.2000E+02
     -8.817  0.2080E+02  0.2078E+02  0.2133E+02  0.2133E+02
     -8.753  0.1012E+02  0.8846E+01  0.2198E+02  0.2190E+02
     -8.689  0.4629E+01  0.4468E+01  0.2228E+02  0.2219E+02
     -8.624  0.2064E+02  0.2143E+02  0.2360E+02  0.2356E+02
     -8.560  0.2214E+02  0.2027E+02  0.2502E+02  0.2486E+02
     -8.496  0.1527E+02  0.1775E+02  0.2600E+02  0.2600E+02
     -8.432  0.1700E+01  0.2159E+00  0.2611E+02  0.2601E+02
     -8.368  0.1558E+02  0.1470E+02  0.2711E+02  0.2696E+02
     -8.304  0.3519E+01  0.5882E+01  0.2733E+02  0.2733E+02
     -8.240  0.2056E-09  0.1160E-12  0.2733E+02  0.2733E+02
     -8.176  0.7735E+01  0.5379E+01  0.2783E+02  0.2768E+02
     -8.112  0.2209E+02  0.2011E+02  0.2925E+02  0.2897E+02
     -8.047  0.2214E+02  0.2630E+02  0.3067E+02  0.3065E+02
     -7.983  0.1454E+02  0.1238E+02  0.3160E+02  0.3145E+02
     -7.919  0.1980E+02  0.1738E+02  0.3287E+02  0.3256E+02
     -7.855  0.1617E+02  0.1927E+02  0.3391E+02  0.3380E+02
     -7.791  0.2975E+02  0.2642E+02  0.3581E+02  0.3549E+02
     -7.727  0.2154E+02  0.2472E+02  0.3719E+02  0.3708E+02
     -7.663  0.2139E+02  0.2109E+02  0.3857E+02  0.3843E+02
     -7.599  0.2309E+02  0.2369E+02  0.4005E+02  0.3995E+02
     -7.535  0.1606E+02  0.1555E+02  0.4108E+02  0.4094E+02
     -7.470  0.2718E+02  0.2739E+02  0.4282E+02  0.4270E+02
     -7.406  0.2000E+02  0.2058E+02  0.4411E+02  0.4402E+02
     -7.342  0.1379E+02  0.9717E+01  0.4499E+02  0.4464E+02
     -7.278  0.2548E+02  0.2676E+02  0.4662E+02  0.4636E+02
     -7.214  0.3047E+02  0.3137E+02  0.4858E+02  0.4837E+02
     -7.150  0.1349E+02  0.1341E+02  0.4944E+02  0.4923E+02
     -7.086  0.1970E+02  0.2242E+02  0.5071E+02  0.5067E+02
     -7.022  0.1694E+02  0.1588E+02  0.5179E+02  0.5169E+02
     -6.958  0.4275E+02  0.4072E+02  0.5453E+02  0.5430E+02
     -6.893  0.2738E+02  0.2831E+02  0.5629E+02  0.5611E+02
     -6.829  0.3132E+02  0.2932E+02  0.5830E+02  0.5799E+02
     -6.765  0.1193E+02  0.1435E+02  0.5907E+02  0.5892E+02
     -6.701  0.2582E+02  0.2443E+02  0.6072E+02  0.6048E+02
     -6.637  0.3868E+02  0.4000E+02  0.6320E+02  0.6305E+02
     -6.573  0.2341E+02  0.2293E+02  0.6471E+02  0.6452E+02
     -6.509  0.2952E+02  0.3145E+02  0.6660E+02  0.6654E+02
     -6.445  0.2201E+02  0.2207E+02  0.6801E+02  0.6796E+02
     -6.381  0.3196E+02  0.3090E+02  0.7007E+02  0.6994E+02
     -6.316  0.3935E+02  0.3569E+02  0.7259E+02  0.7222E+02
     -6.252  0.2939E+02  0.3083E+02  0.7447E+02  0.7420E+02
     -6.188  0.3058E+02  0.3224E+02  0.7644E+02  0.7627E+02
     -6.124  0.2070E+02  0.2104E+02  0.7776E+02  0.7762E+02
     -6.060  0.2265E+02  0.2405E+02  0.7922E+02  0.7916E+02
     -5.996  0.2825E+02  0.2331E+02  0.8103E+02  0.8066E+02
     -5.932  0.1350E+02  0.1428E+02  0.8189E+02  0.8157E+02
     -5.868  0.2919E+02  0.2923E+02  0.8376E+02  0.8345E+02
     -5.804  0.2068E+02  0.2089E+02  0.8509E+02  0.8479E+02
     -5.740  0.2841E+02  0.3033E+02  0.8692E+02  0.8673E+02
     -5.675  0.2571E+02  0.2369E+02  0.8856E+02  0.8825E+02
     -5.611  0.1816E+02  0.2026E+02  0.8973E+02  0.8955E+02
     -5.547  0.1979E+02  0.2199E+02  0.9100E+02  0.9096E+02
     -5.483  0.1760E+02  0.1792E+02  0.9213E+02  0.9211E+02
     -5.419  0.1679E+02  0.1373E+02  0.9320E+02  0.9299E+02
     -5.355  0.2653E+02  0.2422E+02  0.9490E+02  0.9454E+02
     -5.291  0.2297E+02  0.2492E+02  0.9638E+02  0.9614E+02
     -5.227  0.2132E+02  0.2206E+02  0.9774E+02  0.9755E+02
     -5.163  0.1597E+02  0.1465E+02  0.9877E+02  0.9849E+02
     -5.098  0.2495E+02  0.2044E+02  0.1004E+03  0.9980E+02
     -5.034  0.2333E+02  0.2745E+02  0.1019E+03  0.1016E+03
     -4.970  0.1714E+02  0.1893E+02  0.1030E+03  0.1028E+03
     -4.906  0.2731E+02  0.2337E+02  0.1047E+03  0.1043E+03
     -4.842  0.3579E+02  0.3955E+02  0.1070E+03  0.1068E+03
     -4.778  0.2588E+02  0.2292E+02  0.1087E+03  0.1083E+03
     -4.714  0.3003E+02  0.3173E+02  0.1106E+03  0.1103E+03
     -4.650  0.3476E+02  0.3579E+02  0.1128E+03  0.1126E+03
     -4.586  0.1246E+02  0.1174E+02  0.1136E+03  0.1134E+03
     -4.521  0.4475E+02  0.4525E+02  0.1165E+03  0.1163E+03
     -4.457  0.2584E+02  0.2635E+02  0.1182E+03  0.1180E+03
     -4.393  0.1607E+02  0.1661E+02  0.1192E+03  0.1190E+03
     -4.329  0.3178E+02  0.3081E+02  0.1212E+03  0.1210E+03
     -4.265  0.3790E+02  0.3574E+02  0.1237E+03  0.1233E+03
     -4.201  0.1754E+02  0.1881E+02  0.1248E+03  0.1245E+03
     -4.137  0.3230E+02  0.3116E+02  0.1269E+03  0.1265E+03
     -4.073  0.1768E+02  0.2169E+02  0.1280E+03  0.1279E+03
     -4.009  0.2621E+02  0.2536E+02  0.1297E+03  0.1295E+03
     -3.944  0.2587E+02  0.2494E+02  0.1313E+03  0.1311E+03
     -3.880  0.3127E+02  0.3089E+02  0.1333E+03  0.1331E+03
     -3.816  0.2064E+02  0.1983E+02  0.1347E+03  0.1344E+03
     -3.752  0.1579E+02  0.1857E+02  0.1357E+03  0.1356E+03
     -3.688  0.1894E+02  0.1909E+02  0.1369E+03  0.1368E+03
     -3.624  0.1742E+02  0.1898E+02  0.1380E+03  0.1380E+03
     -3.560  0.2304E+02  0.1822E+02  0.1395E+03  0.1392E+03
     -3.496  0.2489E+02  0.2235E+02  0.1411E+03  0.1406E+03
     -3.432  0.2201E+02  0.2490E+02  0.1425E+03  0.1422E+03
     -3.367  0.3435E+02  0.3545E+02  0.1447E+03  0.1445E+03
     -3.303  0.2728E+02  0.2616E+02  0.1464E+03  0.1462E+03
     -3.239  0.2987E+02  0.3098E+02  0.1484E+03  0.1481E+03
     -3.175  0.2877E+02  0.3022E+02  0.1502E+03  0.1501E+03
     -3.111  0.2692E+02  0.2554E+02  0.1519E+03  0.1517E+03
     -3.047  0.2562E+02  0.2670E+02  0.1536E+03  0.1534E+03
     -2.983  0.3034E+02  0.2960E+02  0.1555E+03  0.1553E+03
     -2.919  0.3955E+02  0.3982E+02  0.1581E+03  0.1579E+03
     -2.855  0.2570E+02  0.2388E+02  0.1597E+03  0.1594E+03
     -2.791  0.2797E+02  0.2796E+02  0.1615E+03  0.1612E+03
     -2.726  0.3395E+02  0.3657E+02  0.1637E+03  0.1636E+03
     -2.662  0.2712E+02  0.2672E+02  0.1654E+03  0.1653E+03
     -2.598  0.2967E+02  0.2715E+02  0.1673E+03  0.1670E+03
     -2.534  0.2803E+02  0.3095E+02  0.1691E+03  0.1690E+03
     -2.470  0.2557E+02  0.2321E+02  0.1708E+03  0.1705E+03
     -2.406  0.2595E+02  0.2889E+02  0.1724E+03  0.1723E+03
     -2.342  0.2918E+02  0.2666E+02  0.1743E+03  0.1740E+03
     -2.278  0.1276E+02  0.1412E+02  0.1751E+03  0.1749E+03
     -2.214  0.2291E+02  0.2114E+02  0.1766E+03  0.1763E+03
     -2.149  0.1787E+02  0.1936E+02  0.1777E+03  0.1775E+03
     -2.085  0.2014E+02  0.2202E+02  0.1790E+03  0.1790E+03
     -2.021  0.2917E+02  0.2540E+02  0.1809E+03  0.1806E+03
     -1.957  0.1880E+02  0.2156E+02  0.1821E+03  0.1820E+03
     -1.893  0.1991E+02  0.1807E+02  0.1834E+03  0.1831E+03
     -1.829  0.2344E+02  0.2323E+02  0.1849E+03  0.1846E+03
     -1.765  0.1420E+02  0.1805E+02  0.1858E+03  0.1858E+03
     -1.701  0.2762E+02  0.1878E+02  0.1876E+03  0.1870E+03
     -1.637  0.1924E+02  0.2552E+02  0.1888E+03  0.1886E+03
     -1.572  0.1515E+02  0.1340E+02  0.1898E+03  0.1895E+03
     -1.508  0.2778E+02  0.2990E+02  0.1915E+03  0.1914E+03
     -1.444  0.1670E+02  0.1728E+02  0.1926E+03  0.1925E+03
     -1.380  0.1521E+02  0.1316E+02  0.1936E+03  0.1933E+03
     -1.316  0.1161E+02  0.1523E+02  0.1943E+03  0.1943E+03
     -1.252  0.1243E+02  0.7198E+01  0.1951E+03  0.1948E+03
     -1.188  0.1889E+02  0.2278E+02  0.1963E+03  0.1962E+03
     -1.124  0.1141E+02  0.1119E+02  0.1971E+03  0.1970E+03
     -1.060  0.2166E+02  0.2140E+02  0.1985E+03  0.1983E+03
     -0.995  0.2233E+02  0.2280E+02  0.1999E+03  0.1998E+03
     -0.931  0.1735E+02  0.1471E+02  0.2010E+03  0.2007E+03
     -0.867  0.2376E+02  0.2598E+02  0.2025E+03  0.2024E+03
     -0.803  0.3167E+02  0.2698E+02  0.2046E+03  0.2041E+03
     -0.739  0.3774E+02  0.4006E+02  0.2070E+03  0.2067E+03
     -0.675  0.4718E+02  0.4715E+02  0.2100E+03  0.2097E+03
     -0.611  0.4039E+02  0.4094E+02  0.2126E+03  0.2124E+03
     -0.547  0.4278E+02  0.4350E+02  0.2153E+03  0.2151E+03
     -0.483  0.3339E+02  0.3028E+02  0.2175E+03  0.2171E+03
     -0.418  0.2595E+02  0.2860E+02  0.2191E+03  0.2189E+03
     -0.354  0.4426E+02  0.4172E+02  0.2220E+03  0.2216E+03
     -0.290  0.2130E+02  0.2441E+02  0.2234E+03  0.2232E+03
     -0.226  0.4704E+02  0.4219E+02  0.2264E+03  0.2259E+03
     -0.162  0.2897E+02  0.3306E+02  0.2282E+03  0.2280E+03
     -0.098  0.4335E+02  0.4441E+02  0.2310E+03  0.2308E+03
     -0.034  0.4327E+02  0.4125E+02  0.2338E+03  0.2335E+03
      0.030  0.4083E+02  0.3947E+02  0.2364E+03  0.2360E+03
      0.094  0.3918E+02  0.3999E+02  0.2389E+03  0.2386E+03
      0.159  0.2885E+02  0.3089E+02  0.2408E+03  0.2406E+03
      0.223  0.4272E+02  0.4121E+02  0.2435E+03  0.2432E+03
      0.287  0.4121E+02  0.4141E+02  0.2461E+03  0.2459E+03
      0.351  0.3871E+02  0.3819E+02  0.2486E+03  0.2483E+03
      0.415  0.2489E+02  0.2421E+02  0.2502E+03  0.2499E+03
      0.479  0.5310E+02  0.4947E+02  0.2536E+03  0.2530E+03
      0.543  0.3549E+02  0.3702E+02  0.2559E+03  0.2554E+03
      0.607  0.3680E+02  0.3783E+02  0.2583E+03  0.2578E+03
      0.671  0.4567E+02  0.4801E+02  0.2612E+03  0.2609E+03
      0.735  0.4900E+02  0.4645E+02  0.2643E+03  0.2639E+03
      0.800  0.4834E+02  0.4813E+02  0.2674E+03  0.2670E+03
      0.864  0.3478E+02  0.3586E+02  0.2697E+03  0.2693E+03
      0.928  0.3775E+02  0.4114E+02  0.2721E+03  0.2719E+03
      0.992  0.4246E+02  0.4173E+02  0.2748E+03  0.2746E+03
      1.056  0.4398E+02  0.4209E+02  0.2776E+03  0.2773E+03
      1.120  0.5147E+02  0.5231E+02  0.2809E+03  0.2807E+03
      1.184  0.5125E+02  0.4801E+02  0.2842E+03  0.2837E+03
      1.248  0.4136E+02  0.4336E+02  0.2869E+03  0.2865E+03
      1.312  0.5405E+02  0.5479E+02  0.2903E+03  0.2900E+03
      1.377  0.5255E+02  0.4875E+02  0.2937E+03  0.2932E+03
      1.441  0.4101E+02  0.4114E+02  0.2963E+03  0.2958E+03
      1.505  0.3421E+02  0.3862E+02  0.2985E+03  0.2983E+03
      1.569  0.3187E+02  0.3157E+02  0.3006E+03  0.3003E+03
      1.633  0.4688E+02  0.4575E+02  0.3036E+03  0.3032E+03
      1.697  0.4719E+02  0.4800E+02  0.3066E+03  0.3063E+03
      1.761  0.4458E+02  0.4115E+02  0.3095E+03  0.3089E+03
      1.825  0.3324E+02  0.3437E+02  0.3116E+03  0.3111E+03
      1.889  0.4002E+02  0.4327E+02  0.3142E+03  0.3139E+03
      1.954  0.5995E+02  0.5406E+02  0.3180E+03  0.3174E+03
      2.018  0.4062E+02  0.4257E+02  0.3206E+03  0.3201E+03
      2.082  0.4993E+02  0.4792E+02  0.3238E+03  0.3232E+03
      2.146  0.4490E+02  0.4467E+02  0.3267E+03  0.3261E+03
      2.210  0.4642E+02  0.4944E+02  0.3297E+03  0.3292E+03
      2.274  0.4458E+02  0.4216E+02  0.3325E+03  0.3319E+03
      2.338  0.4907E+02  0.4935E+02  0.3357E+03  0.3351E+03
      2.402  0.3930E+02  0.4122E+02  0.3382E+03  0.3377E+03
      2.466  0.4678E+02  0.4394E+02  0.3412E+03  0.3406E+03
      2.531  0.3048E+02  0.3334E+02  0.3432E+03  0.3427E+03
      2.595  0.4934E+02  0.4767E+02  0.3463E+03  0.3458E+03
      2.659  0.2378E+02  0.2738E+02  0.3479E+03  0.3475E+03
      2.723  0.4023E+02  0.3805E+02  0.3504E+03  0.3500E+03
      2.787  0.3666E+02  0.3929E+02  0.3528E+03  0.3525E+03
      2.851  0.3374E+02  0.3039E+02  0.3550E+03  0.3544E+03
      2.915  0.4708E+02  0.4425E+02  0.3580E+03  0.3573E+03
      2.979  0.4626E+02  0.5102E+02  0.3609E+03  0.3605E+03
      3.043  0.4790E+02  0.4559E+02  0.3640E+03  0.3635E+03
      3.108  0.2789E+02  0.2733E+02  0.3658E+03  0.3652E+03
      3.172  0.4213E+02  0.4533E+02  0.3685E+03  0.3681E+03
      3.236  0.4771E+02  0.4508E+02  0.3716E+03  0.3710E+03
      3.300  0.4922E+02  0.4815E+02  0.3747E+03  0.3741E+03
      3.364  0.3604E+02  0.4106E+02  0.3770E+03  0.3767E+03
      3.428  0.4878E+02  0.3840E+02  0.3802E+03  0.3792E+03
      3.492  0.4136E+02  0.4200E+02  0.3828E+03  0.3819E+03
      3.556  0.5011E+02  0.4925E+02  0.3860E+03  0.3850E+03
      3.620  0.3660E+02  0.4487E+02  0.3884E+03  0.3879E+03
      3.684  0.3854E+02  0.3182E+02  0.3909E+03  0.3900E+03
      3.749  0.4483E+02  0.4761E+02  0.3937E+03  0.3930E+03
      3.813  0.4949E+02  0.4997E+02  0.3969E+03  0.3962E+03
      3.877  0.4281E+02  0.4144E+02  0.3996E+03  0.3989E+03
      3.941  0.3552E+02  0.4379E+02  0.4019E+03  0.4017E+03
      4.005  0.4910E+02  0.4653E+02  0.4051E+03  0.4047E+03
      4.069  0.3406E+02  0.3561E+02  0.4073E+03  0.4070E+03
      4.133  0.1944E+02  0.1642E+02  0.4085E+03  0.4080E+03
      4.197  0.5453E+02  0.5607E+02  0.4120E+03  0.4116E+03
      4.261  0.3125E+02  0.3255E+02  0.4140E+03  0.4137E+03
      4.326  0.4254E+02  0.3757E+02  0.4167E+03  0.4161E+03
      4.390  0.4477E+02  0.4160E+02  0.4196E+03  0.4188E+03
      4.454  0.3676E+02  0.4241E+02  0.4220E+03  0.4215E+03
      4.518  0.4120E+02  0.3922E+02  0.4246E+03  0.4240E+03
      4.582  0.2878E+02  0.3024E+02  0.4264E+03  0.4260E+03
      4.646  0.2965E+02  0.3317E+02  0.4283E+03  0.4281E+03
      4.710  0.4269E+02  0.3551E+02  0.4311E+03  0.4304E+03
      4.774  0.3237E+02  0.3622E+02  0.4332E+03  0.4327E+03
      4.838  0.4397E+02  0.4425E+02  0.4360E+03  0.4355E+03
      4.903  0.3552E+02  0.3735E+02  0.4383E+03  0.4379E+03
      4.967  0.4933E+02  0.4600E+02  0.4414E+03  0.4409E+03
      5.031  0.4024E+02  0.4083E+02  0.4440E+03  0.4435E+03
      5.095  0.4112E+02  0.4165E+02  0.4466E+03  0.4462E+03
      5.159  0.4465E+02  0.4320E+02  0.4495E+03  0.4489E+03
      5.223  0.3846E+02  0.4284E+02  0.4520E+03  0.4517E+03
      5.287  0.3757E+02  0.3974E+02  0.4544E+03  0.4542E+03
      5.351  0.4243E+02  0.3785E+02  0.4571E+03  0.4567E+03
      5.415  0.4342E+02  0.4334E+02  0.4599E+03  0.4594E+03
      5.480  0.4317E+02  0.4256E+02  0.4627E+03  0.4622E+03
      5.544  0.1778E+02  0.2339E+02  0.4638E+03  0.4637E+03
      5.608  0.3173E+01  0.5302E+01  0.4640E+03  0.4640E+03
      5.672  0.0000E+00  0.0000E+00  0.4640E+03  0.4640E+03
      5.736  0.0000E+00  0.0000E+00  0.4640E+03  0.4640E+03
      5.800  0.0000E+00  0.0000E+00  0.4640E+03  0.4640E+03
      5.864  0.0000E+00  0.0000E+00  0.4640E+03  0.4640E+03
      5.928  0.0000E+00  0.0000E+00  0.4640E+03  0.4640E+03
      5.992  0.0000E+00  0.0000E+00  0.4640E+03  0.4640E+03
      6.057  0.0000E+00  0.0000E+00  0.4640E+03  0.4640E+03
      6.121  0.0000E+00  0.0000E+00  0.4640E+03  0.4640E+03
      6.185  0.0000E+00  0.0000E+00  0.4640E+03  0.4640E+03
      6.249  0.0000E+00  0.0000E+00  0.4640E+03  0.4640E+03
      6.313  0.0000E+00  0.0000E+00  0.4640E+03  0.4640E+03
      6.377  0.0000E+00  0.0000E+00  0.4640E+03  0.4640E+03
      6.441  0.0000E+00  0.0000E+00  0.4640E+03  0.4640E+03
