       N       E                     dE             d eps       ncg     rms          rms(c)
DAV:   1     0.116459783304E+04    0.11646E+04   -0.16972E+05  9280   0.171E+03
DAV:   2    -0.993317072394E+03   -0.21579E+04   -0.20893E+04 10848   0.218E+02
DAV:   3    -0.123045748987E+04   -0.23714E+03   -0.22694E+03 11632   0.680E+01
DAV:   4    -0.124264270894E+04   -0.12185E+02   -0.11681E+02 11536   0.149E+01
DAV:   5    -0.124328580437E+04   -0.64310E+00   -0.63017E+00 12888   0.309E+00    0.797E+01
DAV:   6    -0.126520139403E+04   -0.21916E+02   -0.50769E+02 10872   0.523E+01    0.358E+01
DAV:   7    -0.119837762673E+04    0.66824E+02   -0.10847E+02 12840   0.350E+01    0.362E+01
DAV:   8    -0.120033819966E+04   -0.19606E+01   -0.91831E+01 11216   0.150E+01    0.167E+01
DAV:   9    -0.119222996708E+04    0.81082E+01   -0.38512E+01 10888   0.124E+01    0.544E+00
DAV:  10    -0.119230678298E+04   -0.76816E-01   -0.10834E+01 10688   0.555E+00    0.297E+00
DAV:  11    -0.119204760546E+04    0.25918E+00   -0.22196E+00 10536   0.244E+00    0.179E+00
DAV:  12    -0.119200822686E+04    0.39379E-01   -0.64324E-01 10456   0.124E+00    0.985E-01
DAV:  13    -0.119198678761E+04    0.21439E-01   -0.21125E-01 10680   0.845E-01    0.572E-01
DAV:  14    -0.119198285439E+04    0.39332E-02   -0.53756E-02 10496   0.415E-01    0.304E-01
DAV:  15    -0.119197977981E+04    0.30746E-02   -0.19614E-02 10568   0.221E-01    0.115E-01
DAV:  16    -0.119197992812E+04   -0.14831E-03   -0.40034E-03 11032   0.106E-01    0.866E-02
DAV:  17    -0.119197993450E+04   -0.63848E-05   -0.49482E-04 10808   0.403E-02    0.428E-02
DAV:  18    -0.119197994147E+04   -0.69672E-05   -0.12824E-04 11488   0.196E-02    0.189E-02
DAV:  19    -0.119197994097E+04    0.49962E-06   -0.37828E-05 11096   0.109E-02    0.111E-02
DAV:  20    -0.119197994140E+04   -0.43045E-06   -0.67219E-06 10656   0.483E-03    0.635E-03
DAV:  21    -0.119197994222E+04   -0.81929E-06   -0.31335E-06 10936   0.278E-03    0.360E-03
DAV:  22    -0.119197994195E+04    0.26850E-06   -0.84501E-07 11136   0.155E-03    0.174E-03
DAV:  23    -0.119197994215E+04   -0.19943E-06   -0.20131E-07  6728   0.819E-04    0.896E-04
DAV:  24    -0.119197994233E+04   -0.18259E-06   -0.96665E-08  5600   0.544E-04    0.488E-04
DAV:  25    -0.119197994236E+04   -0.23736E-07   -0.30038E-08  5600   0.332E-04
   1 F= -.11919799E+04 E0= -.11919788E+04  d E =-.229672E-02  mag=     1.0000
