  96  96   0   0
  0.2243693E+02  0.1265123E-08  0.1265123E-08  0.1373516E-08  0.5000000E-15
  1.000000000000000E-004
  CAR 
 Si and Ge interface calculation         
      6.71223075    -11.57304920  301      3.69072529      1.00000000
    -11.573  0.0000E+00  0.0000E+00  0.0000E+00  0.0000E+00
    -11.512  0.0000E+00  0.0000E+00  0.0000E+00  0.0000E+00
    -11.451  0.0000E+00  0.0000E+00  0.0000E+00  0.0000E+00
    -11.390  0.0000E+00  0.0000E+00  0.0000E+00  0.0000E+00
    -11.329  0.0000E+00  0.0000E+00  0.0000E+00  0.0000E+00
    -11.268  0.0000E+00  0.0000E+00  0.0000E+00  0.0000E+00
    -11.207  0.0000E+00  0.0000E+00  0.0000E+00  0.0000E+00
    -11.146  0.0000E+00  0.0000E+00  0.0000E+00  0.0000E+00
    -11.085  0.0000E+00  0.0000E+00  0.0000E+00  0.0000E+00
    -11.024  0.0000E+00  0.0000E+00  0.0000E+00  0.0000E+00
    -10.964  0.0000E+00  0.0000E+00  0.0000E+00  0.0000E+00
    -10.903  0.0000E+00  0.0000E+00  0.0000E+00  0.0000E+00
    -10.842  0.0000E+00  0.0000E+00  0.0000E+00  0.0000E+00
    -10.781  0.6776E-07  0.2353E-10  0.4130E-08  0.1434E-11
    -10.720  0.3239E+02  0.2789E+02  0.1974E+01  0.1700E+01
    -10.659  0.3921E+00  0.4919E+01  0.2000E+01  0.2000E+01
    -10.598  0.0000E+00  0.0000E+00  0.2000E+01  0.2000E+01
    -10.537  0.0000E+00  0.0000E+00  0.2000E+01  0.2000E+01
    -10.476  0.0000E+00  0.0000E+00  0.2000E+01  0.2000E+01
    -10.415  0.0000E+00  0.0000E+00  0.2000E+01  0.2000E+01
    -10.354  0.3275E-02  0.7822E-05  0.2000E+01  0.2000E+01
    -10.293  0.1112E+02  0.1093E+02  0.2678E+01  0.2666E+01
    -10.232  0.2169E+02  0.2187E+02  0.4000E+01  0.4000E+01
    -10.171  0.1193E+00  0.3059E-02  0.4007E+01  0.4000E+01
    -10.110  0.3143E+02  0.2478E+02  0.5923E+01  0.5510E+01
    -10.049  0.2274E+02  0.2719E+02  0.7309E+01  0.7168E+01
     -9.988  0.3976E+00  0.2717E+01  0.7333E+01  0.7333E+01
     -9.927  0.1431E-08  0.5728E-13  0.7333E+01  0.7333E+01
     -9.866  0.1152E+02  0.6049E+01  0.8035E+01  0.7702E+01
     -9.805  0.1036E+02  0.1583E+02  0.8667E+01  0.8667E+01
     -9.745  0.1035E+02  0.8270E+01  0.9298E+01  0.9171E+01
     -9.684  0.5853E+00  0.2668E+01  0.9333E+01  0.9333E+01
     -9.623  0.4153E-03  0.1575E-05  0.9333E+01  0.9333E+01
     -9.562  0.2446E+02  0.1983E+02  0.1082E+02  0.1054E+02
     -9.501  0.1929E+02  0.2392E+02  0.1200E+02  0.1200E+02
     -9.440  0.0000E+00  0.0000E+00  0.1200E+02  0.1200E+02
     -9.379  0.0000E+00  0.0000E+00  0.1200E+02  0.1200E+02
     -9.318  0.2611E-13  0.0000E+00  0.1200E+02  0.1200E+02
     -9.257  0.1163E+02  0.2680E+01  0.1271E+02  0.1216E+02
     -9.196  0.1025E+02  0.1920E+02  0.1333E+02  0.1333E+02
     -9.135  0.2196E+02  0.2187E+02  0.1467E+02  0.1467E+02
     -9.074  0.1085E+02  0.1094E+02  0.1533E+02  0.1533E+02
     -9.013  0.0000E+00  0.0000E+00  0.1533E+02  0.1533E+02
     -8.952  0.0000E+00  0.0000E+00  0.1533E+02  0.1533E+02
     -8.891  0.4210E-07  0.2718E-10  0.1533E+02  0.1533E+02
     -8.830  0.1050E+02  0.8733E+01  0.1597E+02  0.1587E+02
     -8.769  0.9560E+00  0.2240E+01  0.1603E+02  0.1600E+02
     -8.708  0.1123E+02  0.1098E+02  0.1672E+02  0.1667E+02
     -8.647  0.2141E+02  0.1774E+02  0.1802E+02  0.1775E+02
     -8.586  0.6482E+01  0.9724E+01  0.1842E+02  0.1835E+02
     -8.526  0.3499E+01  0.3939E+01  0.1863E+02  0.1859E+02
     -8.465  0.2531E+02  0.1916E+02  0.2017E+02  0.1975E+02
     -8.404  0.5534E+01  0.1104E+02  0.2051E+02  0.2043E+02
     -8.343  0.1760E+02  0.1520E+02  0.2158E+02  0.2135E+02
     -8.282  0.2466E+02  0.2639E+02  0.2309E+02  0.2296E+02
     -8.221  0.5377E+01  0.6416E+01  0.2342E+02  0.2335E+02
     -8.160  0.1250E+02  0.1191E+02  0.2418E+02  0.2408E+02
     -8.099  0.1345E+02  0.1046E+02  0.2500E+02  0.2472E+02
     -8.038  0.2559E+02  0.2736E+02  0.2656E+02  0.2638E+02
     -7.977  0.3197E+02  0.2685E+02  0.2851E+02  0.2802E+02
     -7.916  0.1722E+02  0.2488E+02  0.2955E+02  0.2954E+02
     -7.855  0.9898E+01  0.8194E+01  0.3016E+02  0.3004E+02
     -7.794  0.2701E+02  0.2467E+02  0.3181E+02  0.3154E+02
     -7.733  0.1462E+02  0.1833E+02  0.3270E+02  0.3266E+02
     -7.672  0.1599E+02  0.1510E+02  0.3367E+02  0.3358E+02
     -7.611  0.2683E+02  0.2452E+02  0.3531E+02  0.3508E+02
     -7.550  0.2198E+02  0.2134E+02  0.3665E+02  0.3638E+02
     -7.489  0.2261E+02  0.2322E+02  0.3803E+02  0.3779E+02
     -7.428  0.8692E+01  0.1251E+02  0.3856E+02  0.3856E+02
     -7.367  0.1083E+02  0.7348E+01  0.3922E+02  0.3900E+02
     -7.306  0.4001E+02  0.3849E+02  0.4165E+02  0.4135E+02
     -7.246  0.2748E+02  0.2623E+02  0.4333E+02  0.4295E+02
     -7.185  0.2873E+02  0.3294E+02  0.4508E+02  0.4496E+02
     -7.124  0.1780E+02  0.1832E+02  0.4617E+02  0.4607E+02
     -7.063  0.2530E+02  0.2220E+02  0.4771E+02  0.4743E+02
     -7.002  0.2520E+02  0.2830E+02  0.4924E+02  0.4915E+02
     -6.941  0.2318E+02  0.1991E+02  0.5066E+02  0.5037E+02
     -6.880  0.2710E+02  0.3025E+02  0.5231E+02  0.5221E+02
     -6.819  0.2088E+02  0.1709E+02  0.5358E+02  0.5325E+02
     -6.758  0.3516E+02  0.3852E+02  0.5573E+02  0.5560E+02
     -6.697  0.3013E+02  0.3003E+02  0.5756E+02  0.5743E+02
     -6.636  0.3192E+02  0.3081E+02  0.5951E+02  0.5931E+02
     -6.575  0.1477E+02  0.1413E+02  0.6041E+02  0.6017E+02
     -6.514  0.2632E+02  0.2780E+02  0.6201E+02  0.6187E+02
     -6.453  0.3014E+02  0.2990E+02  0.6385E+02  0.6369E+02
     -6.392  0.2444E+02  0.2135E+02  0.6534E+02  0.6499E+02
     -6.331  0.4059E+02  0.4303E+02  0.6781E+02  0.6761E+02
     -6.270  0.2820E+02  0.2643E+02  0.6953E+02  0.6922E+02
     -6.209  0.2423E+02  0.2696E+02  0.7101E+02  0.7087E+02
     -6.148  0.3058E+02  0.3045E+02  0.7287E+02  0.7272E+02
     -6.087  0.3547E+02  0.3439E+02  0.7504E+02  0.7482E+02
     -6.027  0.3461E+02  0.3432E+02  0.7715E+02  0.7691E+02
     -5.966  0.3190E+02  0.3019E+02  0.7909E+02  0.7875E+02
     -5.905  0.2207E+02  0.2604E+02  0.8043E+02  0.8034E+02
     -5.844  0.2085E+02  0.2182E+02  0.8171E+02  0.8167E+02
     -5.783  0.2404E+02  0.2063E+02  0.8317E+02  0.8293E+02
     -5.722  0.2413E+02  0.2459E+02  0.8464E+02  0.8443E+02
     -5.661  0.2594E+02  0.2727E+02  0.8622E+02  0.8609E+02
     -5.600  0.2534E+02  0.2466E+02  0.8777E+02  0.8759E+02
     -5.539  0.2401E+02  0.2271E+02  0.8923E+02  0.8898E+02
     -5.478  0.2387E+02  0.2739E+02  0.9069E+02  0.9065E+02
     -5.417  0.1739E+02  0.1639E+02  0.9175E+02  0.9165E+02
     -5.356  0.2296E+02  0.1867E+02  0.9315E+02  0.9278E+02
     -5.295  0.2486E+02  0.2747E+02  0.9466E+02  0.9446E+02
     -5.234  0.2777E+02  0.2548E+02  0.9635E+02  0.9601E+02
     -5.173  0.2299E+02  0.2573E+02  0.9776E+02  0.9758E+02
     -5.112  0.3134E+02  0.3374E+02  0.9967E+02  0.9964E+02
     -5.051  0.1748E+02  0.1421E+02  0.1007E+03  0.1005E+03
     -4.990  0.2051E+02  0.2115E+02  0.1020E+03  0.1018E+03
     -4.929  0.1873E+02  0.1965E+02  0.1031E+03  0.1030E+03
     -4.868  0.1564E+02  0.1093E+02  0.1041E+03  0.1037E+03
     -4.807  0.2251E+02  0.2829E+02  0.1055E+03  0.1054E+03
     -4.747  0.1946E+02  0.1896E+02  0.1066E+03  0.1065E+03
     -4.686  0.3051E+02  0.2667E+02  0.1085E+03  0.1082E+03
     -4.625  0.2500E+02  0.2731E+02  0.1100E+03  0.1098E+03
     -4.564  0.3450E+02  0.3580E+02  0.1121E+03  0.1120E+03
     -4.503  0.2244E+02  0.2069E+02  0.1135E+03  0.1133E+03
     -4.442  0.2789E+02  0.2843E+02  0.1152E+03  0.1150E+03
     -4.381  0.1682E+02  0.1822E+02  0.1162E+03  0.1161E+03
     -4.320  0.2958E+02  0.3092E+02  0.1180E+03  0.1180E+03
     -4.259  0.1656E+02  0.1569E+02  0.1190E+03  0.1190E+03
     -4.198  0.2080E+02  0.1802E+02  0.1203E+03  0.1201E+03
     -4.137  0.1899E+02  0.1972E+02  0.1215E+03  0.1213E+03
     -4.076  0.2904E+02  0.2715E+02  0.1232E+03  0.1229E+03
     -4.015  0.3128E+02  0.3008E+02  0.1251E+03  0.1247E+03
     -3.954  0.2254E+02  0.2633E+02  0.1265E+03  0.1264E+03
     -3.893  0.1899E+02  0.2099E+02  0.1277E+03  0.1276E+03
     -3.832  0.1337E+02  0.7902E+01  0.1285E+03  0.1281E+03
     -3.771  0.2554E+02  0.2662E+02  0.1300E+03  0.1297E+03
     -3.710  0.2034E+02  0.2322E+02  0.1313E+03  0.1312E+03
     -3.649  0.3721E+02  0.3328E+02  0.1335E+03  0.1332E+03
     -3.588  0.1488E+02  0.1908E+02  0.1345E+03  0.1343E+03
     -3.528  0.2380E+02  0.2026E+02  0.1359E+03  0.1356E+03
     -3.467  0.2481E+02  0.2722E+02  0.1374E+03  0.1372E+03
     -3.406  0.3009E+02  0.2821E+02  0.1392E+03  0.1390E+03
     -3.345  0.2489E+02  0.2622E+02  0.1408E+03  0.1406E+03
     -3.284  0.2174E+02  0.2076E+02  0.1421E+03  0.1418E+03
     -3.223  0.3539E+02  0.3149E+02  0.1442E+03  0.1437E+03
     -3.162  0.2080E+02  0.2470E+02  0.1455E+03  0.1452E+03
     -3.101  0.2704E+02  0.2775E+02  0.1472E+03  0.1469E+03
     -3.040  0.2406E+02  0.2160E+02  0.1486E+03  0.1483E+03
     -2.979  0.2944E+02  0.3269E+02  0.1504E+03  0.1502E+03
     -2.918  0.3144E+02  0.3142E+02  0.1523E+03  0.1522E+03
     -2.857  0.2298E+02  0.2461E+02  0.1537E+03  0.1537E+03
     -2.796  0.3571E+02  0.3352E+02  0.1559E+03  0.1557E+03
     -2.735  0.2384E+02  0.2294E+02  0.1574E+03  0.1571E+03
     -2.674  0.2238E+02  0.2430E+02  0.1587E+03  0.1586E+03
     -2.613  0.1982E+02  0.1955E+02  0.1599E+03  0.1598E+03
     -2.552  0.2728E+02  0.2574E+02  0.1616E+03  0.1613E+03
     -2.491  0.1378E+02  0.1803E+02  0.1624E+03  0.1624E+03
     -2.430  0.3685E+02  0.3064E+02  0.1647E+03  0.1643E+03
     -2.369  0.2927E+02  0.3137E+02  0.1665E+03  0.1662E+03
     -2.309  0.2825E+02  0.2794E+02  0.1682E+03  0.1679E+03
     -2.248  0.1746E+02  0.1910E+02  0.1693E+03  0.1691E+03
     -2.187  0.2153E+02  0.1917E+02  0.1706E+03  0.1703E+03
     -2.126  0.3168E+02  0.3558E+02  0.1725E+03  0.1724E+03
     -2.065  0.2312E+02  0.1980E+02  0.1739E+03  0.1736E+03
     -2.004  0.1784E+02  0.1633E+02  0.1750E+03  0.1746E+03
     -1.943  0.1363E+02  0.1606E+02  0.1758E+03  0.1756E+03
     -1.882  0.2680E+02  0.2676E+02  0.1775E+03  0.1772E+03
     -1.821  0.2090E+02  0.2205E+02  0.1787E+03  0.1786E+03
     -1.760  0.2370E+02  0.2443E+02  0.1802E+03  0.1801E+03
     -1.699  0.2697E+02  0.2559E+02  0.1818E+03  0.1816E+03
     -1.638  0.1246E+02  0.1384E+02  0.1826E+03  0.1825E+03
     -1.577  0.1488E+02  0.1432E+02  0.1835E+03  0.1834E+03
     -1.516  0.1268E+02  0.1104E+02  0.1843E+03  0.1840E+03
     -1.455  0.1920E+02  0.2252E+02  0.1854E+03  0.1854E+03
     -1.394  0.1154E+02  0.8269E+01  0.1861E+03  0.1859E+03
     -1.333  0.2530E+02  0.2439E+02  0.1877E+03  0.1874E+03
     -1.272  0.1396E+02  0.1792E+02  0.1885E+03  0.1885E+03
     -1.211  0.9858E+01  0.8689E+01  0.1891E+03  0.1890E+03
     -1.150  0.2405E+02  0.2246E+02  0.1906E+03  0.1904E+03
     -1.089  0.1927E+02  0.1876E+02  0.1918E+03  0.1915E+03
     -1.029  0.1517E+02  0.1806E+02  0.1927E+03  0.1926E+03
     -0.968  0.2674E+02  0.2123E+02  0.1943E+03  0.1939E+03
     -0.907  0.2005E+02  0.2324E+02  0.1956E+03  0.1953E+03
     -0.846  0.3408E+02  0.3192E+02  0.1976E+03  0.1973E+03
     -0.785  0.4339E+02  0.4299E+02  0.2003E+03  0.1999E+03
     -0.724  0.3891E+02  0.3795E+02  0.2027E+03  0.2022E+03
     -0.663  0.3726E+02  0.3455E+02  0.2049E+03  0.2043E+03
     -0.602  0.4157E+02  0.4540E+02  0.2075E+03  0.2071E+03
     -0.541  0.4496E+02  0.4395E+02  0.2102E+03  0.2098E+03
     -0.480  0.3336E+02  0.3744E+02  0.2122E+03  0.2121E+03
     -0.419  0.3838E+02  0.4001E+02  0.2146E+03  0.2145E+03
     -0.358  0.1517E+02  0.1190E+02  0.2155E+03  0.2152E+03
     -0.297  0.5051E+02  0.4566E+02  0.2186E+03  0.2180E+03
     -0.236  0.4177E+02  0.4312E+02  0.2211E+03  0.2206E+03
     -0.175  0.3941E+02  0.4067E+02  0.2235E+03  0.2231E+03
     -0.114  0.4178E+02  0.4359E+02  0.2261E+03  0.2258E+03
     -0.053  0.3595E+02  0.3470E+02  0.2283E+03  0.2279E+03
      0.008  0.4690E+02  0.4670E+02  0.2311E+03  0.2307E+03
      0.069  0.4651E+02  0.4196E+02  0.2340E+03  0.2333E+03
      0.130  0.5275E+02  0.5475E+02  0.2372E+03  0.2366E+03
      0.190  0.2354E+02  0.2614E+02  0.2386E+03  0.2382E+03
      0.251  0.5361E+02  0.5352E+02  0.2419E+03  0.2415E+03
      0.312  0.3846E+02  0.3886E+02  0.2442E+03  0.2438E+03
      0.373  0.5266E+02  0.5601E+02  0.2474E+03  0.2473E+03
      0.434  0.4937E+02  0.4199E+02  0.2504E+03  0.2498E+03
      0.495  0.2823E+02  0.3490E+02  0.2522E+03  0.2519E+03
      0.556  0.4357E+02  0.4148E+02  0.2548E+03  0.2545E+03
      0.617  0.5721E+02  0.5080E+02  0.2583E+03  0.2576E+03
      0.678  0.4386E+02  0.4972E+02  0.2610E+03  0.2606E+03
      0.739  0.5281E+02  0.5106E+02  0.2642E+03  0.2637E+03
      0.800  0.4266E+02  0.4280E+02  0.2668E+03  0.2663E+03
      0.861  0.5637E+02  0.5406E+02  0.2702E+03  0.2696E+03
      0.922  0.4218E+02  0.4582E+02  0.2728E+03  0.2724E+03
      0.983  0.5893E+02  0.5567E+02  0.2764E+03  0.2758E+03
      1.044  0.4443E+02  0.4747E+02  0.2791E+03  0.2787E+03
      1.105  0.3690E+02  0.3419E+02  0.2814E+03  0.2808E+03
      1.166  0.4948E+02  0.5210E+02  0.2844E+03  0.2840E+03
      1.227  0.5914E+02  0.5811E+02  0.2880E+03  0.2875E+03
      1.288  0.5822E+02  0.6217E+02  0.2915E+03  0.2913E+03
      1.349  0.3494E+02  0.3620E+02  0.2937E+03  0.2935E+03
      1.409  0.3224E+02  0.3105E+02  0.2956E+03  0.2954E+03
      1.470  0.4456E+02  0.4258E+02  0.2983E+03  0.2980E+03
      1.531  0.4809E+02  0.4551E+02  0.3013E+03  0.3008E+03
      1.592  0.4079E+02  0.3939E+02  0.3038E+03  0.3032E+03
      1.653  0.3308E+02  0.3783E+02  0.3058E+03  0.3055E+03
      1.714  0.4807E+02  0.4687E+02  0.3087E+03  0.3083E+03
      1.775  0.4173E+02  0.4413E+02  0.3112E+03  0.3110E+03
      1.836  0.3324E+02  0.2531E+02  0.3133E+03  0.3126E+03
      1.897  0.4502E+02  0.5369E+02  0.3160E+03  0.3158E+03
      1.958  0.3181E+02  0.2452E+02  0.3180E+03  0.3173E+03
      2.019  0.3172E+02  0.3510E+02  0.3199E+03  0.3195E+03
      2.080  0.4996E+02  0.4950E+02  0.3229E+03  0.3225E+03
      2.141  0.4542E+02  0.4442E+02  0.3257E+03  0.3252E+03
      2.202  0.3785E+02  0.3412E+02  0.3280E+03  0.3273E+03
      2.263  0.4337E+02  0.4447E+02  0.3307E+03  0.3300E+03
      2.324  0.3940E+02  0.4796E+02  0.3331E+03  0.3329E+03
      2.385  0.3421E+02  0.2846E+02  0.3351E+03  0.3346E+03
      2.446  0.4072E+02  0.4002E+02  0.3376E+03  0.3371E+03
      2.507  0.3321E+02  0.3358E+02  0.3396E+03  0.3391E+03
      2.568  0.3995E+02  0.4087E+02  0.3421E+03  0.3416E+03
      2.629  0.3055E+02  0.3590E+02  0.3439E+03  0.3438E+03
      2.689  0.3545E+02  0.3344E+02  0.3461E+03  0.3458E+03
      2.750  0.4253E+02  0.4290E+02  0.3487E+03  0.3485E+03
      2.811  0.3077E+02  0.2545E+02  0.3506E+03  0.3500E+03
      2.872  0.3955E+02  0.4115E+02  0.3530E+03  0.3525E+03
      2.933  0.3932E+02  0.4072E+02  0.3554E+03  0.3550E+03
      2.994  0.4148E+02  0.3915E+02  0.3579E+03  0.3574E+03
      3.055  0.4241E+02  0.4023E+02  0.3605E+03  0.3598E+03
      3.116  0.3007E+02  0.3361E+02  0.3623E+03  0.3619E+03
      3.177  0.4075E+02  0.3681E+02  0.3648E+03  0.3641E+03
      3.238  0.3809E+02  0.3985E+02  0.3671E+03  0.3666E+03
      3.299  0.3002E+02  0.2947E+02  0.3690E+03  0.3684E+03
      3.360  0.4534E+02  0.4716E+02  0.3717E+03  0.3712E+03
      3.421  0.3839E+02  0.3476E+02  0.3741E+03  0.3734E+03
      3.482  0.3734E+02  0.3719E+02  0.3763E+03  0.3756E+03
      3.543  0.3470E+02  0.3519E+02  0.3785E+03  0.3778E+03
      3.604  0.2662E+02  0.3122E+02  0.3801E+03  0.3797E+03
      3.665  0.4086E+02  0.3412E+02  0.3826E+03  0.3817E+03
      3.726  0.3847E+02  0.4823E+02  0.3849E+03  0.3847E+03
      3.787  0.3631E+02  0.2155E+02  0.3871E+03  0.3860E+03
      3.848  0.3327E+02  0.4314E+02  0.3892E+03  0.3886E+03
      3.908  0.4036E+02  0.4227E+02  0.3916E+03  0.3912E+03
      3.969  0.2933E+02  0.2870E+02  0.3934E+03  0.3930E+03
      4.030  0.3288E+02  0.2956E+02  0.3954E+03  0.3948E+03
      4.091  0.2883E+02  0.3123E+02  0.3972E+03  0.3967E+03
      4.152  0.2723E+02  0.3209E+02  0.3988E+03  0.3986E+03
      4.213  0.4663E+02  0.3502E+02  0.4017E+03  0.4008E+03
      4.274  0.4045E+02  0.4288E+02  0.4041E+03  0.4034E+03
      4.335  0.4046E+02  0.4404E+02  0.4066E+03  0.4061E+03
      4.396  0.3652E+02  0.3862E+02  0.4088E+03  0.4084E+03
      4.457  0.4484E+02  0.4169E+02  0.4116E+03  0.4109E+03
      4.518  0.4198E+02  0.4272E+02  0.4141E+03  0.4136E+03
      4.579  0.3769E+02  0.4463E+02  0.4164E+03  0.4163E+03
      4.640  0.2367E+02  0.1991E+02  0.4179E+03  0.4175E+03
      4.701  0.2692E+02  0.3015E+02  0.4195E+03  0.4193E+03
      4.762  0.4001E+02  0.3333E+02  0.4219E+03  0.4214E+03
      4.823  0.3528E+02  0.3800E+02  0.4241E+03  0.4237E+03
      4.884  0.4049E+02  0.3918E+02  0.4266E+03  0.4261E+03
      4.945  0.2777E+02  0.2879E+02  0.4283E+03  0.4278E+03
      5.006  0.3700E+02  0.3954E+02  0.4305E+03  0.4302E+03
      5.067  0.4141E+02  0.3660E+02  0.4330E+03  0.4325E+03
      5.128  0.3047E+02  0.3033E+02  0.4349E+03  0.4343E+03
      5.188  0.3762E+02  0.4186E+02  0.4372E+03  0.4369E+03
      5.249  0.4845E+02  0.4408E+02  0.4401E+03  0.4395E+03
      5.310  0.3659E+02  0.3650E+02  0.4424E+03  0.4418E+03
      5.371  0.4068E+02  0.4023E+02  0.4448E+03  0.4442E+03
      5.432  0.4947E+02  0.5312E+02  0.4479E+03  0.4475E+03
      5.493  0.4610E+02  0.4726E+02  0.4507E+03  0.4503E+03
      5.554  0.5319E+02  0.4984E+02  0.4539E+03  0.4534E+03
      5.615  0.3308E+02  0.3825E+02  0.4559E+03  0.4557E+03
      5.676  0.5091E+02  0.4456E+02  0.4590E+03  0.4584E+03
      5.737  0.4758E+02  0.5473E+02  0.4619E+03  0.4618E+03
      5.798  0.1564E+02  0.1809E+02  0.4629E+03  0.4629E+03
      5.859  0.1823E+02  0.1128E+02  0.4640E+03  0.4636E+03
      5.920  0.0000E+00  0.7258E+01  0.4640E+03  0.4640E+03
      5.981  0.0000E+00  0.0000E+00  0.4640E+03  0.4640E+03
      6.042  0.0000E+00  0.0000E+00  0.4640E+03  0.4640E+03
      6.103  0.0000E+00  0.0000E+00  0.4640E+03  0.4640E+03
      6.164  0.0000E+00  0.0000E+00  0.4640E+03  0.4640E+03
      6.225  0.0000E+00  0.0000E+00  0.4640E+03  0.4640E+03
      6.286  0.0000E+00  0.0000E+00  0.4640E+03  0.4640E+03
      6.347  0.0000E+00  0.0000E+00  0.4640E+03  0.4640E+03
      6.407  0.0000E+00  0.0000E+00  0.4640E+03  0.4640E+03
      6.468  0.0000E+00  0.0000E+00  0.4640E+03  0.4640E+03
      6.529  0.0000E+00  0.0000E+00  0.4640E+03  0.4640E+03
      6.590  0.0000E+00  0.0000E+00  0.4640E+03  0.4640E+03
      6.651  0.0000E+00  0.0000E+00  0.4640E+03  0.4640E+03
      6.712  0.0000E+00  0.0000E+00  0.4640E+03  0.4640E+03
