 vasp.6.4.3 19Mar24 (build Oct 22 2024 11:23:12) complex                        
  
 executed on             LinuxIFC date 2025.06.04  07:49:32
 running   64 mpi-ranks, on    4 nodes
 distrk:  each k-point on   64 cores,    1 groups
 distr:  one band on NCORE=  16 cores,    4 groups


--------------------------------------------------------------------------------------------------------


 INCAR:
   SYSTEM = Si and Ge interface calculation
   ISTART = 0
   ICHARG = 2
   LWAVE = .FALSE.
   LREAL = AUTO
   ENCUT = 700
   ENAUG = 900
   ADDGRID = .TRUE.
   LMAXMIX = 6
   LASPH = .TRUE.
   LMIXTAU = .TRUE.
   NCORE = 16
   NELM = 100
   NBANDS = 231
   EDIFF = 1d-7
   AMIX = 0.6
   ISMEAR = 0
   SIGMA = 0.01
   NELECT = 384
   ISPIN = 2
   NUPDOWN = 1
   LVTOT = .FALSE.
   LVHAR = .TRUE.

 POTCAR:    PAW_PBE Ge 05Jan2001                  
 -----------------------------------------------------------------------------
|                                                                             |
|           W    W    AA    RRRRR   N    N  II  N    N   GGGG   !!!           |
|           W    W   A  A   R    R  NN   N  II  NN   N  G    G  !!!           |
|           W    W  A    A  R    R  N N  N  II  N N  N  G       !!!           |
|           W WW W  AAAAAA  RRRRR   N  N N  II  N  N N  G  GGG   !            |
|           WW  WW  A    A  R   R   N   NN  II  N   NN  G    G                |
|           W    W  A    A  R    R  N    N  II  N    N   GGGG   !!!           |
|                                                                             |
|     You use a magnetic or noncollinear calculation, but did not specify     |
|     the initial magnetic moment with the MAGMOM tag. Note that a            |
|     default of 0.01 will be used for all atoms. This ferromagnetic          |
|     setup may break the symmetry of the crystal, in particular it may       |
|     rule out finding an antiferromagnetic solution. Thence, we              |
|     recommend setting the initial magnetic moment manually or verifying     |
|     carefully that this magnetic setup is desired.                          |
|                                                                             |
 -----------------------------------------------------------------------------

 POTCAR:    PAW_PBE Ge 05Jan2001                  
   VRHFIN =Ge: s2p2                                                                                 
   LEXCH  = PE                                                                                      
   EATOM  =   104.9960 eV,    7.7170 Ry                                                             
                                                                                                    
   TITEL  = PAW_PBE Ge 05Jan2001                                                                    
   LULTRA =        F    use ultrasoft PP ?                                                          
   IUNSCR =        1    unscreen: 0-lin 1-nonlin 2-no                                               
   RPACOR =    2.170    partial core radius                                                         
   POMASS =   72.610; ZVAL   =    4.000    mass and valenz                                          
   RCORE  =    2.300    outmost cutoff radius                                                       
   RWIGS  =    2.300; RWIGS  =    1.217    wigner-seitz radius (au A)                               
   ENMAX  =  173.807; ENMIN  =  130.355 eV                                                          
   ICORE  =        3    local potential                                                             
   LCOR   =        T    correct aug charges                                                         
   LPAW   =        T    paw PP                                                                      
   EAUG   =  385.843                                                                                
   DEXC   =    0.000                                                                                
   RMAX   =    2.342    core radius for proj-oper                                                   
   RAUG   =    1.300    factor for augmentation sphere                                              
   RDEP   =    2.318    radius for radial grids                                                     
   RDEPT  =    2.103    core radius for aug-charge                                                  
                                                                                                    
   Atomic configuration                                                                             
   10 entries                                                                                       
     n  l   j            E        occ.                                                              
     1  0  0.50    -10959.8463   2.0000                                                             
     2  0  0.50     -1371.6056   2.0000                                                             
     2  1  1.50     -1198.4791   6.0000                                                             
     3  0  0.50      -168.4733   2.0000                                                             
     3  1  1.50      -115.6019   6.0000                                                             
     3  2  2.50       -29.3106  10.0000                                                             
     4  0  0.50       -11.7309   2.0000                                                             
     4  1  0.50        -3.8952   2.0000                                                             
     4  2  1.50        -4.0817   0.0000                                                             
     4  3  2.50        -4.0817   0.0000                                                             
   Description                                                                                      
     l       E           TYP  RCUT    TYP  RCUT                                                     
     0    -11.7309493     23  2.300                                                                 
     0     -7.4578696     23  2.300                                                                 
     1     -3.8952261     23  2.300                                                                 
     1      6.1178114     23  2.300                                                                 
     2     -4.0817478     23  2.300                                                                 
     3     -1.3605826      7  2.300                                                                 
  local pseudopotential read in
  partial core-charges read in
  partial kinetic energy density read in
  atomic valenz-charges read in
  non local Contribution for L=           0  read in
    real space projection operators read in
  non local Contribution for L=           0  read in
    real space projection operators read in
  non local Contribution for L=           1  read in
    real space projection operators read in
  non local Contribution for L=           1  read in
    real space projection operators read in
  non local Contribution for L=           2  read in
    real space projection operators read in
    PAW grid and wavefunctions read in
 
   number of l-projection  operators is LMAX  =           5
   number of lm-projection operators is LMMAX =          13
 
 Optimization of the real space projectors (new method)

 maximal supplied QI-value         = 16.25
 optimisation between [QCUT,QGAM] = [ 13.49, 26.98] = [ 50.95,203.80] Ry 
 Optimized for a Real-space Cutoff    1.25 Angstroem

   l    n(q)    QCUT    max X(q) W(low)/X(q) W(high)/X(q)  e(spline) 
   0     10    13.489    65.336    0.91E-04    0.11E-03    0.34E-06
   0     10    13.489    52.220    0.89E-04    0.11E-03    0.34E-06
   1     10    13.489    36.409    0.22E-03    0.27E-03    0.14E-06
   1     10    13.489    21.334    0.21E-03    0.27E-03    0.14E-06
   2      9    13.489     4.673    0.11E-03    0.12E-03    0.19E-06
  PAW_PBE Ge 05Jan2001                  :
 energy of atom  1       EATOM= -104.9960
 kinetic energy error for atom=    0.0001 (will be added to EATOM!!)
 
 
 POSCAR: Ge+Ge
  positions in direct lattice
  No initial velocities read in


 exchange-correlation table for PE
   RHO(1)=    0.500       N(1)  =     2000
   RHO(2)=  100.500       N(2)  =     4000
 


--------------------------------------------------------------------------------------------------------


 ion  position               nearest neighbor table
   1  0.643  0.044  0.500-  23 0.00  86 2.42  31 2.45  93 2.45  92 2.49  24 2.83
   2  0.993  0.948  0.000-  49 2.06  38 2.45  21 2.45  39 2.45  79 2.78
   3  0.951  0.656  0.084-  22 2.45  39 2.45  40 2.45
   4  0.909  0.365  0.168-  20 2.45  41 2.45  80 2.45  40 2.45
   5  0.868  0.073  0.252-  21 2.45  41 2.45  24 2.45  56 2.45
   6  0.826  0.781  0.336-  42 2.42  22 2.45  56 2.45  92 2.45  37 2.45
   7  0.268  0.669  0.500-  88 2.42  43 2.45  74 2.45
   8  0.493  0.448  0.000-  55 2.06  45 2.45  15 2.45  44 2.45  73 2.78
   9  0.451  0.156  0.084-  45 2.45  16 2.45  46 2.45
  10  0.409  0.865  0.168-  14 2.45  47 2.45  17 2.45  46 2.45
  11  0.368  0.573  0.252-  15 2.45  47 2.45  88 2.45  94 2.45
  12  0.326  0.281  0.336-  25 2.42  16 2.45  58 2.45  62 2.45  94 2.45  51 2.45
  13  0.101  0.253  0.584-  50 2.42  18 2.45  87 2.45  70 2.45  51 2.83
  14  0.368  0.823  0.000-  67 2.06  10 2.45  26 2.45  79 2.54  91 2.78  84 2.79
  15  0.326  0.531  0.084-  11 2.45  27 2.45   8 2.45  26 2.45  55 2.79
  16  0.284  0.240  0.168-  12 2.45  28 2.45   9 2.45  27 2.45
  17  0.243  0.948  0.252-  28 2.45  10 2.45  75 2.45
  18  0.934  0.336  0.668-  13 2.45  78 2.45  52 2.45  29 2.45
  19  0.018  0.919  0.500-  56 2.42  82 2.45  42 2.45
  20  0.868  0.323  0.000-  61 2.06   4 2.45  32 2.45  73 2.54  85 2.78  78 2.79
  21  0.826  0.031  0.084-   5 2.45   2 2.45  32 2.45  33 2.45  49 2.79
  22  0.784  0.740  0.168-   6 2.45   3 2.45  34 2.45  33 2.45
  23  0.643  0.044  0.500-   1 0.00  86 2.42  31 2.45  93 2.45  92 2.49  24 2.83
  24  0.701  0.156  0.336-  86 2.45   5 2.45  57 2.45   1 2.83  23 2.83
  25  0.393  0.294  0.500-  12 2.42  31 2.45  36 2.45  87 2.45  62 2.49  58 2.49  94 2.83
  26  0.243  0.698  0.000-  79 2.06  14 2.45  39 2.45  15 2.45  55 2.78
  27  0.201  0.406  0.084-  15 2.45  40 2.45  16 2.45
  28  0.159  0.115  0.168-  17 2.45  38 2.45  16 2.45  41 2.45
  29  0.851  0.503  0.584-  68 2.42  63 2.45  18 2.45  64 2.45  37 2.83
  30  0.076  0.531  0.336-  74 2.42  40 2.45  37 2.45  88 2.45  51 2.45
  31  0.476  0.128  0.584-  58 2.42  62 2.42  25 2.45  81 2.45   1 2.45  23 2.45  53 2.45
  32  0.743  0.198  0.000-  73 2.06  21 2.45  20 2.45  45 2.45  49 2.78
  33  0.701  0.906  0.084-  46 2.45  21 2.45  22 2.45
  34  0.659  0.615  0.168-  80 2.45  44 2.45  22 2.45  47 2.45
  35  0.601  0.753  0.584-  69 2.42  93 2.45  48 2.45  64 2.45  92 2.83
  36  0.518  0.419  0.500-  94 2.42  25 2.45  76 2.45
  37  0.909  0.615  0.420-  63 2.42  68 2.45   6 2.45  30 2.45  42 2.49  29 2.83
  38  0.118  0.073  0.000-  85 2.06   2 2.45  28 2.45  49 2.54  67 2.78  54 2.79
  39  0.076  0.781  0.084-  75 2.45   3 2.45  26 2.45   2 2.45  79 2.79
  40  0.034  0.490  0.168-  30 2.45  27 2.45   4 2.45   3 2.45
  41  0.993  0.198  0.252-   5 2.45   4 2.45  50 2.45  28 2.45
  42  0.893  0.794  0.500-   6 2.42  93 2.45  63 2.45  19 2.45  37 2.49  56 2.83
  43  0.309  0.711  0.668-   7 2.45  95 2.45  65 2.45  48 2.45
  44  0.618  0.573  0.000-  91 2.06  34 2.45   8 2.45  55 2.54  61 2.78  60 2.79
  45  0.576  0.281  0.084-   8 2.45   9 2.45  57 2.45  32 2.45  73 2.79
  46  0.534  0.990  0.168-  86 2.45  33 2.45  10 2.45   9 2.45
  47  0.493  0.698  0.252-  69 2.45  11 2.45  10 2.45  34 2.45
  48  0.434  0.836  0.668-  35 2.45  84 2.45  81 2.45  43 2.45
  49  0.934  0.086  0.920-   2 2.06  71 2.45  85 2.45  38 2.54  32 2.78  21 2.79
  50  0.034  0.240  0.420-  13 2.42  41 2.45  51 2.45
  51  0.159  0.365  0.420-  87 2.42  50 2.45  12 2.45  30 2.45  74 2.49  13 2.83
  52  0.809  0.211  0.668-  18 2.45  71 2.45  89 2.45
  53  0.518  0.169  0.752-  89 2.45  31 2.45  90 2.45  72 2.45
  54  0.226  0.128  0.836-  67 2.45  90 2.45  70 2.45  85 2.45  38 2.79
  55  0.434  0.586  0.920-   8 2.06  65 2.45  91 2.45  44 2.54  26 2.78  15 2.79
  56  0.951  0.906  0.336-  19 2.42  75 2.45   5 2.45   6 2.45  42 2.83
  57  0.618  0.323  0.252-  80 2.45  45 2.45  24 2.45  94 2.45
  58  0.409  0.115  0.420-  62 0.00  31 2.42  12 2.45  86 2.45  25 2.49  81 2.83
  59  0.018  0.669  0.752-  63 2.45  66 2.45  95 2.45  96 2.45
  60  0.726  0.628  0.836-  61 2.45  64 2.45  91 2.45  96 2.45  44 2.79
  61  0.809  0.461  0.920-  20 2.06  60 2.45  73 2.45  78 2.45  44 2.78
  62  0.409  0.115  0.420-  58 0.00  31 2.42  12 2.45  86 2.45  25 2.49  81 2.83
  63  0.976  0.628  0.584-  37 2.42  29 2.45  74 2.45  59 2.45  42 2.45
  64  0.684  0.586  0.668-  76 2.45  60 2.45  35 2.45  29 2.45
  65  0.393  0.544  0.752-  55 2.45  77 2.45  76 2.45  43 2.45
  66  0.101  0.503  0.836-  59 2.45  77 2.45  78 2.45
  67  0.309  0.961  0.920-  14 2.06  79 2.45  54 2.45  84 2.45  38 2.78
  68  0.784  0.490  0.420-  29 2.42  80 2.45  37 2.45
  69  0.534  0.740  0.420-  35 2.42  92 2.45  47 2.45
  70  0.184  0.086  0.668-  82 2.45  81 2.45  54 2.45  13 2.45
  71  0.893  0.044  0.752-  49 2.45  82 2.45  52 2.45  83 2.45
  72  0.601  0.003  0.836-  84 2.45  83 2.45  53 2.45
  73  0.684  0.336  0.920-  32 2.06  61 2.45  89 2.45  20 2.54   8 2.78  45 2.79
  74  0.143  0.544  0.500-  30 2.42  87 2.45   7 2.45  63 2.45  51 2.49  88 2.83
  75  0.118  0.823  0.252-  39 2.45  56 2.45  17 2.45  88 2.45
  76  0.559  0.461  0.668-  36 2.45  89 2.45  64 2.45  65 2.45
  77  0.268  0.419  0.752-  65 2.45  87 2.45  90 2.45  66 2.45
  78  0.976  0.378  0.836-  18 2.45  85 2.45  61 2.45  66 2.45  20 2.79
  79  0.184  0.836  0.920-  26 2.06  67 2.45  95 2.45  14 2.54   2 2.78  39 2.79
  80  0.743  0.448  0.252-  57 2.45  34 2.45  68 2.45   4 2.45
  81  0.351  0.003  0.584-  31 2.45  70 2.45  48 2.45  62 2.83  58 2.83
  82  0.059  0.961  0.668-  19 2.45  95 2.45  70 2.45  71 2.45
  83  0.768  0.919  0.752-  72 2.45  96 2.45  71 2.45  93 2.45
  84  0.476  0.878  0.836-  72 2.45  48 2.45  67 2.45  91 2.45  14 2.79
  85  0.059  0.211  0.920-  38 2.06  49 2.45  78 2.45  54 2.45  20 2.78
  86  0.576  0.031  0.336-   1 2.42  23 2.42  46 2.45  24 2.45  92 2.45  62 2.45  58 2.45
  87  0.226  0.378  0.584-  51 2.42  74 2.45  25 2.45  77 2.45  13 2.45
  88  0.201  0.656  0.336-   7 2.42  11 2.45  75 2.45  30 2.45  74 2.83
  89  0.643  0.294  0.752-  53 2.45  76 2.45  52 2.45  73 2.45
  90  0.351  0.253  0.836-  54 2.45  53 2.45  77 2.45
  91  0.559  0.711  0.920-  44 2.06  84 2.45  60 2.45  55 2.45  14 2.78
  92  0.659  0.865  0.420-  93 2.42  69 2.45   6 2.45  86 2.45  23 2.49   1 2.49  35 2.83
  93  0.726  0.878  0.584-  92 2.42  35 2.45  42 2.45  83 2.45   1 2.45  23 2.45
  94  0.451  0.406  0.336-  36 2.42  12 2.45  11 2.45  57 2.45  25 2.83
  95  0.143  0.794  0.752-  79 2.45  82 2.45  59 2.45  43 2.45
  96  0.851  0.753  0.836-  83 2.45  60 2.45  59 2.45
 
 -----------------------------------------------------------------------------
|                                                                             |
|           W    W    AA    RRRRR   N    N  II  N    N   GGGG   !!!           |
|           W    W   A  A   R    R  NN   N  II  NN   N  G    G  !!!           |
|           W    W  A    A  R    R  N N  N  II  N N  N  G       !!!           |
|           W WW W  AAAAAA  RRRRR   N  N N  II  N  N N  G  GGG   !            |
|           WW  WW  A    A  R   R   N   NN  II  N   NN  G    G                |
|           W    W  A    A  R    R  N    N  II  N    N   GGGG   !!!           |
|                                                                             |
|     The distance between some ions is very small. Please check the          |
|     nearest-neighbor list in the OUTCAR file.                               |
|     I HOPE YOU KNOW WHAT YOU ARE DOING!                                     |
|                                                                             |
 -----------------------------------------------------------------------------

  LATTYP: Found a base centered orthorhombic cell.
 ALAT       =    16.0026764918
 B/A-ratio  =     1.2247448613
 C/A-ratio  =     0.8583040932
  
  Lattice vectors:
  
 A1 = (  -2.5302453040, -12.3956203460,   0.0000000000)
 A2 = (  12.6512260440,   0.0000000000,   0.0000000000)
 A3 = (   0.0000000000,   0.0000000000,  13.7351627350)


Analysis of symmetry for initial positions (statically):
=====================================================================
 Subroutine PRICEL returns:
 Original cell was already a primitive cell.
 

 Routine SETGRP: Setting up the symmetry group for a 
 base centered orthorhombic supercell.


 Subroutine GETGRP returns: Found  2 space group operations
 (whereof  1 operations were pure point group operations)
 out of a pool of  8 trial point group operations.


The static configuration has the point symmetry C_1 .
 The point group associated with its full space group is S_2 .


Analysis of symmetry for dynamics (positions and initial velocities):
=====================================================================
 Subroutine PRICEL returns:
 Original cell was already a primitive cell.
 

 Routine SETGRP: Setting up the symmetry group for a 
 base centered orthorhombic supercell.


 Subroutine GETGRP returns: Found  2 space group operations
 (whereof  1 operations were pure point group operations)
 out of a pool of  8 trial point group operations.


The dynamic configuration has the point symmetry C_1 .
 The point group associated with its full space group is S_2 .


Analysis of structural, dynamic, and magnetic symmetry:
=====================================================================
 Subroutine PRICEL returns:
 Original cell was already a primitive cell.
 

 Routine SETGRP: Setting up the symmetry group for a 
 base centered orthorhombic supercell.


 Subroutine GETGRP returns: Found  2 space group operations
 (whereof  1 operations were pure point group operations)
 out of a pool of  8 trial point group operations.


The overall configuration has the point symmetry C_1 .
 The point group associated with its full space group is S_2 .


 Subroutine INISYM returns: Found  2 space group operations
 (whereof  1 operations are pure point group operations),
 and found     1 'primitive' translations


----------------------------------------------------------------------------------------

                                     Primitive cell                                     

  volume of cell :    2153.9454

  direct lattice vectors                    reciprocal lattice vectors
    12.651226044  0.000000000  0.000000000     0.079043722 -0.016134732  0.000000000
     2.530245304 12.395620346  0.000000000     0.000000000  0.080673655  0.000000000
     0.000000000  0.000000000 13.735162735     0.000000000  0.000000000  0.072805836

  length of vectors
    12.651226044 12.651227018 13.735162735     0.080673661  0.080673655  0.072805836

  position of ions in fractional coordinates (direct lattice)
     0.642576933  0.044177771  0.500000060
     0.992590368  0.948132515  0.000000023
     0.950923562  0.656465769  0.084083088
     0.909256816  0.364798903  0.168166161
     0.867590070  0.073132217  0.252249181
     0.825923324  0.781465530  0.336332172
     0.267577052  0.669177711  0.500000060
     0.492590368  0.448132515  0.000000028
     0.450923622  0.156465769  0.084083088
     0.409256876  0.864798963  0.168166161
     0.367590129  0.573132277  0.252249181
     0.325923383  0.281465530  0.336332232
     0.100910068  0.252510905  0.584083080
     0.367590398  0.823132634  0.000000012
     0.325923622  0.531465828  0.084083088
     0.284256876  0.239799008  0.168166190
     0.242590174  0.948132396  0.252249181
     0.934243441  0.335844189  0.668166161
     0.017577052  0.919177771  0.500000060
     0.867590487  0.323132575  0.000000012
     0.825923681  0.031465776  0.084083088
     0.784256876  0.739798903  0.168166161
     0.642576933  0.044177771  0.500000060
     0.700923383  0.156465530  0.336332172
     0.392576933  0.294177651  0.500000060
     0.242590353  0.698132634  0.000000000
     0.200923592  0.406465799  0.084083080
     0.159256846  0.114798956  0.168166161
     0.850910246  0.502510905  0.584083080
     0.075923339  0.531465530  0.336332172
     0.475910217  0.127511024  0.584083080
     0.742590427  0.198132515  0.000000021
     0.700923622  0.906465709  0.084083095
     0.659256876  0.614798903  0.168166161
     0.600910187  0.752510905  0.584083080
     0.517576933  0.419177681  0.500000060
     0.909256577  0.614798784  0.420415312
     0.117590360  0.073132515  0.000000021
     0.075923599  0.781465769  0.084083088
     0.034256846  0.489798963  0.168166161
     0.992590070  0.198132217  0.252249181
     0.892576933  0.794177651  0.500000060
     0.309243441  0.710844219  0.668166161
     0.617590487  0.573132575  0.000000012
     0.575923622  0.281465828  0.084083080
     0.534256935  0.989799023  0.168166190
     0.492590189  0.698132277  0.252249241
     0.434243560  0.835844278  0.668166161
     0.934243083  0.085843921  0.920415342
     0.034256559  0.239798784  0.420415282
     0.159256637  0.364798784  0.420415312
     0.809243441  0.210844159  0.668166161
     0.517576694  0.169177413  0.752249241
     0.225909948  0.127510667  0.836332321
     0.434243083  0.585843921  0.920415342
     0.950923383  0.906465530  0.336332232
     0.617590249  0.323132336  0.252249181
     0.409256607  0.114798844  0.420415312
     0.017576694  0.669177413  0.752249241
     0.725909948  0.627510667  0.836332321
     0.809243202  0.460843980  0.920415342
     0.409256607  0.114798844  0.420415312
     0.975910306  0.627510905  0.584083080
     0.684243500  0.585844219  0.668166161
     0.392576814  0.544177473  0.752249241
     0.100910068  0.502510726  0.836332321
     0.309243083  0.960843921  0.920415282
     0.784256577  0.489798665  0.420415282
     0.534256697  0.739798665  0.420415312
     0.184243441  0.085844159  0.668166161
     0.892576814  0.044177532  0.752249241
     0.600909948  0.002510667  0.836332321
     0.684243202  0.335843891  0.920415342
     0.142577052  0.544177651  0.500000060
     0.117590085  0.823132396  0.252249151
     0.559243500  0.460844159  0.668166161
     0.267576814  0.419177413  0.752249181
     0.975909948  0.377510667  0.836332262
     0.184243083  0.835844040  0.920415342
     0.742590129  0.448132336  0.252249181
     0.350910187  0.002511024  0.584083080
     0.059243441  0.960844159  0.668166161
     0.767576694  0.919177532  0.752249241
     0.475909919  0.877510786  0.836332321
     0.059243083  0.210843921  0.920415342
     0.575923443  0.031465471  0.336332172
     0.225910187  0.377510905  0.584083080
     0.200923383  0.656465650  0.336332232
     0.642576694  0.294177413  0.752249181
     0.350909948  0.252510667  0.836332321
     0.559243202  0.710844040  0.920415342
     0.659256577  0.864798665  0.420415282
     0.725910187  0.877510905  0.584083080
     0.450923443  0.406465530  0.336332262
     0.142576694  0.794177532  0.752249241
     0.850909948  0.752510786  0.836332321

  ion indices of the primitive-cell ions
   primitive index   ion index
                 1           1
                 2           2
                 3           3
                 4           4
                 5           5
                 6           6
                 7           7
                 8           8
                 9           9
                10          10
                11          11
                12          12
                13          13
                14          14
                15          15
                16          16
                17          17
                18          18
                19          19
                20          20
                21          21
                22          22
                23          23
                24          24
                25          25
                26          26
                27          27
                28          28
                29          29
                30          30
                31          31
                32          32
                33          33
                34          34
                35          35
                36          36
                37          37
                38          38
                39          39
                40          40
                41          41
                42          42
                43          43
                44          44
                45          45
                46          46
                47          47
                48          48
                49          49
                50          50
                51          51
                52          52
                53          53
                54          54
                55          55
                56          56
                57          57
                58          58
                59          59
                60          60
                61          61
                62          62
                63          63
                64          64
                65          65
                66          66
                67          67
                68          68
                69          69
                70          70
                71          71
                72          72
                73          73
                74          74
                75          75
                76          76
                77          77
                78          78
                79          79
                80          80
                81          81
                82          82
                83          83
                84          84
                85          85
                86          86
                87          87
                88          88
                89          89
                90          90
                91          91
                92          92
                93          93
                94          94
                95          95
                96          96

----------------------------------------------------------------------------------------

 
 
 KPOINTS: Automatic KPOINTS generated             

Automatic generation of k-mesh.
 Grid dimensions read from file:
 generate k-points for:    3    3    2

 Generating k-lattice:

  Cartesian coordinates                     Fractional coordinates (reciprocal lattice)
     0.026347907 -0.005378244  0.000000000     0.333333333  0.000000000  0.000000000
     0.000000000  0.026891218  0.000000000     0.000000000  0.333333333  0.000000000
     0.000000000  0.000000000  0.036402918     0.000000000  0.000000000  0.500000000

  Length of vectors
     0.026891220  0.026891218  0.036402918

  Shift w.r.t. Gamma in fractional coordinates (k-lattice)
     0.000000000  0.000000000  0.000000000

 
 Subroutine IBZKPT returns following result:
 ===========================================
 
 Found     10 irreducible k-points:
 
 Following reciprocal coordinates:
            Coordinates               Weight
  0.000000  0.000000  0.000000      1.000000
  0.333333  0.000000  0.000000      2.000000
  0.000000 -0.333333  0.000000      2.000000
  0.333333  0.333333  0.000000      2.000000
 -0.333333  0.333333  0.000000      2.000000
  0.000000  0.000000  0.500000      1.000000
  0.333333  0.000000  0.500000      2.000000
  0.000000 -0.333333  0.500000      2.000000
  0.333333  0.333333  0.500000      2.000000
 -0.333333  0.333333  0.500000      2.000000
 
 Following cartesian coordinates:
            Coordinates               Weight
  0.000000  0.000000  0.000000      1.000000
  0.026348 -0.005378  0.000000      2.000000
  0.000000 -0.026891  0.000000      2.000000
  0.026348  0.021513  0.000000      2.000000
 -0.026348  0.032269  0.000000      2.000000
  0.000000  0.000000  0.036403      1.000000
  0.026348 -0.005378  0.036403      2.000000
  0.000000 -0.026891  0.036403      2.000000
  0.026348  0.021513  0.036403      2.000000
 -0.026348  0.032269  0.036403      2.000000
 
 -----------------------------------------------------------------------------
|                                                                             |
|           W    W    AA    RRRRR   N    N  II  N    N   GGGG   !!!           |
|           W    W   A  A   R    R  NN   N  II  NN   N  G    G  !!!           |
|           W    W  A    A  R    R  N N  N  II  N N  N  G       !!!           |
|           W WW W  AAAAAA  RRRRR   N  N N  II  N  N N  G  GGG   !            |
|           WW  WW  A    A  R   R   N   NN  II  N   NN  G    G                |
|           W    W  A    A  R    R  N    N  II  N    N   GGGG   !!!           |
|                                                                             |
|     The number of bands has been changed from the values supplied in        |
|     the INCAR file. This is a result of running the parallel version.       |
|     The orbitals not found in the WAVECAR file will be initialized with     |
|     random numbers, which is usually adequate. For correlated               |
|     calculations, however, you should redo the groundstate calculation.     |
|     I found NBANDS = 231. Now, NBANDS = 232.                                |
|                                                                             |
 -----------------------------------------------------------------------------



--------------------------------------------------------------------------------------------------------




 Dimension of arrays:
   k-points           NKPTS =     10   k-points in BZ     NKDIM =     10   number of bands    NBANDS=    232
   number of dos      NEDOS =    301   number of ions     NIONS =     96
   non local maximal  LDIM  =      5   non local SUM 2l+1 LMDIM =     13
   total plane-waves  NPLWV = 635040
   max r-space proj   IRMAX =   2439   max aug-charges    IRDMAX= 128376
   dimension x,y,z NGX =    84 NGY =   84 NGZ =   90
   dimension x,y,z NGXF=   168 NGYF=  168 NGZF=  180
   support grid    NGXF=   336 NGYF=  336 NGZF=  360
   ions per type =              96
   NGX,Y,Z   is equivalent  to a cutoff of  11.04, 11.04, 10.89 a.u.
   NGXF,Y,Z  is equivalent  to a cutoff of  22.08, 22.08, 21.79 a.u.

 SYSTEM =  Si and Ge interface calculation         
 POSCAR =  Ge+Ge                                   

 Startparameter for this run:
   NWRITE =      2    write-flag & timer
   PREC   = normal    normal or accurate (medium, high low for compatibility)
   ISTART =      0    job   : 0-new  1-cont  2-samecut
   ICHARG =      2    charge: 1-file 2-atom 10-const
   ISPIN  =      2    spin polarized calculation?
   LNONCOLLINEAR =      F non collinear calculations
   LSORBIT =      F    spin-orbit coupling
   INIWAV =      1    electr: 0-lowe 1-rand  2-diag
   LASPH  =      T    aspherical Exc in radial PAW
 Electronic Relaxation 1
   ENCUT  =  700.0 eV  51.45 Ry    7.17 a.u.  27.29 27.29 29.63*2*pi/ulx,y,z
   ENINI  =  700.0     initial cutoff
   ENAUG  =  900.0 eV  augmentation charge cutoff
   NELM   =    100;   NELMIN=  2; NELMDL= -5     # of ELM steps 
   EDIFF  = 0.1E-06   stopping-criterion for ELM
   LREAL  =      T    real-space projection
   NLSPLINE    = F    spline interpolate recip. space projectors
   LCOMPAT=      F    compatible to vasp.4.4
   GGA_COMPAT  = T    GGA compatible to vasp.4.4-vasp.4.6
   LMAXPAW     = -100 max onsite density
   LMAXMIX     =    6 max onsite mixed and CHGCAR
   VOSKOWN=      0    Vosko Wilk Nusair interpolation
   ROPT   =   -0.00050
 Ionic relaxation
   EDIFFG = 0.1E-05   stopping-criterion for IOM
   NSW    =      0    number of steps for IOM
   NBLOCK =      1;   KBLOCK =      1    inner block; outer block 
   IBRION =     -1    ionic relax: 0-MD 1-quasi-New 2-CG
   NFREE  =      0    steps in history (QN), initial steepest desc. (CG)
   ISIF   =      2    stress and relaxation
   IWAVPR =     10    prediction:  0-non 1-charg 2-wave 3-comb
   ISYM   =      2    0-nonsym 1-usesym 2-fastsym
   LCORR  =      T    Harris-Foulkes like correction to forces

   POTIM  = 0.5000    time-step for ionic-motion
   TEIN   =    0.0    initial temperature
   TEBEG  =    0.0;   TEEND  =   0.0 temperature during run
   SMASS  =  -3.00    Nose mass-parameter (am)
   estimated Nose-frequenzy (Omega)   =  0.10E-29 period in steps = 0.13E+47 mass=  -0.366E-26a.u.
   SCALEE = 1.0000    scale energy and forces
   NPACO  =    256;   APACO  = 10.0  distance and # of slots for P.C.
   PSTRESS=    0.0 pullay stress

  Mass of Ions in am
   POMASS =  72.61
  Ionic Valenz
   ZVAL   =   4.00
  Atomic Wigner-Seitz radii
   RWIGS  =  -1.00
  virtual crystal weights 
   VCA    =   1.00
   NELECT =     384.0000    total number of electrons
   NUPDOWN=       1.0000    fix difference up-down

 DOS related values:
   EMIN   =  10.00;   EMAX   =-10.00  energy-range for DOS
   EFERMI =   0.00;   METHOD = LEGACY      
   ISMEAR =     0;   SIGMA  =   0.01  broadening in eV -4-tet -1-fermi 0-gaus

 Electronic relaxation 2 (details)
   IALGO  =     38    algorithm
   LDIAG  =      T    sub-space diagonalisation (order eigenvalues)
   LSUBROT=      F    optimize rotation matrix (better conditioning)
   TURBO    =      0    0=normal 1=particle mesh
   IRESTART =      0    0=no restart 2=restart with 2 vectors
   NREBOOT  =      0    no. of reboots
   NMIN     =      0    reboot dimension
   EREF     =   0.00    reference energy to select bands
   IMIX   =      4    mixing-type and parameters
     AMIX     =   0.60;   BMIX     =  1.00
     AMIX_MAG =   2.40;   BMIX_MAG =  1.00
     AMIN     =   0.10
     WC   =   100.;   INIMIX=   1;  MIXPRE=   1;  MAXMIX= -45

 Intra band minimization:
   WEIMIN = 0.0000     energy-eigenvalue tresh-hold
   EBREAK =  0.11E-09  absolut break condition
   DEPER  =   0.30     relativ break condition  

   TIME   =   0.40     timestep for ELM

  volume/ion in A,a.u.               =      22.44       151.41
  Fermi-wavevector in a.u.,A,eV,Ry     =   0.921383  1.741162 11.550628  0.848947
  Thomas-Fermi vector in A             =   2.046794
 
 Write flags
   LWAVE        =      F    write WAVECAR
   LDOWNSAMPLE  =      F    k-point downsampling of WAVECAR
   LCHARG       =      T    write CHGCAR
   LVTOT        =      F    write LOCPOT, total local potential
   LVHAR        =      T    write LOCPOT, Hartree potential only
   WRT_POTENTIAL=  hartree ionic  ! write potential to hdf5 file
   LELF         =      F    write electronic localiz. function (ELF)
   LORBIT       =      0    0 simple, 1 ext, 2 COOP (PROOUT), +10 PAW based schemes


 Dipole corrections
   LMONO      =      F    monopole corrections only (constant potential shift)
   LDIPOL     =      F    correct potential (dipole corrections)
   IDIPOL     =      0    1-x, 2-y, 3-z, 4-all directions 
   EPSILON    =  1.0000000 bulk dielectric constant
   LVACPOTAV  =      F  vacuum potentials using an averaging scheme for the charge density
   VACPOTFLAT =  0.1000000 required flatness to determine vacuum potential
 Exchange correlation treatment:
   GGA     = PE    functional components
   XC_C    = 1    coefficients multiplying the functional components
   LIBXC   =     F    Libxc                    
   VOSKOWN =     0    Vosko Wilk Nusair interpolation
   LHFCALC =     F    Hartree Fock is set to
   LHFONE  =     F    Hartree Fock one center treatment
   AEXX    =    0.0000 exact exchange contribution

 Parameters of functionals:
   PE:
     No parameter
 
 Van der Waals corrections
   IVDW    =     0    specifies the selected vdW correction

 Linear response parameters
   LEPSILON=     F    determine dielectric tensor
   LRPA    =     F    only Hartree local field effects (RPA)
   LNABLA  =     F    use nabla operator in PAW spheres
   LVEL    =     F    velocity operator in full k-point grid
   CSHIFT  =0.1000    complex shift for real part using Kramers Kronig
   OMEGAMAX=  -1.0    maximum frequency
   DEG_THRESHOLD= 0.2000000E-02 threshold for treating states as degnerate
   RTIME   =   -0.100 relaxation time in fs
  (WPLASMAI=    0.000 imaginary part of plasma frequency in eV, 0.658/RTIME)
   DFIELD  = 0.0000000 0.0000000 0.0000000 field for delta impulse in time
 
  Optional k-point grid parameters
   LKPOINTS_OPT  =     F    use optional k-point grid
   KPOINTS_OPT_MODE=     1    mode for optional k-point grid
 
 Orbital magnetization related:
   ORBITALMAG=     F  switch on orbital magnetization
   LCHIMAG   =     F  perturbation theory with respect to B field
   DQ        =  0.001000  dq finite difference perturbation B field
   LLRAUG    =     F  two centre corrections for induced B field
   LBONE     =     F  B-component reconstruction in AE one-centre
   LVGVCALC  =     T  calculate vGv susceptibility
   LVGVAPPL  =     F  apply vGv susceptibility instead of pGv for G=0

 Random number generation:
   RANDOM_GENERATOR = DEFAULT
   PCG_SEED         = not used


--------------------------------------------------------------------------------------------------------


 Static calculation
 charge density and potential will be updated during run
 spin polarized calculation
 Variant of blocked Davidson
 Davidson routine will perform the subspace rotation
 perform sub-space diagonalisation
    after iterative eigenvector-optimisation
 modified Broyden-mixing scheme, WC =      100.0
 initial mixing is a Kerker type mixing with AMIX =  0.6000 and BMIX =      1.0000
 Hartree-type preconditioning will be used
 using additional bands           40
 real space projection scheme for non local part
 use partial core corrections
 calculate Harris-corrections to forces 
   (improved forces if not selfconsistent)
 use gradient corrections 
 use of overlap-Matrix (Vanderbilt PP)
 Gauss-broadening in eV      SIGMA  =   0.01


--------------------------------------------------------------------------------------------------------


  energy-cutoff  :      700.00
  volume of cell :     2153.95
      direct lattice vectors                 reciprocal lattice vectors
    12.651226044  0.000000000  0.000000000     0.079043722 -0.016134732  0.000000000
     2.530245304 12.395620346  0.000000000     0.000000000  0.080673655  0.000000000
     0.000000000  0.000000000 13.735162735     0.000000000  0.000000000  0.072805836

  length of vectors
    12.651226044 12.651227018 13.735162735     0.080673661  0.080673655  0.072805836


 
 k-points in units of 2pi/SCALE and weight: Automatic KPOINTS generated             
   0.00000000  0.00000000  0.00000000       0.056
   0.02634791 -0.00537824  0.00000000       0.111
   0.00000000 -0.02689122  0.00000000       0.111
   0.02634791  0.02151297  0.00000000       0.111
  -0.02634791  0.03226946  0.00000000       0.111
   0.00000000  0.00000000  0.03640292       0.056
   0.02634791 -0.00537824  0.03640292       0.111
   0.00000000 -0.02689122  0.03640292       0.111
   0.02634791  0.02151297  0.03640292       0.111
  -0.02634791  0.03226946  0.03640292       0.111
 
 k-points in reciprocal lattice and weights: Automatic KPOINTS generated             
   0.00000000  0.00000000  0.00000000       0.056
   0.33333333  0.00000000  0.00000000       0.111
   0.00000000 -0.33333333  0.00000000       0.111
   0.33333333  0.33333333  0.00000000       0.111
  -0.33333333  0.33333333  0.00000000       0.111
   0.00000000  0.00000000  0.50000000       0.056
   0.33333333  0.00000000  0.50000000       0.111
   0.00000000 -0.33333333  0.50000000       0.111
   0.33333333  0.33333333  0.50000000       0.111
  -0.33333333  0.33333333  0.50000000       0.111
 
 position of ions in fractional coordinates (direct lattice) 
   0.64257693  0.04417777  0.50000006
   0.99259037  0.94813251  0.00000002
   0.95092356  0.65646577  0.08408309
   0.90925682  0.36479890  0.16816616
   0.86759007  0.07313222  0.25224918
   0.82592332  0.78146553  0.33633217
   0.26757705  0.66917771  0.50000006
   0.49259037  0.44813251  0.00000003
   0.45092362  0.15646577  0.08408309
   0.40925688  0.86479896  0.16816616
   0.36759013  0.57313228  0.25224918
   0.32592338  0.28146553  0.33633223
   0.10091007  0.25251091  0.58408308
   0.36759040  0.82313263  0.00000001
   0.32592362  0.53146583  0.08408309
   0.28425688  0.23979901  0.16816619
   0.24259017  0.94813240  0.25224918
   0.93424344  0.33584419  0.66816616
   0.01757705  0.91917777  0.50000006
   0.86759049  0.32313258  0.00000001
   0.82592368  0.03146578  0.08408309
   0.78425688  0.73979890  0.16816616
   0.64257693  0.04417777  0.50000006
   0.70092338  0.15646553  0.33633217
   0.39257693  0.29417765  0.50000006
   0.24259035  0.69813263  0.00000000
   0.20092359  0.40646580  0.08408308
   0.15925685  0.11479896  0.16816616
   0.85091025  0.50251091  0.58408308
   0.07592334  0.53146553  0.33633217
   0.47591022  0.12751102  0.58408308
   0.74259043  0.19813251  0.00000002
   0.70092362  0.90646571  0.08408309
   0.65925688  0.61479890  0.16816616
   0.60091019  0.75251091  0.58408308
   0.51757693  0.41917768  0.50000006
   0.90925658  0.61479878  0.42041531
   0.11759036  0.07313251  0.00000002
   0.07592360  0.78146577  0.08408309
   0.03425685  0.48979896  0.16816616
   0.99259007  0.19813222  0.25224918
   0.89257693  0.79417765  0.50000006
   0.30924344  0.71084422  0.66816616
   0.61759049  0.57313258  0.00000001
   0.57592362  0.28146583  0.08408308
   0.53425694  0.98979902  0.16816619
   0.49259019  0.69813228  0.25224924
   0.43424356  0.83584428  0.66816616
   0.93424308  0.08584392  0.92041534
   0.03425656  0.23979878  0.42041528
   0.15925664  0.36479878  0.42041531
   0.80924344  0.21084416  0.66816616
   0.51757669  0.16917741  0.75224924
   0.22590995  0.12751067  0.83633232
   0.43424308  0.58584392  0.92041534
   0.95092338  0.90646553  0.33633223
   0.61759025  0.32313234  0.25224918
   0.40925661  0.11479884  0.42041531
   0.01757669  0.66917741  0.75224924
   0.72590995  0.62751067  0.83633232
   0.80924320  0.46084398  0.92041534
   0.40925661  0.11479884  0.42041531
   0.97591031  0.62751091  0.58408308
   0.68424350  0.58584422  0.66816616
   0.39257681  0.54417747  0.75224924
   0.10091007  0.50251073  0.83633232
   0.30924308  0.96084392  0.92041528
   0.78425658  0.48979867  0.42041528
   0.53425670  0.73979867  0.42041531
   0.18424344  0.08584416  0.66816616
   0.89257681  0.04417753  0.75224924
   0.60090995  0.00251067  0.83633232
   0.68424320  0.33584389  0.92041534
   0.14257705  0.54417765  0.50000006
   0.11759009  0.82313240  0.25224915
   0.55924350  0.46084416  0.66816616
   0.26757681  0.41917741  0.75224918
   0.97590995  0.37751067  0.83633226
   0.18424308  0.83584404  0.92041534
   0.74259013  0.44813234  0.25224918
   0.35091019  0.00251102  0.58408308
   0.05924344  0.96084416  0.66816616
   0.76757669  0.91917753  0.75224924
   0.47590992  0.87751079  0.83633232
   0.05924308  0.21084392  0.92041534
   0.57592344  0.03146547  0.33633217
   0.22591019  0.37751091  0.58408308
   0.20092338  0.65646565  0.33633223
   0.64257669  0.29417741  0.75224918
   0.35090995  0.25251067  0.83633232
   0.55924320  0.71084404  0.92041534
   0.65925658  0.86479867  0.42041528
   0.72591019  0.87751091  0.58408308
   0.45092344  0.40646553  0.33633226
   0.14257669  0.79417753  0.75224924
   0.85090995  0.75251079  0.83633232
 
 position of ions in cartesian coordinates  (Angst):
   8.24116663  0.54761088  6.86758219
  14.95649296 11.75269069  0.00000032
  13.69136836  8.13730044  1.15489490
  12.42624422  4.52190870  2.30978959
  11.16112054  0.90651920  3.46468355
  12.42624215  9.68675002  4.61957712
   5.07836153  8.29487285  6.86758219
   7.36575728  5.55488052  0.00000038
   6.10063345  1.93949027  1.15489490
   7.36575476 10.71971962  2.30978959
   6.10063107  7.10433011  3.46468355
   4.83550723  3.48893985  4.61957794
   1.91555061  3.13002931  8.02247615
   6.73319670 10.20323963  0.00000016
   5.46807233  6.58784863  1.15489490
   4.20294831  2.97245746  2.30978999
   5.46807067 11.75268922  3.46468355
  12.66909313  4.16299706  9.17737096
   2.54811650 11.39377868  6.86758219
  11.79368805  4.00542872  0.00000016
  10.52856332  0.39003781  1.15489490
  11.79368372  9.17026633  2.30978959
   8.24116663  0.54761088  6.86758219
   9.26343633  1.93948731  4.61957712
   5.71092114  3.64651448  6.86758219
   4.83551221  8.65378708  0.00000000
   3.57038796  5.03839573  1.15489479
   2.30526388  1.42300427  2.30978959
  12.03653372  6.22893440  8.02247615
   2.30526149  6.58784494  4.61957712
   6.34348190  1.58057824  8.02247615
   9.89600322  2.45597543  0.00000029
  11.16112378 11.23620479  1.15489499
   9.89599980  7.62081379  2.30978959
   9.50628779  9.32783948  8.02247615
   7.60860513  5.19596739  6.86758219
  13.05880222  7.62081232  5.77447273
   1.67270543  0.90652289  0.00000029
   2.93782671  9.68675299  1.15489490
   1.67270263  6.07136199  2.30978959
  13.05880446  2.45597174  3.46468355
  13.30165681  9.84432465  6.86758219
   5.71091892  8.81135506  9.17737096
   9.26344286  7.10433381  0.00000016
   7.99831752  3.48894354  1.15489479
   9.26343958 12.26917291  2.30978999
   7.99831574  8.65378266  3.46468437
   7.60860449 10.36080834  9.17737096
  12.03652660  1.06408865 12.64205451
   1.04013722  2.97245469  5.77447231
   2.93782212  4.52190723  5.77447273
  10.77140914  2.61354415  9.17737096
   6.97604011  2.09705898 10.33226574
   3.18067108  1.58057382 11.48716053
   6.97603623  7.26189883 12.64205451
  14.32392682 11.23620257  4.61957794
   8.63087792  4.00542576  3.46468355
   5.46806708  1.42300289  5.77447273
   1.91554974  8.29486916 10.33226574
  10.77140676  7.77838399 11.48716053
  11.40396699  5.71244701 12.64205451
   5.46806708  1.42300289  5.77447273
  13.93421840  7.77838694  8.02247615
  10.13884877  7.26190252  9.17737096
   6.34348051  6.74541736 10.33226574
   2.54811149  6.22893218 11.48716053
   6.34347496 11.91025646 12.64205368
  11.16111800  6.07135830  5.77447231
   8.63087434  9.17026338  5.77447273
   2.54811220  1.06409160  9.17737096
  11.40397103  0.54760791 10.33226574
   7.60860019  0.03112127 11.48716053
   9.50628285  4.16299337 12.64205451
   3.18067746  6.74541956  6.86758219
   3.57038563 10.20323668  3.46468314
   8.24116470  5.71244923  9.17737096
   4.44579644  5.19596407 10.33226492
  13.30165194  4.67947890 11.48715972
   4.44579135 10.36080539 12.64205451
  10.52856032  5.55487830  3.46468355
   4.44579760  0.03112570  8.02247615
   3.18067358 11.91025941  9.17737096
  12.03653090 11.39377572 10.33226574
   8.24116151 10.87729055 11.48716053
   1.28298448  2.61354120 12.64205451
   7.36575302  0.39003403  4.61957712
   3.81323604  4.67948185  8.02247615
   4.20294626  8.13729897  4.61957794
   8.87372402  3.64651153 10.33226492
   5.07835500  3.13002636 11.48716053
   8.87372196  8.81135285 12.64205451
  10.52855674 10.71971593  5.77447231
  11.40397171 10.87729203  8.02247615
   6.73319190  5.03839239  4.61957835
   3.81323396  9.84432317 10.33226574
  12.66909098  9.32783801 11.48716053
 


--------------------------------------------------------------------------------------------------------


 k-point     1 :   0.0000 0.0000 0.0000  plane waves:   90687
 k-point     2 :   0.3333 0.0000 0.0000  plane waves:   90569
 k-point     3 :   0.0000-0.3333 0.0000  plane waves:   90569
 k-point     4 :   0.3333 0.3333 0.0000  plane waves:   90606
 k-point     5 :  -0.3333 0.3333 0.0000  plane waves:   90612
 k-point     6 :   0.0000 0.0000 0.5000  plane waves:   90564
 k-point     7 :   0.3333 0.0000 0.5000  plane waves:   90584
 k-point     8 :   0.0000-0.3333 0.5000  plane waves:   90584
 k-point     9 :   0.3333 0.3333 0.5000  plane waves:   90560
 k-point    10 :  -0.3333 0.3333 0.5000  plane waves:   90536

 maximum and minimum number of plane-waves per node :      5722     5599

 maximum number of plane-waves:     90687
 maximum index in each direction: 
   IXMAX=   27   IYMAX=   27   IZMAX=   29
   IXMIN=  -27   IYMIN=  -27   IZMIN=  -30


 real space projection operators:
  total allocation   :      22624.88 KBytes
  max/ min on nodes  :       1626.83       1332.80


 parallel 3D FFT for wavefunctions:
    minimum data exchange during FFTs selected (reduces bandwidth)
 parallel 3D FFT for charge:
    minimum data exchange during FFTs selected (reduces bandwidth)


 total amount of memory used by VASP MPI-rank0   167714. kBytes
=======================================================================

   base      :      30000. kBytes
   nonlr-proj:       5947. kBytes
   fftplans  :      14309. kBytes
   grid      :      10233. kBytes
   one-center:         97. kBytes
   wavefun   :     107128. kBytes
 
     INWAV:  cpu time      0.0000: real time      0.0001
 Broyden mixing: mesh for mixing (old mesh)
   NGX = 55   NGY = 55   NGZ = 59
  (NGX  =168   NGY  =168   NGZ  =180)
  gives a total of 178475 points

 initial charge density was supplied:
 charge density of overlapping atoms calculated
 number of electron     384.0000000 magnetization       1.0000000
 keeping initial charge density in first step


--------------------------------------------------------------------------------------------------------


 Maximum index for non-local projection operator          395
 Maximum index for augmentation-charges         5543 (set IRDMAX)


--------------------------------------------------------------------------------------------------------


 First call to EWALD:  gamma=   0.137
 Maximum number of real-space cells 3x 3x 3
 Maximum number of reciprocal cells 3x 3x 3

    FEWALD:  cpu time      0.0025: real time      0.0025


--------------------------------------- Ionic step        1  -------------------------------------------




--------------------------------------- Iteration      1(   1)  ---------------------------------------


    POTLOK:  cpu time      0.1791: real time      0.1806
    SETDIJ:  cpu time      1.5095: real time      1.5159
     EDDAV:  cpu time     19.2972: real time     19.4577
       DOS:  cpu time      0.0023: real time      0.0023
    --------------------------------------------
      LOOP:  cpu time     20.9882: real time     21.1567

 eigenvalue-minimisations  :  9280
 total energy-change (2. order) : 0.1689130E+04  (-0.1694510E+05)
 number of electron     384.0000000 magnetization       1.0000000
 augmentation part      384.0000000 magnetization       1.0000000

 Free energy of the ion-electron system (eV)
  ---------------------------------------------------
  alpha Z        PSCENC =       817.79019152
  Ewald energy   TEWEN  =    -10078.12888516
  -Hartree energ DENC   =     -1244.68279973
  -exchange      EXHF   =         0.00000000
  -V(xc)+E(xc)   XCENC  =      -724.34258819
  PAW double counting   =      8461.93788731    -7071.13096423
  entropy T*S    EENTRO =        -0.00156796
  eigenvalues    EBANDS =      1448.08182218
  atomic energy  EATOM  =     10079.60734648
  Solvation  Ediel_sol  =         0.00000000
  ---------------------------------------------------
  free energy    TOTEN  =      1689.13044222 eV

  energy without entropy =     1689.13201018  energy(sigma->0) =     1689.13122620


--------------------------------------------------------------------------------------------------------




--------------------------------------- Iteration      1(   2)  ---------------------------------------


     EDDAV:  cpu time     21.6394: real time     21.8161
       DOS:  cpu time      0.0018: real time      0.0018
    --------------------------------------------
      LOOP:  cpu time     21.6411: real time     21.8179

 eigenvalue-minimisations  : 10832
 total energy-change (2. order) :-0.2125653E+04  (-0.2057668E+04)
 number of electron     384.0000000 magnetization       1.0000000
 augmentation part      384.0000000 magnetization       1.0000000

 Free energy of the ion-electron system (eV)
  ---------------------------------------------------
  alpha Z        PSCENC =       817.79019152
  Ewald energy   TEWEN  =    -10078.12888516
  -Hartree energ DENC   =     -1244.68279973
  -exchange      EXHF   =         0.00000000
  -V(xc)+E(xc)   XCENC  =      -724.34258819
  PAW double counting   =      8461.93788731    -7071.13096423
  entropy T*S    EENTRO =        -0.00213624
  eigenvalues    EBANDS =      -677.57057596
  atomic energy  EATOM  =     10079.60734648
  Solvation  Ediel_sol  =         0.00000000
  ---------------------------------------------------
  free energy    TOTEN  =      -436.52252419 eV

  energy without entropy =     -436.52038796  energy(sigma->0) =     -436.52145607


--------------------------------------------------------------------------------------------------------




--------------------------------------- Iteration      1(   3)  ---------------------------------------


     EDDAV:  cpu time     22.6233: real time     22.8096
       DOS:  cpu time      0.0020: real time      0.0020
    --------------------------------------------
      LOOP:  cpu time     22.6253: real time     22.8116

 eigenvalue-minimisations  : 11472
 total energy-change (2. order) :-0.2215788E+03  (-0.2129158E+03)
 number of electron     384.0000000 magnetization       1.0000000
 augmentation part      384.0000000 magnetization       1.0000000

 Free energy of the ion-electron system (eV)
  ---------------------------------------------------
  alpha Z        PSCENC =       817.79019152
  Ewald energy   TEWEN  =    -10078.12888516
  -Hartree energ DENC   =     -1244.68279973
  -exchange      EXHF   =         0.00000000
  -V(xc)+E(xc)   XCENC  =      -724.34258819
  PAW double counting   =      8461.93788731    -7071.13096423
  entropy T*S    EENTRO =        -0.00196851
  eigenvalues    EBANDS =      -899.14950572
  atomic energy  EATOM  =     10079.60734648
  Solvation  Ediel_sol  =         0.00000000
  ---------------------------------------------------
  free energy    TOTEN  =      -658.10128623 eV

  energy without entropy =     -658.09931772  energy(sigma->0) =     -658.10030198


--------------------------------------------------------------------------------------------------------




--------------------------------------- Iteration      1(   4)  ---------------------------------------


     EDDAV:  cpu time     22.2519: real time     22.4342
       DOS:  cpu time      0.0018: real time      0.0018
    --------------------------------------------
      LOOP:  cpu time     22.2537: real time     22.4360

 eigenvalue-minimisations  : 11176
 total energy-change (2. order) :-0.9783305E+01  (-0.9437931E+01)
 number of electron     384.0000000 magnetization       1.0000000
 augmentation part      384.0000000 magnetization       1.0000000

 Free energy of the ion-electron system (eV)
  ---------------------------------------------------
  alpha Z        PSCENC =       817.79019152
  Ewald energy   TEWEN  =    -10078.12888516
  -Hartree energ DENC   =     -1244.68279973
  -exchange      EXHF   =         0.00000000
  -V(xc)+E(xc)   XCENC  =      -724.34258819
  PAW double counting   =      8461.93788731    -7071.13096423
  entropy T*S    EENTRO =        -0.00169250
  eigenvalues    EBANDS =      -908.93308670
  atomic energy  EATOM  =     10079.60734648
  Solvation  Ediel_sol  =         0.00000000
  ---------------------------------------------------
  free energy    TOTEN  =      -667.88459120 eV

  energy without entropy =     -667.88289870  energy(sigma->0) =     -667.88374495


--------------------------------------------------------------------------------------------------------




--------------------------------------- Iteration      1(   5)  ---------------------------------------


     EDDAV:  cpu time     23.5543: real time     23.7485
       DOS:  cpu time      0.0018: real time      0.0018
    CHARGE:  cpu time      1.0881: real time      1.0947
    MIXING:  cpu time      0.0040: real time      0.0040
    --------------------------------------------
      LOOP:  cpu time     24.6482: real time     24.8491

 eigenvalue-minimisations  : 12144
 total energy-change (2. order) :-0.4501691E+00  (-0.4449996E+00)
 number of electron     383.9999997 magnetization       1.0000000
 augmentation part      -62.7528991 magnetization      -0.0754696

 Broyden mixing:
  rms(total) = 0.49550E+01    rms(broyden)= 0.49550E+01
  rms(prec ) = 0.52846E+01
  weight for this iteration     100.00

 Free energy of the ion-electron system (eV)
  ---------------------------------------------------
  alpha Z        PSCENC =       817.79019152
  Ewald energy   TEWEN  =    -10078.12888516
  -Hartree energ DENC   =     -1244.68279973
  -exchange      EXHF   =         0.00000000
  -V(xc)+E(xc)   XCENC  =      -724.34258819
  PAW double counting   =      8461.93788731    -7071.13096423
  entropy T*S    EENTRO =        -0.00156968
  eigenvalues    EBANDS =      -909.38337865
  atomic energy  EATOM  =     10079.60734648
  Solvation  Ediel_sol  =         0.00000000
  ---------------------------------------------------
  free energy    TOTEN  =      -668.33476033 eV

  energy without entropy =     -668.33319065  energy(sigma->0) =     -668.33397549


--------------------------------------------------------------------------------------------------------




--------------------------------------- Iteration      1(   6)  ---------------------------------------


    POTLOK:  cpu time      0.1609: real time      0.1621
    SETDIJ:  cpu time      1.4919: real time      1.4985
     EDDAV:  cpu time     21.8288: real time     22.0091
       DOS:  cpu time      0.0018: real time      0.0018
    CHARGE:  cpu time      1.0893: real time      1.0968
    MIXING:  cpu time      0.0038: real time      0.0039
    --------------------------------------------
      LOOP:  cpu time     24.5766: real time     24.7722

 eigenvalue-minimisations  : 10928
 total energy-change (2. order) :-0.4544540E+01  (-0.2158373E+02)
 number of electron     383.9999997 magnetization       1.0000000
 augmentation part      -62.9181332 magnetization      -0.1023996

 Broyden mixing:
  rms(total) = 0.21650E+01    rms(broyden)= 0.21650E+01
  rms(prec ) = 0.37540E+01
  weight for this iteration     100.00

 eigenvalues of (default mixing * dielectric matrix)
  average eigenvalue GAMMA=   1.1958
  1.1958

 Free energy of the ion-electron system (eV)
  ---------------------------------------------------
  alpha Z        PSCENC =       817.79019152
  Ewald energy   TEWEN  =    -10078.12888516
  -Hartree energ DENC   =     -1379.60955478
  -exchange      EXHF   =         0.00000000
  -V(xc)+E(xc)   XCENC  =      -710.22588812
  PAW double counting   =     16755.14515240   -15387.06371487
  entropy T*S    EENTRO =        -0.00223831
  eigenvalues    EBANDS =      -770.39170918
  atomic energy  EATOM  =     10079.60734648
  Solvation  Ediel_sol  =         0.00000000
  ---------------------------------------------------
  free energy    TOTEN  =      -672.87930002 eV

  energy without entropy =     -672.87706171  energy(sigma->0) =     -672.87818086


--------------------------------------------------------------------------------------------------------




--------------------------------------- Iteration      1(   7)  ---------------------------------------


    POTLOK:  cpu time      0.1549: real time      0.1559
    SETDIJ:  cpu time      1.4965: real time      1.5027
     EDDAV:  cpu time     24.8711: real time     25.0754
       DOS:  cpu time      0.0017: real time      0.0017
    CHARGE:  cpu time      1.1224: real time      1.1297
    MIXING:  cpu time      0.0037: real time      0.0037
    --------------------------------------------
      LOOP:  cpu time     27.6503: real time     27.8692

 eigenvalue-minimisations  : 12888
 total energy-change (2. order) : 0.2099279E+02  (-0.4102232E+01)
 number of electron     383.9999997 magnetization       1.0000000
 augmentation part      -62.0461017 magnetization      -0.0781809

 Broyden mixing:
  rms(total) = 0.22545E+01    rms(broyden)= 0.22545E+01
  rms(prec ) = 0.28250E+01
  weight for this iteration     100.00

 eigenvalues of (default mixing * dielectric matrix)
  average eigenvalue GAMMA=   1.2608
  2.0943  0.4274

 Free energy of the ion-electron system (eV)
  ---------------------------------------------------
  alpha Z        PSCENC =       817.79019152
  Ewald energy   TEWEN  =    -10078.12888516
  -Hartree energ DENC   =     -1331.75861788
  -exchange      EXHF   =         0.00000000
  -V(xc)+E(xc)   XCENC  =      -706.26864640
  PAW double counting   =     19635.74871270   -18266.64060911
  entropy T*S    EENTRO =        -0.00114871
  eigenvalues    EBANDS =      -802.23485741
  atomic energy  EATOM  =     10079.60734648
  Solvation  Ediel_sol  =         0.00000000
  ---------------------------------------------------
  free energy    TOTEN  =      -651.88651397 eV

  energy without entropy =     -651.88536527  energy(sigma->0) =     -651.88593962


--------------------------------------------------------------------------------------------------------




--------------------------------------- Iteration      1(   8)  ---------------------------------------


    POTLOK:  cpu time      0.1548: real time      0.1562
    SETDIJ:  cpu time      1.4943: real time      1.5005
     EDDAV:  cpu time     21.5123: real time     21.6912
       DOS:  cpu time      0.0018: real time      0.0018
    CHARGE:  cpu time      1.0837: real time      1.0908
    MIXING:  cpu time      0.0041: real time      0.0042
    --------------------------------------------
      LOOP:  cpu time     24.2510: real time     24.4446

 eigenvalue-minimisations  : 10760
 total energy-change (2. order) : 0.1530800E+01  (-0.2876322E+01)
 number of electron     383.9999997 magnetization       1.0000000
 augmentation part      -62.3772575 magnetization      -0.0792380

 Broyden mixing:
  rms(total) = 0.82992E+00    rms(broyden)= 0.82992E+00
  rms(prec ) = 0.12325E+01
  weight for this iteration     100.00

 eigenvalues of (default mixing * dielectric matrix)
  average eigenvalue GAMMA=   1.0835
  2.1444  0.5530  0.5530

 Free energy of the ion-electron system (eV)
  ---------------------------------------------------
  alpha Z        PSCENC =       817.79019152
  Ewald energy   TEWEN  =    -10078.12888516
  -Hartree energ DENC   =     -1355.76990532
  -exchange      EXHF   =         0.00000000
  -V(xc)+E(xc)   XCENC  =      -698.27351054
  PAW double counting   =     27522.99912541   -26163.24877639
  entropy T*S    EENTRO =        -0.00211584
  eigenvalues    EBANDS =      -775.32918410
  atomic energy  EATOM  =     10079.60734648
  Solvation  Ediel_sol  =         0.00000000
  ---------------------------------------------------
  free energy    TOTEN  =      -650.35571395 eV

  energy without entropy =     -650.35359811  energy(sigma->0) =     -650.35465603


--------------------------------------------------------------------------------------------------------




--------------------------------------- Iteration      1(   9)  ---------------------------------------


    POTLOK:  cpu time      0.1532: real time      0.1556
    SETDIJ:  cpu time      1.4935: real time      1.4996
     EDDAV:  cpu time     22.3589: real time     22.5424
       DOS:  cpu time      0.0030: real time      0.0031
    CHARGE:  cpu time      1.0906: real time      1.0979
    MIXING:  cpu time      0.0058: real time      0.0058
    --------------------------------------------
      LOOP:  cpu time     25.1050: real time     25.3043

 eigenvalue-minimisations  : 11288
 total energy-change (2. order) : 0.1448524E+01  (-0.9128063E+00)
 number of electron     383.9999997 magnetization       1.0000000
 augmentation part      -62.6728428 magnetization      -0.0857144

 Broyden mixing:
  rms(total) = 0.26092E+00    rms(broyden)= 0.26092E+00
  rms(prec ) = 0.31190E+00
  weight for this iteration     100.00

 eigenvalues of (default mixing * dielectric matrix)
  average eigenvalue GAMMA=   1.0101
  2.1759  0.4537  0.7053  0.7053

 Free energy of the ion-electron system (eV)
  ---------------------------------------------------
  alpha Z        PSCENC =       817.79019152
  Ewald energy   TEWEN  =    -10078.12888516
  -Hartree energ DENC   =     -1372.16943809
  -exchange      EXHF   =         0.00000000
  -V(xc)+E(xc)   XCENC  =      -697.04773719
  PAW double counting   =     29251.12791486   -27894.05361599
  entropy T*S    EENTRO =        -0.00170769
  eigenvalues    EBANDS =      -756.03125848
  atomic energy  EATOM  =     10079.60734648
  Solvation  Ediel_sol  =         0.00000000
  ---------------------------------------------------
  free energy    TOTEN  =      -648.90718975 eV

  energy without entropy =     -648.90548207  energy(sigma->0) =     -648.90633591


--------------------------------------------------------------------------------------------------------




--------------------------------------- Iteration      1(  10)  ---------------------------------------


    POTLOK:  cpu time      0.1538: real time      0.1550
    SETDIJ:  cpu time      1.4939: real time      1.5002
     EDDAV:  cpu time     21.0995: real time     21.2738
       DOS:  cpu time      0.0017: real time      0.0017
    CHARGE:  cpu time      1.0860: real time      1.0929
    MIXING:  cpu time      0.0056: real time      0.0056
    --------------------------------------------
      LOOP:  cpu time     23.8405: real time     24.0293

 eigenvalue-minimisations  : 10504
 total energy-change (2. order) :-0.5042933E-01  (-0.1829585E+00)
 number of electron     383.9999997 magnetization       1.0000000
 augmentation part      -62.7180773 magnetization      -0.0838220

 Broyden mixing:
  rms(total) = 0.11477E+00    rms(broyden)= 0.11477E+00
  rms(prec ) = 0.14512E+00
  weight for this iteration     100.00

 eigenvalues of (default mixing * dielectric matrix)
  average eigenvalue GAMMA=   1.0562
  1.9625  1.5843  0.6852  0.5246  0.5246

 Free energy of the ion-electron system (eV)
  ---------------------------------------------------
  alpha Z        PSCENC =       817.79019152
  Ewald energy   TEWEN  =    -10078.12888516
  -Hartree energ DENC   =     -1369.39525739
  -exchange      EXHF   =         0.00000000
  -V(xc)+E(xc)   XCENC  =      -697.47293313
  PAW double counting   =     28964.94600201   -27606.62495502
  entropy T*S    EENTRO =        -0.00140248
  eigenvalues    EBANDS =      -759.67772590
  atomic energy  EATOM  =     10079.60734648
  Solvation  Ediel_sol  =         0.00000000
  ---------------------------------------------------
  free energy    TOTEN  =      -648.95761908 eV

  energy without entropy =     -648.95621660  energy(sigma->0) =     -648.95691784


--------------------------------------------------------------------------------------------------------




--------------------------------------- Iteration      1(  11)  ---------------------------------------


    POTLOK:  cpu time      0.1537: real time      0.1553
    SETDIJ:  cpu time      1.4969: real time      1.5032
     EDDAV:  cpu time     21.1384: real time     21.3117
       DOS:  cpu time      0.0018: real time      0.0018
    CHARGE:  cpu time      1.0825: real time      1.0895
    MIXING:  cpu time      0.0057: real time      0.0058
    --------------------------------------------
      LOOP:  cpu time     23.8791: real time     24.0674

 eigenvalue-minimisations  : 10536
 total energy-change (2. order) : 0.3668542E-01  (-0.2953893E-01)
 number of electron     383.9999997 magnetization       1.0000000
 augmentation part      -62.7180363 magnetization      -0.0857306

 Broyden mixing:
  rms(total) = 0.46991E-01    rms(broyden)= 0.46991E-01
  rms(prec ) = 0.69696E-01
  weight for this iteration     100.00

 eigenvalues of (default mixing * dielectric matrix)
  average eigenvalue GAMMA=   1.0349
  1.9165  1.5491  1.1164  0.4768  0.5754  0.5754

 Free energy of the ion-electron system (eV)
  ---------------------------------------------------
  alpha Z        PSCENC =       817.79019152
  Ewald energy   TEWEN  =    -10078.12888516
  -Hartree energ DENC   =     -1366.56927307
  -exchange      EXHF   =         0.00000000
  -V(xc)+E(xc)   XCENC  =      -698.15576855
  PAW double counting   =     28384.26381977   -27024.48126800
  entropy T*S    EENTRO =        -0.00150106
  eigenvalues    EBANDS =      -763.24559558
  atomic energy  EATOM  =     10079.60734648
  Solvation  Ediel_sol  =         0.00000000
  ---------------------------------------------------
  free energy    TOTEN  =      -648.92093366 eV

  energy without entropy =     -648.91943260  energy(sigma->0) =     -648.92018313


--------------------------------------------------------------------------------------------------------




--------------------------------------- Iteration      1(  12)  ---------------------------------------


    POTLOK:  cpu time      0.1545: real time      0.1556
    SETDIJ:  cpu time      1.4941: real time      1.5010
     EDDAV:  cpu time     22.3241: real time     22.5073
       DOS:  cpu time      0.0019: real time      0.0019
    CHARGE:  cpu time      1.0787: real time      1.0856
    MIXING:  cpu time      0.0044: real time      0.0045
    --------------------------------------------
      LOOP:  cpu time     25.0578: real time     25.2559

 eigenvalue-minimisations  : 11336
 total energy-change (2. order) : 0.3563063E-02  (-0.6541473E-02)
 number of electron     383.9999997 magnetization       1.0000000
 augmentation part      -62.7434811 magnetization      -0.0841713

 Broyden mixing:
  rms(total) = 0.28310E-01    rms(broyden)= 0.28310E-01
  rms(prec ) = 0.33040E-01
  weight for this iteration     100.00

 eigenvalues of (default mixing * dielectric matrix)
  average eigenvalue GAMMA=   0.9811
  1.8630  1.6017  1.2505  0.5630  0.5630  0.4697  0.5571

 Free energy of the ion-electron system (eV)
  ---------------------------------------------------
  alpha Z        PSCENC =       817.79019152
  Ewald energy   TEWEN  =    -10078.12888516
  -Hartree energ DENC   =     -1367.68885829
  -exchange      EXHF   =         0.00000000
  -V(xc)+E(xc)   XCENC  =      -698.16446742
  PAW double counting   =     28348.88817848   -26989.19588837
  entropy T*S    EENTRO =        -0.00142230
  eigenvalues    EBANDS =      -762.02356554
  atomic energy  EATOM  =     10079.60734648
  Solvation  Ediel_sol  =         0.00000000
  ---------------------------------------------------
  free energy    TOTEN  =      -648.91737060 eV

  energy without entropy =     -648.91594829  energy(sigma->0) =     -648.91665945


--------------------------------------------------------------------------------------------------------




--------------------------------------- Iteration      1(  13)  ---------------------------------------


    POTLOK:  cpu time      0.1537: real time      0.1549
    SETDIJ:  cpu time      1.4958: real time      1.5020
     EDDAV:  cpu time     21.2312: real time     21.4077
       DOS:  cpu time      0.0019: real time      0.0019
    CHARGE:  cpu time      1.0910: real time      1.0981
    MIXING:  cpu time      0.0045: real time      0.0046
    --------------------------------------------
      LOOP:  cpu time     23.9782: real time     24.1692

 eigenvalue-minimisations  : 10560
 total energy-change (2. order) : 0.3640660E-03  (-0.1335015E-02)
 number of electron     383.9999997 magnetization       1.0000000
 augmentation part      -62.7371825 magnetization      -0.0850076

 Broyden mixing:
  rms(total) = 0.13198E-01    rms(broyden)= 0.13198E-01
  rms(prec ) = 0.14459E-01
  weight for this iteration     100.00

 eigenvalues of (default mixing * dielectric matrix)
  average eigenvalue GAMMA=   1.0131
  1.8959  1.8959  1.0986  1.0986  0.5811  0.5811  0.4768  0.4768

 Free energy of the ion-electron system (eV)
  ---------------------------------------------------
  alpha Z        PSCENC =       817.79019152
  Ewald energy   TEWEN  =    -10078.12888516
  -Hartree energ DENC   =     -1367.66118416
  -exchange      EXHF   =         0.00000000
  -V(xc)+E(xc)   XCENC  =      -698.19990592
  PAW double counting   =     28288.53068272   -26928.70248636
  entropy T*S    EENTRO =        -0.00144597
  eigenvalues    EBANDS =      -762.15131968
  atomic energy  EATOM  =     10079.60734648
  Solvation  Ediel_sol  =         0.00000000
  ---------------------------------------------------
  free energy    TOTEN  =      -648.91700653 eV

  energy without entropy =     -648.91556057  energy(sigma->0) =     -648.91628355


--------------------------------------------------------------------------------------------------------




--------------------------------------- Iteration      1(  14)  ---------------------------------------


    POTLOK:  cpu time      0.1539: real time      0.1550
    SETDIJ:  cpu time      1.4995: real time      1.5058
     EDDAV:  cpu time     22.5249: real time     22.7123
       DOS:  cpu time      0.0018: real time      0.0018
    CHARGE:  cpu time      1.0889: real time      1.0961
    MIXING:  cpu time      0.0049: real time      0.0049
    --------------------------------------------
      LOOP:  cpu time     25.2739: real time     25.4760

 eigenvalue-minimisations  : 11384
 total energy-change (2. order) : 0.1318031E-03  (-0.3329870E-03)
 number of electron     383.9999997 magnetization       1.0000000
 augmentation part      -62.7311533 magnetization      -0.0846259

 Broyden mixing:
  rms(total) = 0.80172E-02    rms(broyden)= 0.80172E-02
  rms(prec ) = 0.98687E-02
  weight for this iteration     100.00

 eigenvalues of (default mixing * dielectric matrix)
  average eigenvalue GAMMA=   1.0055
  1.8226  1.8226  1.5029  0.8958  0.8958  0.5854  0.5854  0.4693  0.4693

 Free energy of the ion-electron system (eV)
  ---------------------------------------------------
  alpha Z        PSCENC =       817.79019152
  Ewald energy   TEWEN  =    -10078.12888516
  -Hartree energ DENC   =     -1367.71596147
  -exchange      EXHF   =         0.00000000
  -V(xc)+E(xc)   XCENC  =      -698.22082160
  PAW double counting   =     28254.26636031   -26894.35751224
  entropy T*S    EENTRO =        -0.00145905
  eigenvalues    EBANDS =      -762.15613351
  atomic energy  EATOM  =     10079.60734648
  Solvation  Ediel_sol  =         0.00000000
  ---------------------------------------------------
  free energy    TOTEN  =      -648.91687473 eV

  energy without entropy =     -648.91541568  energy(sigma->0) =     -648.91614521


--------------------------------------------------------------------------------------------------------




--------------------------------------- Iteration      1(  15)  ---------------------------------------


    POTLOK:  cpu time      0.1540: real time      0.1552
    SETDIJ:  cpu time      1.4966: real time      1.5030
     EDDAV:  cpu time     22.0169: real time     22.2004
       DOS:  cpu time      0.0017: real time      0.0018
    CHARGE:  cpu time      1.1000: real time      1.1072
    MIXING:  cpu time      0.0141: real time      0.0141
    --------------------------------------------
      LOOP:  cpu time     24.7833: real time     24.9816

 eigenvalue-minimisations  : 11064
 total energy-change (2. order) : 0.3013751E-05  (-0.7842347E-04)
 number of electron     383.9999997 magnetization       1.0000000
 augmentation part      -62.7343913 magnetization      -0.0849325

 Broyden mixing:
  rms(total) = 0.38667E-02    rms(broyden)= 0.38667E-02
  rms(prec ) = 0.46460E-02
  weight for this iteration     100.00

 eigenvalues of (default mixing * dielectric matrix)
  average eigenvalue GAMMA=   1.0302
  1.9264  1.9264  1.8025  0.9962  0.9962  0.5686  0.5686  0.5891  0.4639  0.4639

 Free energy of the ion-electron system (eV)
  ---------------------------------------------------
  alpha Z        PSCENC =       817.79019152
  Ewald energy   TEWEN  =    -10078.12888516
  -Hartree energ DENC   =     -1367.85763284
  -exchange      EXHF   =         0.00000000
  -V(xc)+E(xc)   XCENC  =      -698.21169447
  PAW double counting   =     28254.94986680   -26895.06662174
  entropy T*S    EENTRO =        -0.00145043
  eigenvalues    EBANDS =      -761.99799187
  atomic energy  EATOM  =     10079.60734648
  Solvation  Ediel_sol  =         0.00000000
  ---------------------------------------------------
  free energy    TOTEN  =      -648.91687172 eV

  energy without entropy =     -648.91542129  energy(sigma->0) =     -648.91614650


--------------------------------------------------------------------------------------------------------




--------------------------------------- Iteration      1(  16)  ---------------------------------------


    POTLOK:  cpu time      0.1614: real time      0.1628
    SETDIJ:  cpu time      1.4959: real time      1.5021
     EDDAV:  cpu time     21.5738: real time     21.7558
       DOS:  cpu time      0.0017: real time      0.0018
    CHARGE:  cpu time      1.0981: real time      1.1053
    MIXING:  cpu time      0.0056: real time      0.0057
    --------------------------------------------
      LOOP:  cpu time     24.3365: real time     24.5336

 eigenvalue-minimisations  : 10784
 total energy-change (2. order) : 0.3675159E-05  (-0.1483141E-04)
 number of electron     383.9999997 magnetization       1.0000000
 augmentation part      -62.7330867 magnetization      -0.0849732

 Broyden mixing:
  rms(total) = 0.15199E-02    rms(broyden)= 0.15198E-02
  rms(prec ) = 0.20993E-02
  weight for this iteration     100.00

 eigenvalues of (default mixing * dielectric matrix)
  average eigenvalue GAMMA=   1.0093
  2.0086  2.0086  1.6807  1.1236  0.9145  0.5767  0.5767  0.6363  0.6363  0.4701
  0.4701

 Free energy of the ion-electron system (eV)
  ---------------------------------------------------
  alpha Z        PSCENC =       817.79019152
  Ewald energy   TEWEN  =    -10078.12888516
  -Hartree energ DENC   =     -1367.90205735
  -exchange      EXHF   =         0.00000000
  -V(xc)+E(xc)   XCENC  =      -698.20600262
  PAW double counting   =     28253.10571103   -26893.21430142
  entropy T*S    EENTRO =        -0.00144967
  eigenvalues    EBANDS =      -761.96742086
  atomic energy  EATOM  =     10079.60734648
  Solvation  Ediel_sol  =         0.00000000
  ---------------------------------------------------
  free energy    TOTEN  =      -648.91686804 eV

  energy without entropy =     -648.91541837  energy(sigma->0) =     -648.91614321


--------------------------------------------------------------------------------------------------------




--------------------------------------- Iteration      1(  17)  ---------------------------------------


    POTLOK:  cpu time      0.1522: real time      0.1547
    SETDIJ:  cpu time      1.5003: real time      1.5065
     EDDAV:  cpu time     21.7696: real time     21.9528
       DOS:  cpu time      0.0029: real time      0.0029
    CHARGE:  cpu time      1.1023: real time      1.1095
    MIXING:  cpu time      0.0052: real time      0.0052
    --------------------------------------------
      LOOP:  cpu time     24.5325: real time     24.7317

 eigenvalue-minimisations  : 10976
 total energy-change (2. order) : 0.4828584E-05  (-0.5966599E-05)
 number of electron     383.9999997 magnetization       1.0000000
 augmentation part      -62.7320108 magnetization      -0.0849786

 Broyden mixing:
  rms(total) = 0.65664E-03    rms(broyden)= 0.65652E-03
  rms(prec ) = 0.72494E-03
  weight for this iteration     100.00

 eigenvalues of (default mixing * dielectric matrix)
  average eigenvalue GAMMA=   0.9968
  2.0061  2.0061  1.6815  1.3174  0.8401  0.8401  0.7258  0.5678  0.5678  0.4753
  0.4753  0.4583

[...]
   -.570E+02 -.298E+02 -.281E+02   0.591E+02 0.320E+02 0.307E+02   -.924E-01 -.335E+00 -.128E+01   0.569E-04 0.572E-06 0.192E-04
   -.485E+02 -.351E+02 -.376E+01   0.489E+02 0.351E+02 0.436E+01   0.207E+00 0.388E+00 -.744E-01   0.532E-04 0.433E-04 -.311E-04
   -.141E+02 -.461E+02 -.368E+02   0.149E+02 0.475E+02 0.380E+02   0.169E+00 0.106E+01 0.179E+01   0.754E-05 0.110E-03 0.329E-04
   0.237E+02 0.394E+02 -.604E+01   -.239E+02 -.415E+02 0.671E+01   0.885E+00 -.377E+01 0.230E+01   -.343E-05 -.136E-04 0.134E-04
   0.869E+01 0.493E+01 0.306E+02   -.937E+01 -.552E+01 -.320E+02   0.161E+00 0.277E+00 0.560E+00   0.191E-05 0.538E-05 0.156E-05
   -.191E+01 -.425E+00 -.141E+02   0.202E+01 -.169E+00 0.141E+02   0.165E+00 0.428E+00 0.538E+00   -.273E-05 -.481E-05 0.181E-04
   0.165E+02 0.255E+02 -.473E+01   -.164E+02 -.257E+02 0.554E+01   -.272E+00 -.519E+00 0.124E+00   -.104E-04 -.259E-05 -.142E-04
   0.107E+02 0.284E+01 0.336E+02   -.111E+02 -.282E+01 -.347E+02   0.713E-01 0.278E+00 -.580E+00   -.526E-05 0.721E-05 0.134E-04
   0.219E+01 -.182E+02 -.756E+02   -.279E+01 0.182E+02 0.769E+02   0.836E+00 0.450E+00 0.343E+01   -.150E-04 0.420E-04 0.958E-04
   0.204E+02 0.398E+02 -.489E+01   -.207E+02 -.419E+02 0.550E+01   0.929E+00 -.375E+01 0.235E+01   -.190E-04 0.395E-06 0.334E-05
   0.477E+01 0.720E+01 0.318E+02   -.545E+01 -.781E+01 -.333E+02   0.647E-01 0.347E+00 0.648E+00   0.789E-06 -.149E-04 0.177E-05
   -.608E+01 -.245E+01 -.946E+01   0.598E+01 0.242E+01 0.901E+01   0.292E+00 0.808E-01 0.915E+00   0.599E-07 0.465E-05 0.268E-04
   0.198E+02 0.294E+02 -.846E+01   -.198E+02 -.295E+02 0.912E+01   -.438E+00 -.702E+00 0.328E+00   -.175E-04 -.492E-04 -.170E-04
   -.415E+02 -.290E+02 -.422E+01   0.425E+02 0.289E+02 0.395E+01   -.380E+00 0.452E+00 0.255E+00   0.171E-04 0.374E-04 0.178E-05
   0.147E+02 0.178E+02 0.229E+02   -.154E+02 -.192E+02 -.247E+02   -.141E+00 0.401E+00 -.735E+00   -.492E-05 -.738E-06 -.325E-05
   -.257E+02 0.322E+01 -.274E+02   0.271E+02 -.516E+01 0.293E+02   0.930E+00 -.276E+01 0.253E+01   0.790E-05 0.619E-05 0.173E-04
   0.191E+02 0.120E+02 -.774E+01   -.192E+02 -.131E+02 0.882E+01   -.763E+00 0.906E+00 -.911E-01   -.771E-05 -.993E-05 0.224E-04
   0.126E+01 0.365E+00 0.137E+02   -.927E+00 -.904E-01 -.144E+02   -.231E+00 -.187E+00 0.231E+00   -.317E-05 0.769E-05 0.120E-04
   0.125E+01 0.280E+01 -.221E+02   -.135E+01 -.298E+01 0.215E+02   0.144E+00 0.709E-01 0.532E+00   -.222E-05 0.883E-06 0.170E-04
   -.260E+02 -.128E+02 -.228E+02   0.268E+02 0.140E+02 0.244E+02   0.314E+00 -.212E+00 0.796E+00   0.154E-04 -.277E-04 -.178E-04
   0.218E+01 -.256E+01 0.183E+02   -.216E+01 0.268E+01 -.177E+02   -.711E-01 0.377E-01 -.585E+00   0.723E-05 -.128E-04 -.202E-04
   -.272E+02 0.307E+01 -.264E+02   0.287E+02 -.513E+01 0.283E+02   0.109E+01 -.275E+01 0.283E+01   0.760E-05 0.292E-05 0.146E-04
   0.178E+02 0.114E+02 -.419E+01   -.177E+02 -.124E+02 0.510E+01   -.702E+00 0.917E+00 0.101E+00   -.497E-05 0.320E-05 0.558E-05
   0.205E+01 0.465E+01 0.233E+02   -.174E+01 -.449E+01 -.234E+02   -.350E+00 -.268E+00 -.474E+00   0.429E-07 -.175E-04 -.235E-04
   0.360E+01 -.544E+00 -.163E+02   -.379E+01 0.485E+00 0.157E+02   0.184E+00 -.455E-02 0.589E+00   0.290E-05 -.104E-04 0.271E-04
   0.146E+02 0.723E+01 0.801E+01   -.145E+02 -.715E+01 -.781E+01   -.127E+00 -.250E+00 -.240E+00   -.554E-05 -.312E-04 -.728E-05
   0.257E+02 -.322E+01 0.274E+02   -.271E+02 0.516E+01 -.293E+02   -.930E+00 0.276E+01 -.253E+01   -.119E-04 -.496E-05 -.114E-04
   0.419E+02 0.325E+02 -.484E+00   -.430E+02 -.321E+02 0.793E+00   0.344E+00 -.512E-01 -.384E+00   -.161E-04 0.391E-05 0.612E-05
   0.260E+02 0.128E+02 0.228E+02   -.268E+02 -.140E+02 -.244E+02   -.314E+00 0.212E+00 -.796E+00   -.186E-04 0.279E-04 0.115E-04
   -.171E+01 0.172E+01 0.409E+02   0.110E+01 -.199E+01 -.420E+02   0.216E+00 0.867E-01 0.683E+00   0.105E-04 0.174E-04 -.155E-04
   -.205E+01 -.465E+01 -.233E+02   0.174E+01 0.449E+01 0.234E+02   0.350E+00 0.268E+00 0.474E+00   0.472E-05 0.170E-04 0.246E-04
   -.168E+02 -.127E+02 0.651E+01   0.167E+02 0.137E+02 -.735E+01   0.799E+00 -.896E+00 -.166E+00   0.780E-05 0.141E-04 -.861E-05
   0.272E+02 -.307E+01 0.264E+02   -.287E+02 0.513E+01 -.283E+02   -.109E+01 0.275E+01 -.283E+01   -.296E-05 -.396E-05 -.782E-05
   -.253E+02 -.237E+02 0.381E+01   0.252E+02 0.239E+02 -.454E+01   0.237E+00 0.518E+00 -.206E+00   0.113E-04 -.120E-04 0.965E-06
   -.146E+02 -.723E+01 -.801E+01   0.145E+02 0.715E+01 0.781E+01   0.127E+00 0.250E+00 0.240E+00   0.974E-05 0.311E-04 0.651E-05
   0.570E+02 0.298E+02 0.281E+02   -.591E+02 -.320E+02 -.307E+02   0.924E-01 0.335E+00 0.128E+01   -.534E-04 0.938E-06 -.250E-04
   -.126E+01 -.365E+00 -.137E+02   0.927E+00 0.904E-01 0.144E+02   0.231E+00 0.187E+00 -.231E+00   -.211E-05 -.727E-05 -.975E-05
   -.209E+02 -.111E+02 0.611E+01   0.209E+02 0.122E+02 -.699E+01   0.646E+00 -.100E+01 -.116E+00   0.247E-05 -.389E-06 -.125E-04
   -.237E+02 -.394E+02 0.604E+01   0.239E+02 0.415E+02 -.671E+01   -.885E+00 0.377E+01 -.230E+01   0.240E-05 0.138E-04 -.681E-05
   0.570E+02 0.298E+02 0.281E+02   -.591E+02 -.320E+02 -.307E+02   0.924E-01 0.335E+00 0.128E+01   -.534E-04 0.938E-06 -.250E-04
   -.107E+02 -.284E+01 -.336E+02   0.111E+02 0.282E+01 0.347E+02   -.713E-01 -.278E+00 0.580E+00   0.486E-06 -.794E-05 -.182E-04
   0.498E+01 0.833E+01 0.765E+01   -.492E+01 -.819E+01 -.750E+01   -.170E+00 -.229E+00 -.131E+00   -.128E-04 -.868E-05 -.219E-04
   0.608E+01 0.246E+01 0.946E+01   -.598E+01 -.242E+01 -.901E+01   -.292E+00 -.808E-01 -.915E+00   0.350E-05 -.644E-05 -.254E-04
   -.608E+01 -.622E+01 -.295E+02   0.654E+01 0.671E+01 0.310E+02   -.172E-01 -.245E+00 -.605E+00   0.397E-05 -.273E-05 -.356E-05
   -.204E+02 -.398E+02 0.489E+01   0.207E+02 0.419E+02 -.550E+01   -.929E+00 0.375E+01 -.235E+01   0.202E-04 -.812E-07 0.276E-05
   0.322E+02 0.323E+02 0.724E+00   -.331E+02 -.321E+02 -.388E+00   0.210E+00 -.252E+00 -.343E+00   -.122E-04 0.461E-05 0.772E-06
   0.415E+02 0.290E+02 0.422E+01   -.425E+02 -.289E+02 -.395E+01   0.380E+00 -.452E+00 -.255E+00   -.123E-04 -.397E-04 -.855E-05
   0.129E+02 0.767E+01 0.136E+02   -.127E+02 -.768E+01 -.136E+02   -.350E+00 -.158E+00 -.612E-01   -.184E-04 0.410E-05 -.810E-05
   0.191E+01 0.425E+00 0.141E+02   -.202E+01 0.169E+00 -.141E+02   -.165E+00 -.428E+00 -.538E+00   -.542E-06 0.653E-05 -.163E-04
   -.801E+01 -.574E+01 -.348E+02   0.870E+01 0.631E+01 0.361E+02   -.137E+00 -.272E+00 -.518E+00   0.611E-06 -.499E-05 0.140E-04
   0.249E+02 -.304E+01 0.271E+02   -.263E+02 0.491E+01 -.293E+02   -.103E+01 0.289E+01 -.241E+01   -.972E-05 0.424E-05 -.973E-05
   -.147E+02 -.178E+02 -.229E+02   0.154E+02 0.192E+02 0.247E+02   0.141E+00 -.401E+00 0.735E+00   0.125E-05 -.617E-06 -.365E-05
   -.100E+02 -.874E+01 -.131E+02   0.104E+02 0.895E+01 0.129E+02   -.853E-01 0.536E-01 0.214E+00   0.327E-05 -.284E-06 0.141E-04
   -.360E+01 0.544E+00 0.163E+02   0.379E+01 -.484E+00 -.157E+02   -.184E+00 0.455E-02 -.589E+00   0.207E-05 0.795E-05 -.295E-04
   0.166E+01 -.222E+01 -.154E+02   -.193E+01 0.195E+01 0.161E+02   0.205E+00 0.196E+00 -.285E+00   0.217E-05 0.523E-05 -.128E-04
   -.191E+02 -.120E+02 0.774E+01   0.192E+02 0.131E+02 -.882E+01   0.763E+00 -.906E+00 0.911E-01   0.281E-05 0.105E-04 -.181E-04
   0.275E+02 -.305E+01 0.263E+02   -.290E+02 0.514E+01 -.283E+02   -.101E+01 0.274E+01 -.268E+01   -.665E-06 -.145E-04 -.119E-05
   -.218E+01 0.256E+01 -.183E+02   0.216E+01 -.268E+01 0.177E+02   0.711E-01 -.377E-01 0.585E+00   -.612E-05 0.121E-04 0.188E-04
   0.485E+02 0.351E+02 0.376E+01   -.489E+02 -.351E+02 -.436E+01   -.207E+00 -.388E+00 0.744E-01   -.510E-04 -.418E-04 0.270E-04
   -.125E+01 -.280E+01 0.221E+02   0.135E+01 0.298E+01 -.215E+02   -.144E+00 -.709E-01 -.532E+00   -.244E-05 0.151E-05 -.182E-04
   -.691E+01 0.380E+00 -.194E+02   0.658E+01 -.590E+00 0.199E+02   0.313E+00 0.625E-01 0.107E+00   0.484E-05 -.738E-05 0.164E-04
   -.178E+02 -.114E+02 0.419E+01   0.177E+02 0.124E+02 -.510E+01   0.702E+00 -.917E+00 -.101E+00   0.979E-05 -.357E-05 -.423E-06
   -.217E+02 -.401E+02 0.612E+01   0.220E+02 0.421E+02 -.671E+01   -.970E+00 0.384E+01 -.235E+01   0.118E-04 0.180E-04 -.714E-05
   -.219E+01 0.182E+02 0.756E+02   0.279E+01 -.182E+02 -.769E+02   -.836E+00 -.450E+00 -.343E+01   0.196E-04 -.411E-04 -.100E-03
   -.294E+01 -.821E+01 -.366E+02   0.318E+01 0.823E+01 0.378E+02   0.470E-01 -.257E+00 0.428E+00   -.726E-05 0.267E-04 0.276E-05
   -.165E+02 -.255E+02 0.473E+01   0.164E+02 0.257E+02 -.554E+01   0.272E+00 0.519E+00 -.124E+00   0.811E-05 0.131E-05 0.911E-05
   -.623E+00 0.221E+01 0.121E+02   0.972E+00 -.261E+01 -.119E+02   -.359E+00 0.143E+00 -.731E+00   0.679E-05 0.181E-04 -.141E-04
   -.477E+01 -.720E+01 -.318E+02   0.545E+01 0.781E+01 0.333E+02   -.647E-01 -.347E+00 -.648E+00   0.139E-05 0.141E-04 0.211E-05
   -.225E+02 -.394E+02 0.482E+01   0.228E+02 0.414E+02 -.550E+01   -.866E+00 0.373E+01 -.230E+01   0.800E-05 0.822E-05 -.569E-06
   0.141E+02 0.461E+02 0.368E+02   -.149E+02 -.475E+02 -.380E+02   -.169E+00 -.106E+01 -.179E+01   -.423E-05 -.111E-03 -.394E-04
   -.246E+02 0.189E+02 -.486E+02   0.254E+02 -.195E+02 0.500E+02   0.725E-01 -.634E+00 0.125E+01   0.253E-04 -.715E-04 0.315E-04
   -.198E+02 -.294E+02 0.846E+01   0.198E+02 0.295E+02 -.912E+01   0.438E+00 0.702E+00 -.328E+00   0.219E-04 0.477E-04 0.129E-04
   0.563E+01 0.234E+01 0.119E+02   -.558E+01 -.222E+01 -.115E+02   -.270E+00 -.140E+00 -.841E+00   0.286E-06 -.111E-04 -.200E-04
   -.869E+01 -.493E+01 -.306E+02   0.937E+01 0.552E+01 0.320E+02   -.161E+00 -.277E+00 -.560E+00   -.446E-05 -.510E-05 0.385E-05
 -----------------------------------------------------------------------------------------------
   -.832E-02 -.239E-02 -.634E-04   0.533E-13 0.139E-12 -.249E-12   -.122E-14 -.755E-14 0.488E-14   0.414E-05 0.396E-06 0.494E-06
 
 
 POSITION                                       TOTAL-FORCE (eV/Angst)
 -----------------------------------------------------------------------------------
      8.24117      0.54761      6.86758         1.970351      1.851057      1.314218
     14.95649     11.75269      0.00000         0.667633     -5.797074      2.934653
     13.69137      8.13730      1.15489        -0.441128     -0.241926     -0.850072
     12.42624      4.52191      2.30979         0.224341      0.025472      0.446915
     11.16112      0.90652      3.46468         0.101449      0.169431      0.091053
     12.42624      9.68675      4.61958        -0.281642      0.234461     -1.651828
      5.07836      8.29487      6.86758         0.614747      0.017356      0.007856
      7.36576      5.55488      0.00000         0.626876     -5.720994      2.979740
      6.10063      1.93949      1.15489        -0.552722     -0.298639     -0.786479
      7.36575     10.71972      2.30979         0.009026      0.258010      0.581053
      6.10063      7.10433      3.46468         0.109437      0.091705     -0.019507
      4.83551      3.48894      4.61958        -0.847449      1.311829     -2.688867
      1.91555      3.13003      8.02248        -0.166320     -0.709850      0.939235
      6.73320     10.20324      0.00000         2.517615     -4.753522      4.628874
      5.46807      6.58785      1.15489        -0.655698     -0.163043      0.991983
      4.20295      2.97246      2.30979         0.012937      0.147936     -0.623358
      5.46807     11.75269      3.46468         0.392099      0.179075      0.475965
     12.66909      4.16300      9.17737        -0.236879     -0.267412     -0.032647
      2.54812     11.39378      6.86758         0.693417     -0.325634      0.075313
     11.79369      4.00543      0.00000         2.556424     -4.825826      4.698148
     10.52856      0.39004      1.15489        -0.695433     -0.103791      1.006878
     11.79368      9.17027      2.30979         0.065739      0.074489     -0.431517
      8.24117      0.54761      6.86758         1.970351      1.851057      1.314218
      9.26344      1.93949      4.61958         0.620620      0.338801      0.517157
      5.71092      3.64651      6.86758         0.906992      2.488247      3.049361
      4.83551      8.65379      0.00000         0.653396     -5.811042      2.968447
      3.57039      5.03840      1.15489        -0.513669     -0.314399     -0.841500
      2.30526      1.42300      2.30979         0.271108     -0.166371      0.568815
     12.03653      6.22893      8.02248        -0.222372     -0.696547      0.934716
      2.30526      6.58784      4.61958        -0.335427      0.297764     -1.669114
      6.34348      1.58058      8.02248         0.234636      0.425917      4.709797
      9.89600      2.45598      0.00000         0.644204     -5.763910      2.964877
     11.16112     11.23620      1.15489        -0.616518     -0.271332     -0.819564
      9.89600      7.62081      2.30979         0.191578      0.050037      0.462575
      9.50629      9.32784      8.02248        -0.406633     -0.787929      0.979942
      7.60861      5.19597      6.86758         0.617893      0.349806     -0.015153
     13.05880      7.62081      5.77447        -0.835017     -1.002912     -2.528248
      1.67271      0.90652      0.00000         2.372390     -4.699846      4.454735
      2.93783      9.68675      1.15489        -0.800688     -0.170162      0.981307
      1.67270      6.07136      2.30979         0.102166      0.087578     -0.455258
     13.05880      2.45597      3.46468         0.044660     -0.117678     -0.084709
     13.30166      9.84432      6.86758         1.042382      1.013101      2.323370
      5.71092      8.81136      9.17737        -0.051187      0.149244      0.000597
      9.26344      7.10433      0.00000         2.519557     -4.802023      4.716797
      7.99832      3.48894      1.15489        -0.601699     -0.093283      1.003262
      9.26344     12.26917      2.30979        -0.035917     -0.113551     -0.537855
      7.99832      8.65378      3.46468        -0.000622     -0.063878     -0.067637
      7.60860     10.36081      9.17737         0.018717     -0.164752     -0.039027
     12.03653      1.06409     12.64205        -2.372390      4.699846     -4.454735
      1.04014      2.97245      5.77447        -0.693417      0.325634     -0.075313
      2.93782      4.52191      5.77447        -1.042382     -1.013101     -2.323370
     10.77141      2.61354      9.17737        -0.392099     -0.179075     -0.475965
      6.97604      2.09706     10.33227         0.035917      0.113551      0.537855
      3.18067      1.58057     11.48716         0.695433      0.103791     -1.006878
      6.97604      7.26190     12.64205        -2.519557      4.802023     -4.716797
     14.32393     11.23620      4.61958         0.166320      0.709850     -0.939235
      8.63088      4.00543      3.46468        -0.018717      0.164752      0.039027
      5.46807      1.42300      5.77447        -1.970351     -1.851057     -1.314218
      1.91555      8.29487     10.33227        -0.102166     -0.087578      0.455258
     10.77141      7.77838     11.48716         0.655698      0.163043     -0.991983
     11.40397      5.71245     12.64205        -0.653396      5.811042     -2.968447
      5.46807      1.42300      5.77447        -1.970351     -1.851057     -1.314218
     13.93422      7.77839      8.02248         0.335427     -0.297764      1.669114
     10.13885      7.26190      9.17737        -0.109437     -0.091705      0.019507
      6.34348      6.74542     10.33227        -0.191578     -0.050037     -0.462575
      2.54811      6.22893     11.48716         0.441128      0.241926      0.850072
      6.34347     11.91026     12.64205        -0.644204      5.763910     -2.964877
     11.16112      6.07136      5.77447        -0.614747     -0.017356     -0.007856
      8.63087      9.17026      5.77447        -0.617893     -0.349806      0.015153
      2.54811      1.06409      9.17737        -0.101449     -0.169431     -0.091053
     11.40397      0.54761     10.33227        -0.271108      0.166371     -0.568815
      7.60860      0.03112     11.48716         0.552722      0.298639      0.786479
      9.50628      4.16299     12.64205        -2.517615      4.753522     -4.628874
      3.18068      6.74542      6.86758         0.835017      1.002912      2.528248
      3.57039     10.20324      3.46468         0.236879      0.267412      0.032647
      8.24116      5.71245      9.17737         0.000622      0.063878      0.067637
      4.44580      5.19596     10.33226        -0.065739     -0.074489      0.431517
     13.30165      4.67948     11.48716         0.800688      0.170162     -0.981307
      4.44579     10.36081     12.64205        -2.556424      4.825826     -4.698148
     10.52856      5.55488      3.46468         0.051187     -0.149244     -0.000597
      4.44580      0.03113      8.02248        -0.620620     -0.338801     -0.517157
      3.18067     11.91026      9.17737        -0.044660      0.117678      0.084709
     12.03653     11.39378     10.33227        -0.012937     -0.147936      0.623358
      8.24116     10.87729     11.48716         0.601699      0.093283     -1.003262
      1.28298      2.61354     12.64205        -0.667633      5.797074     -2.934653
      7.36575      0.39003      4.61958        -0.234636     -0.425917     -4.709797
      3.81324      4.67948      8.02248         0.281642     -0.234461      1.651828
      4.20295      8.13730      4.61958         0.222372      0.696547     -0.934716
      8.87372      3.64651     10.33226        -0.009026     -0.258010     -0.581053
      5.07836      3.13003     11.48716         0.616518      0.271332      0.819564
      8.87372      8.81135     12.64205        -0.626876      5.720994     -2.979740
     10.52856     10.71972      5.77447        -0.906992     -2.488247     -3.049361
     11.40397     10.87729      8.02248         0.847449     -1.311829      2.688867
      6.73319      5.03839      4.61958         0.406633      0.787929     -0.979942
      3.81323      9.84432     10.33227        -0.224341     -0.025472     -0.446915
     12.66909      9.32784     11.48716         0.513669      0.314399      0.841500
 -----------------------------------------------------------------------------------
    total drift:                               -0.008314     -0.002387     -0.000063


--------------------------------------------------------------------------------------------------------



  FREE ENERGIE OF THE ION-ELECTRON SYSTEM (eV)
  ---------------------------------------------------
  free  energy   TOTEN  =      -648.91686866 eV

  energy  without entropy=     -648.91541760  energy(sigma->0) =     -648.91614313
 


--------------------------------------------------------------------------------------------------------


    POTLOK:  cpu time      1.6402: real time      1.6473


--------------------------------------------------------------------------------------------------------


     LOOP+:  cpu time    562.2003: real time    566.9693
    4ORBIT:  cpu time      0.0000: real time      0.0000

 total amount of memory used by VASP MPI-rank0   167714. kBytes
=======================================================================

   base      :      30000. kBytes
   nonlr-proj:       5947. kBytes
   fftplans  :      14309. kBytes
   grid      :      10233. kBytes
   one-center:         97. kBytes
   wavefun   :     107128. kBytes
 
  
  
 General timing and accounting informations for this job:
 ========================================================
  
                  Total CPU time used (sec):      611.739
                            User time (sec):      573.464
                          System time (sec):       38.276
                         Elapsed time (sec):      618.531
  
                   Maximum memory used (kb):      435596.
                   Average memory used (kb):          N/A
  
                          Minor page faults:       152086
                          Major page faults:           39
                 Voluntary context switches:         1519
