 264 264   0   0
  0.2770664E+02  0.1946760E-08  0.1946760E-08  0.1930025E-08  0.5000000E-15
  1.000000000000000E-004
  CAR 
 Si and Ge interface calculation         
      6.64258258     -8.87887586  301      4.05221641      1.00000000
     -8.879  0.0000E+00  0.0000E+00  0.0000E+00  0.0000E+00
     -8.827  0.0000E+00  0.0000E+00  0.0000E+00  0.0000E+00
     -8.775  0.0000E+00  0.0000E+00  0.0000E+00  0.0000E+00
     -8.724  0.0000E+00  0.0000E+00  0.0000E+00  0.0000E+00
     -8.672  0.0000E+00  0.0000E+00  0.0000E+00  0.0000E+00
     -8.620  0.0000E+00  0.0000E+00  0.0000E+00  0.0000E+00
     -8.568  0.0000E+00  0.0000E+00  0.0000E+00  0.0000E+00
     -8.517  0.0000E+00  0.0000E+00  0.0000E+00  0.0000E+00
     -8.465  0.0000E+00  0.0000E+00  0.0000E+00  0.0000E+00
     -8.413  0.0000E+00  0.0000E+00  0.0000E+00  0.0000E+00
     -8.361  0.0000E+00  0.0000E+00  0.0000E+00  0.0000E+00
     -8.310  0.0000E+00  0.0000E+00  0.0000E+00  0.0000E+00
     -8.258  0.0000E+00  0.0000E+00  0.0000E+00  0.0000E+00
     -8.206  0.1526E-04  0.4274E-05  0.7894E-06  0.2211E-06
     -8.155  0.9633E+01  0.9588E+01  0.4984E+00  0.4961E+00
     -8.103  0.1890E+02  0.1863E+02  0.1476E+01  0.1460E+01
     -8.051  0.1930E+02  0.1931E+02  0.2475E+01  0.2459E+01
     -7.999  0.1967E+02  0.1983E+02  0.3492E+01  0.3485E+01
     -7.948  0.4971E+01  0.4181E+01  0.3749E+01  0.3701E+01
     -7.896  0.1450E+02  0.1543E+02  0.4500E+01  0.4499E+01
     -7.844  0.1770E+02  0.1678E+02  0.5415E+01  0.5367E+01
     -7.792  0.2869E+02  0.2784E+02  0.6899E+01  0.6808E+01
     -7.741  0.2491E+02  0.2580E+02  0.8188E+01  0.8142E+01
     -7.689  0.3118E+02  0.3075E+02  0.9801E+01  0.9733E+01
     -7.637  0.1349E+02  0.1479E+02  0.1050E+02  0.1050E+02
     -7.585  0.1403E-01  0.3201E-01  0.1050E+02  0.1050E+02
     -7.534  0.1273E+01  0.8501E+00  0.1057E+02  0.1054E+02
     -7.482  0.1750E+02  0.1620E+02  0.1147E+02  0.1138E+02
     -7.430  0.5067E+02  0.5050E+02  0.1409E+02  0.1399E+02
     -7.378  0.1755E+02  0.1943E+02  0.1500E+02  0.1500E+02
     -7.327  0.2053E+02  0.2003E+02  0.1606E+02  0.1604E+02
     -7.275  0.2119E+02  0.2078E+02  0.1716E+02  0.1711E+02
     -7.223  0.4533E+02  0.4550E+02  0.1950E+02  0.1947E+02
     -7.172  0.9651E+01  0.1036E+02  0.2000E+02  0.2000E+02
     -7.120  0.3862E+02  0.3854E+02  0.2200E+02  0.2200E+02
     -7.068  0.3676E+02  0.3561E+02  0.2390E+02  0.2384E+02
     -7.016  0.4379E+02  0.4133E+02  0.2617E+02  0.2598E+02
     -6.965  0.3631E+02  0.3960E+02  0.2805E+02  0.2803E+02
     -6.913  0.3788E+02  0.3798E+02  0.3001E+02  0.2999E+02
     -6.861  0.3338E+02  0.3184E+02  0.3174E+02  0.3164E+02
     -6.809  0.3812E+02  0.3850E+02  0.3371E+02  0.3363E+02
     -6.758  0.3514E+02  0.3634E+02  0.3553E+02  0.3551E+02
     -6.706  0.6043E+02  0.5685E+02  0.3865E+02  0.3845E+02
     -6.654  0.5087E+02  0.5144E+02  0.4128E+02  0.4111E+02
     -6.602  0.5223E+02  0.5330E+02  0.4399E+02  0.4387E+02
     -6.551  0.4866E+02  0.5085E+02  0.4650E+02  0.4650E+02
     -6.499  0.3187E+02  0.3006E+02  0.4815E+02  0.4806E+02
     -6.447  0.4172E+02  0.4149E+02  0.5031E+02  0.5020E+02
     -6.395  0.3850E+02  0.3903E+02  0.5230E+02  0.5222E+02
     -6.344  0.4893E+02  0.4868E+02  0.5484E+02  0.5474E+02
     -6.292  0.2620E+02  0.2443E+02  0.5619E+02  0.5601E+02
     -6.240  0.5136E+02  0.5337E+02  0.5885E+02  0.5877E+02
     -6.188  0.4950E+02  0.4982E+02  0.6141E+02  0.6134E+02
     -6.137  0.6795E+02  0.6421E+02  0.6493E+02  0.6467E+02
     -6.085  0.8400E+02  0.8592E+02  0.6927E+02  0.6911E+02
     -6.033  0.8466E+02  0.8407E+02  0.7365E+02  0.7346E+02
     -5.982  0.7948E+02  0.8135E+02  0.7776E+02  0.7767E+02
     -5.930  0.3663E+02  0.3683E+02  0.7966E+02  0.7958E+02
     -5.878  0.5376E+02  0.5289E+02  0.8244E+02  0.8231E+02
     -5.826  0.8299E+02  0.8275E+02  0.8673E+02  0.8659E+02
     -5.775  0.8147E+02  0.8160E+02  0.9095E+02  0.9082E+02
     -5.723  0.6834E+02  0.6848E+02  0.9449E+02  0.9436E+02
     -5.671  0.6953E+02  0.6621E+02  0.9808E+02  0.9778E+02
     -5.619  0.8727E+02  0.8997E+02  0.1026E+03  0.1024E+03
     -5.568  0.8671E+02  0.8590E+02  0.1071E+03  0.1069E+03
     -5.516  0.6862E+02  0.6833E+02  0.1106E+03  0.1104E+03
     -5.464  0.6615E+02  0.6597E+02  0.1141E+03  0.1138E+03
     -5.412  0.7796E+02  0.7976E+02  0.1181E+03  0.1180E+03
     -5.361  0.6521E+02  0.6233E+02  0.1215E+03  0.1212E+03
     -5.309  0.8748E+02  0.8910E+02  0.1260E+03  0.1258E+03
     -5.257  0.8513E+02  0.8624E+02  0.1304E+03  0.1303E+03
     -5.205  0.8085E+02  0.7983E+02  0.1346E+03  0.1344E+03
     -5.154  0.6042E+02  0.6088E+02  0.1377E+03  0.1375E+03
     -5.102  0.5799E+02  0.5904E+02  0.1407E+03  0.1406E+03
     -5.050  0.6788E+02  0.6705E+02  0.1442E+03  0.1441E+03
     -4.999  0.7638E+02  0.7670E+02  0.1482E+03  0.1480E+03
     -4.947  0.7012E+02  0.6852E+02  0.1518E+03  0.1516E+03
     -4.895  0.5710E+02  0.5915E+02  0.1548E+03  0.1546E+03
     -4.843  0.1006E+03  0.9907E+02  0.1600E+03  0.1598E+03
     -4.792  0.1162E+03  0.1145E+03  0.1660E+03  0.1657E+03
     -4.740  0.9356E+02  0.9491E+02  0.1708E+03  0.1706E+03
     -4.688  0.1073E+03  0.1051E+03  0.1764E+03  0.1760E+03
     -4.636  0.9873E+02  0.1004E+03  0.1815E+03  0.1812E+03
     -4.585  0.1223E+03  0.1202E+03  0.1878E+03  0.1874E+03
     -4.533  0.9894E+02  0.1002E+03  0.1929E+03  0.1926E+03
     -4.481  0.9606E+02  0.9487E+02  0.1979E+03  0.1975E+03
     -4.429  0.9761E+02  0.9855E+02  0.2029E+03  0.2026E+03
     -4.378  0.8758E+02  0.8654E+02  0.2075E+03  0.2071E+03
     -4.326  0.1043E+03  0.1060E+03  0.2129E+03  0.2126E+03
     -4.274  0.8019E+02  0.8174E+02  0.2170E+03  0.2168E+03
     -4.222  0.6308E+02  0.6016E+02  0.2203E+03  0.2199E+03
     -4.171  0.8740E+02  0.8791E+02  0.2248E+03  0.2245E+03
     -4.119  0.7265E+02  0.7621E+02  0.2286E+03  0.2284E+03
     -4.067  0.5298E+02  0.5112E+02  0.2313E+03  0.2311E+03
     -4.015  0.6491E+02  0.6488E+02  0.2347E+03  0.2344E+03
     -3.964  0.6281E+02  0.6464E+02  0.2379E+03  0.2378E+03
     -3.912  0.8639E+02  0.8318E+02  0.2424E+03  0.2421E+03
     -3.860  0.6446E+02  0.6772E+02  0.2457E+03  0.2456E+03
     -3.809  0.6656E+02  0.6483E+02  0.2491E+03  0.2489E+03
     -3.757  0.5253E+02  0.5088E+02  0.2519E+03  0.2516E+03
     -3.705  0.6997E+02  0.7057E+02  0.2555E+03  0.2552E+03
     -3.653  0.6984E+02  0.7153E+02  0.2591E+03  0.2589E+03
     -3.602  0.7301E+02  0.7125E+02  0.2629E+03  0.2626E+03
     -3.550  0.4107E+02  0.4393E+02  0.2650E+03  0.2649E+03
     -3.498  0.4968E+02  0.4528E+02  0.2676E+03  0.2672E+03
     -3.446  0.8971E+02  0.9182E+02  0.2722E+03  0.2720E+03
     -3.395  0.6317E+02  0.6110E+02  0.2755E+03  0.2751E+03
     -3.343  0.9280E+02  0.9546E+02  0.2803E+03  0.2801E+03
     -3.291  0.6239E+02  0.6102E+02  0.2835E+03  0.2832E+03
     -3.239  0.8524E+02  0.8497E+02  0.2879E+03  0.2876E+03
     -3.188  0.8050E+02  0.8199E+02  0.2921E+03  0.2919E+03
     -3.136  0.8389E+02  0.8296E+02  0.2964E+03  0.2962E+03
     -3.084  0.7370E+02  0.7390E+02  0.3002E+03  0.3000E+03
     -3.032  0.7301E+02  0.7599E+02  0.3040E+03  0.3039E+03
     -2.981  0.5286E+02  0.4962E+02  0.3068E+03  0.3065E+03
     -2.929  0.8130E+02  0.8215E+02  0.3110E+03  0.3107E+03
     -2.877  0.1061E+03  0.1042E+03  0.3164E+03  0.3161E+03
     -2.826  0.9108E+02  0.9352E+02  0.3212E+03  0.3210E+03
     -2.774  0.7637E+02  0.7510E+02  0.3251E+03  0.3248E+03
     -2.722  0.1003E+03  0.9989E+02  0.3303E+03  0.3300E+03
     -2.670  0.1099E+03  0.1101E+03  0.3360E+03  0.3357E+03
     -2.619  0.9018E+02  0.9039E+02  0.3407E+03  0.3404E+03
     -2.567  0.1174E+03  0.1142E+03  0.3467E+03  0.3463E+03
     -2.515  0.1294E+03  0.1310E+03  0.3534E+03  0.3531E+03
     -2.463  0.1081E+03  0.1094E+03  0.3590E+03  0.3587E+03
     -2.412  0.8616E+02  0.8928E+02  0.3635E+03  0.3634E+03
     -2.360  0.9251E+02  0.8868E+02  0.3683E+03  0.3679E+03
     -2.308  0.9370E+02  0.9383E+02  0.3731E+03  0.3728E+03
     -2.256  0.1042E+03  0.1055E+03  0.3785E+03  0.3783E+03
     -2.205  0.6724E+02  0.6863E+02  0.3820E+03  0.3818E+03
     -2.153  0.4010E+02  0.4232E+02  0.3840E+03  0.3840E+03
     -2.101  0.5568E+02  0.5139E+02  0.3869E+03  0.3867E+03
     -2.049  0.6281E+02  0.6239E+02  0.3902E+03  0.3899E+03
     -1.998  0.8374E+02  0.8289E+02  0.3945E+03  0.3942E+03
     -1.946  0.1003E+03  0.1004E+03  0.3997E+03  0.3994E+03
     -1.894  0.1116E+03  0.1132E+03  0.4055E+03  0.4052E+03
     -1.842  0.5547E+02  0.5649E+02  0.4083E+03  0.4082E+03
     -1.791  0.7874E+02  0.7809E+02  0.4124E+03  0.4122E+03
     -1.739  0.1035E+03  0.1028E+03  0.4178E+03  0.4175E+03
     -1.687  0.1095E+03  0.1093E+03  0.4234E+03  0.4232E+03
     -1.636  0.7710E+02  0.7824E+02  0.4274E+03  0.4272E+03
     -1.584  0.7481E+02  0.7306E+02  0.4313E+03  0.4310E+03
     -1.532  0.8436E+02  0.8745E+02  0.4357E+03  0.4355E+03
     -1.480  0.6952E+02  0.6958E+02  0.4393E+03  0.4391E+03
     -1.429  0.5111E+02  0.5226E+02  0.4419E+03  0.4418E+03
     -1.377  0.6446E+02  0.5933E+02  0.4452E+03  0.4449E+03
     -1.325  0.6761E+02  0.6980E+02  0.4487E+03  0.4485E+03
     -1.273  0.4990E+02  0.5028E+02  0.4513E+03  0.4511E+03
     -1.222  0.5593E+02  0.5468E+02  0.4542E+03  0.4539E+03
     -1.170  0.4435E+02  0.4676E+02  0.4565E+03  0.4564E+03
     -1.118  0.4823E+02  0.4614E+02  0.4590E+03  0.4587E+03
     -1.066  0.5687E+02  0.6010E+02  0.4619E+03  0.4619E+03
     -1.015  0.6087E+02  0.5850E+02  0.4651E+03  0.4649E+03
     -0.963  0.3570E+02  0.3833E+02  0.4669E+03  0.4669E+03
     -0.911  0.3705E+02  0.3318E+02  0.4689E+03  0.4686E+03
     -0.859  0.6729E+02  0.6927E+02  0.4723E+03  0.4722E+03
     -0.808  0.7178E+02  0.7140E+02  0.4761E+03  0.4759E+03
     -0.756  0.5893E+02  0.5903E+02  0.4791E+03  0.4789E+03
     -0.704  0.6131E+02  0.6110E+02  0.4823E+03  0.4821E+03
     -0.653  0.6287E+02  0.6284E+02  0.4855E+03  0.4853E+03
     -0.601  0.3767E+02  0.3930E+02  0.4875E+03  0.4874E+03
     -0.549  0.3132E+02  0.3183E+02  0.4891E+03  0.4890E+03
     -0.497  0.8417E+01  0.8412E+01  0.4895E+03  0.4894E+03
     -0.446  0.4080E+02  0.4038E+02  0.4916E+03  0.4915E+03
     -0.394  0.3833E+02  0.3914E+02  0.4936E+03  0.4935E+03
     -0.342  0.5402E+02  0.5168E+02  0.4964E+03  0.4962E+03
     -0.290  0.8624E+02  0.8818E+02  0.5009E+03  0.5008E+03
     -0.239  0.7150E+02  0.7057E+02  0.5046E+03  0.5044E+03
     -0.187  0.7019E+02  0.6952E+02  0.5082E+03  0.5080E+03
     -0.135  0.1069E+03  0.1044E+03  0.5137E+03  0.5134E+03
     -0.083  0.1180E+03  0.1192E+03  0.5199E+03  0.5196E+03
     -0.032  0.1281E+03  0.1242E+03  0.5265E+03  0.5260E+03
      0.020  0.9766E+02  0.1018E+03  0.5315E+03  0.5313E+03
      0.072  0.1610E+03  0.1571E+03  0.5399E+03  0.5394E+03
      0.124  0.1411E+03  0.1438E+03  0.5472E+03  0.5469E+03
      0.175  0.7810E+02  0.7973E+02  0.5512E+03  0.5510E+03
      0.227  0.7314E+02  0.7235E+02  0.5550E+03  0.5547E+03
      0.279  0.1042E+03  0.1048E+03  0.5604E+03  0.5602E+03
      0.331  0.7215E+02  0.7345E+02  0.5641E+03  0.5640E+03
      0.382  0.8299E+02  0.7897E+02  0.5684E+03  0.5680E+03
      0.434  0.1150E+03  0.1179E+03  0.5743E+03  0.5741E+03
      0.486  0.6895E+02  0.7029E+02  0.5779E+03  0.5778E+03
      0.537  0.1124E+03  0.1092E+03  0.5837E+03  0.5834E+03
      0.589  0.1370E+03  0.1379E+03  0.5908E+03  0.5906E+03
      0.641  0.1380E+03  0.1357E+03  0.5980E+03  0.5976E+03
      0.693  0.1431E+03  0.1443E+03  0.6054E+03  0.6050E+03
      0.744  0.1211E+03  0.1229E+03  0.6116E+03  0.6114E+03
      0.796  0.1259E+03  0.1247E+03  0.6181E+03  0.6179E+03
      0.848  0.1044E+03  0.1055E+03  0.6236E+03  0.6233E+03
      0.900  0.9894E+02  0.1000E+03  0.6287E+03  0.6285E+03
      0.951  0.9617E+02  0.9411E+02  0.6336E+03  0.6334E+03
      1.003  0.1071E+03  0.1064E+03  0.6392E+03  0.6389E+03
      1.055  0.1655E+03  0.1629E+03  0.6477E+03  0.6473E+03
      1.107  0.1351E+03  0.1379E+03  0.6547E+03  0.6544E+03
      1.158  0.1533E+03  0.1479E+03  0.6627E+03  0.6621E+03
      1.210  0.1569E+03  0.1575E+03  0.6708E+03  0.6702E+03
      1.262  0.1870E+03  0.1905E+03  0.6805E+03  0.6801E+03
      1.314  0.1897E+03  0.1863E+03  0.6903E+03  0.6897E+03
      1.365  0.1981E+03  0.1972E+03  0.7005E+03  0.6999E+03
      1.417  0.1496E+03  0.1545E+03  0.7083E+03  0.7079E+03
      1.469  0.1514E+03  0.1485E+03  0.7161E+03  0.7156E+03
      1.521  0.1983E+03  0.1933E+03  0.7264E+03  0.7256E+03
      1.572  0.2037E+03  0.2070E+03  0.7369E+03  0.7363E+03
      1.624  0.1863E+03  0.1894E+03  0.7465E+03  0.7461E+03
      1.676  0.1692E+03  0.1671E+03  0.7553E+03  0.7548E+03
      1.727  0.1847E+03  0.1847E+03  0.7648E+03  0.7643E+03
      1.779  0.1747E+03  0.1751E+03  0.7739E+03  0.7734E+03
      1.831  0.1878E+03  0.1862E+03  0.7836E+03  0.7830E+03
      1.883  0.1500E+03  0.1518E+03  0.7914E+03  0.7909E+03
      1.934  0.2000E+03  0.1970E+03  0.8017E+03  0.8011E+03
      1.986  0.1890E+03  0.1918E+03  0.8115E+03  0.8110E+03
      2.038  0.1693E+03  0.1690E+03  0.8203E+03  0.8197E+03
      2.090  0.1838E+03  0.1839E+03  0.8298E+03  0.8292E+03
      2.141  0.1732E+03  0.1696E+03  0.8387E+03  0.8380E+03
      2.193  0.1960E+03  0.1993E+03  0.8489E+03  0.8483E+03
      2.245  0.1492E+03  0.1485E+03  0.8566E+03  0.8560E+03
      2.297  0.1803E+03  0.1818E+03  0.8659E+03  0.8654E+03
      2.348  0.1603E+03  0.1582E+03  0.8742E+03  0.8736E+03
      2.400  0.1976E+03  0.1987E+03  0.8844E+03  0.8839E+03
      2.452  0.1643E+03  0.1629E+03  0.8929E+03  0.8923E+03
      2.504  0.1442E+03  0.1456E+03  0.9004E+03  0.8998E+03
      2.555  0.1670E+03  0.1666E+03  0.9090E+03  0.9085E+03
      2.607  0.1372E+03  0.1385E+03  0.9161E+03  0.9156E+03
      2.659  0.1117E+03  0.1145E+03  0.9219E+03  0.9215E+03
      2.710  0.1535E+03  0.1454E+03  0.9298E+03  0.9291E+03
      2.762  0.1350E+03  0.1404E+03  0.9368E+03  0.9363E+03
      2.814  0.1456E+03  0.1424E+03  0.9444E+03  0.9437E+03
      2.866  0.1533E+03  0.1550E+03  0.9523E+03  0.9517E+03
      2.917  0.1242E+03  0.1249E+03  0.9587E+03  0.9582E+03
      2.969  0.9820E+02  0.9898E+02  0.9638E+03  0.9633E+03
      3.021  0.1364E+03  0.1344E+03  0.9709E+03  0.9703E+03
      3.073  0.1335E+03  0.1338E+03  0.9778E+03  0.9772E+03
      3.124  0.1241E+03  0.1249E+03  0.9842E+03  0.9836E+03
      3.176  0.1013E+03  0.9894E+02  0.9894E+03  0.9888E+03
      3.228  0.1056E+03  0.1057E+03  0.9949E+03  0.9942E+03
      3.280  0.1148E+03  0.1149E+03  0.1001E+04  0.1000E+04
      3.331  0.1088E+03  0.1131E+03  0.1006E+04  0.1006E+04
      3.383  0.7559E+02  0.7754E+02  0.1010E+04  0.1010E+04
      3.435  0.8940E+02  0.8732E+02  0.1015E+04  0.1015E+04
      3.487  0.8374E+02  0.8142E+02  0.1019E+04  0.1019E+04
      3.538  0.8270E+02  0.8892E+02  0.1024E+04  0.1023E+04
      3.590  0.8155E+02  0.7984E+02  0.1028E+04  0.1027E+04
      3.642  0.7828E+02  0.7979E+02  0.1032E+04  0.1032E+04
      3.694  0.3857E+02  0.3815E+02  0.1034E+04  0.1034E+04
      3.745  0.6766E+02  0.6431E+02  0.1037E+04  0.1037E+04
      3.797  0.4805E+02  0.4826E+02  0.1040E+04  0.1039E+04
      3.849  0.5610E+02  0.5977E+02  0.1043E+04  0.1043E+04
      3.900  0.4267E+02  0.4085E+02  0.1045E+04  0.1045E+04
      3.952  0.4178E+02  0.3638E+02  0.1047E+04  0.1047E+04
      4.004  0.7310E+02  0.7091E+02  0.1051E+04  0.1050E+04
      4.056  0.1022E+03  0.9959E+02  0.1056E+04  0.1055E+04
      4.107  0.8845E+02  0.8975E+02  0.1061E+04  0.1060E+04
      4.159  0.9848E+02  0.9988E+02  0.1066E+04  0.1065E+04
      4.211  0.9993E+02  0.9845E+02  0.1071E+04  0.1070E+04
      4.263  0.9281E+02  0.8935E+02  0.1076E+04  0.1075E+04
      4.314  0.1024E+03  0.1101E+03  0.1081E+04  0.1081E+04
      4.366  0.1088E+03  0.1065E+03  0.1087E+04  0.1086E+04
      4.418  0.1047E+03  0.1013E+03  0.1092E+04  0.1091E+04
      4.470  0.1202E+03  0.1228E+03  0.1098E+04  0.1098E+04
      4.521  0.1024E+03  0.1021E+03  0.1104E+04  0.1103E+04
      4.573  0.9958E+02  0.1028E+03  0.1109E+04  0.1108E+04
      4.625  0.1164E+03  0.1165E+03  0.1115E+04  0.1114E+04
      4.677  0.1188E+03  0.1156E+03  0.1121E+04  0.1120E+04
      4.728  0.1390E+03  0.1355E+03  0.1128E+04  0.1127E+04
      4.780  0.1048E+03  0.1112E+03  0.1134E+04  0.1133E+04
      4.832  0.1414E+03  0.1397E+03  0.1141E+04  0.1140E+04
      4.883  0.9988E+02  0.1039E+03  0.1146E+04  0.1146E+04
      4.935  0.1084E+03  0.1083E+03  0.1152E+04  0.1151E+04
      4.987  0.1130E+03  0.1098E+03  0.1158E+04  0.1157E+04
      5.039  0.1116E+03  0.1099E+03  0.1163E+04  0.1163E+04
      5.090  0.1327E+03  0.1358E+03  0.1170E+04  0.1170E+04
      5.142  0.1100E+03  0.1116E+03  0.1176E+04  0.1175E+04
      5.194  0.1092E+03  0.1090E+03  0.1182E+04  0.1181E+04
      5.246  0.9572E+02  0.9853E+02  0.1187E+04  0.1186E+04
      5.297  0.9474E+02  0.9328E+02  0.1191E+04  0.1191E+04
      5.349  0.1273E+03  0.1237E+03  0.1198E+04  0.1197E+04
      5.401  0.1303E+03  0.1306E+03  0.1205E+04  0.1204E+04
      5.453  0.1494E+03  0.1508E+03  0.1212E+04  0.1212E+04
      5.504  0.1423E+03  0.1402E+03  0.1220E+04  0.1219E+04
      5.556  0.1511E+03  0.1506E+03  0.1228E+04  0.1227E+04
      5.608  0.1387E+03  0.1383E+03  0.1235E+04  0.1234E+04
      5.660  0.1261E+03  0.1286E+03  0.1241E+04  0.1241E+04
      5.711  0.1231E+03  0.1251E+03  0.1248E+04  0.1247E+04
      5.763  0.1126E+03  0.1142E+03  0.1254E+04  0.1253E+04
      5.815  0.1263E+03  0.1216E+03  0.1260E+04  0.1259E+04
      5.867  0.1489E+03  0.1555E+03  0.1268E+04  0.1268E+04
      5.918  0.7439E+02  0.7695E+02  0.1272E+04  0.1271E+04
      5.970  0.7145E+01  0.9932E+01  0.1272E+04  0.1272E+04
      6.022  0.0000E+00  0.0000E+00  0.1272E+04  0.1272E+04
      6.073  0.0000E+00  0.0000E+00  0.1272E+04  0.1272E+04
      6.125  0.0000E+00  0.0000E+00  0.1272E+04  0.1272E+04
      6.177  0.0000E+00  0.0000E+00  0.1272E+04  0.1272E+04
      6.229  0.0000E+00  0.0000E+00  0.1272E+04  0.1272E+04
      6.280  0.0000E+00  0.0000E+00  0.1272E+04  0.1272E+04
      6.332  0.0000E+00  0.0000E+00  0.1272E+04  0.1272E+04
      6.384  0.0000E+00  0.0000E+00  0.1272E+04  0.1272E+04
      6.436  0.0000E+00  0.0000E+00  0.1272E+04  0.1272E+04
      6.487  0.0000E+00  0.0000E+00  0.1272E+04  0.1272E+04
      6.539  0.0000E+00  0.0000E+00  0.1272E+04  0.1272E+04
      6.591  0.0000E+00  0.0000E+00  0.1272E+04  0.1272E+04
      6.643  0.0000E+00  0.0000E+00  0.1272E+04  0.1272E+04
