 vasp.6.4.3 19Mar24 (build Oct 22 2024 11:23:12) complex                        
  
 executed on             LinuxIFC date 2025.06.12  14:20:10
 running   64 mpi-ranks, on    4 nodes
 distrk:  each k-point on   64 cores,    1 groups
 distr:  one band on NCORE=  16 cores,    4 groups


--------------------------------------------------------------------------------------------------------


 INCAR:
   SYSTEM = Si and Ge interface calculation
   ISTART = 0
   ICHARG = 2
   LWAVE = .FALSE.
   LREAL = AUTO
   ENCUT = 700
   ENAUG = 900
   ADDGRID = .TRUE.
   LMAXMIX = 6
   LASPH = .TRUE.
   LMIXTAU = .TRUE.
   NCORE = 16
   NELM = 100
   NBANDS = 634
   EDIFF = 1d-7
   AMIX = 0.6
   ISMEAR = 0
   SIGMA = 0.01
   NELECT = 1056
   ISPIN = 2
   NUPDOWN = 1
   LVTOT = .FALSE.
   LVHAR = .TRUE.

 POTCAR:    PAW_PBE Sn 08Apr2002                  
 POTCAR:    PAW_PBE Si 05Jan2001                  
 -----------------------------------------------------------------------------
|                                                                             |
|           W    W    AA    RRRRR   N    N  II  N    N   GGGG   !!!           |
|           W    W   A  A   R    R  NN   N  II  NN   N  G    G  !!!           |
|           W    W  A    A  R    R  N N  N  II  N N  N  G       !!!           |
|           W WW W  AAAAAA  RRRRR   N  N N  II  N  N N  G  GGG   !            |
|           WW  WW  A    A  R   R   N   NN  II  N   NN  G    G                |
|           W    W  A    A  R    R  N    N  II  N    N   GGGG   !!!           |
|                                                                             |
|     You use a magnetic or noncollinear calculation, but did not specify     |
|     the initial magnetic moment with the MAGMOM tag. Note that a            |
|     default of 3.788e-3 will be used for all atoms. This ferromagnetic      |
|     setup may break the symmetry of the crystal, in particular it may       |
|     rule out finding an antiferromagnetic solution. Thence, we              |
|     recommend setting the initial magnetic moment manually or verifying     |
|     carefully that this magnetic setup is desired.                          |
|                                                                             |
 -----------------------------------------------------------------------------

 POTCAR:    PAW_PBE Sn 08Apr2002                  
   VRHFIN =Sn: s2p2                                                                                 
   LEXCH  = PE                                                                                      
   EATOM  =    94.0860 eV,    6.9151 Ry                                                             
                                                                                                    
   TITEL  = PAW_PBE Sn 08Apr2002                                                                    
   LULTRA =        F    use ultrasoft PP ?                                                          
   IUNSCR =        1    unscreen: 0-lin 1-nonlin 2-no                                               
   RPACOR =    2.000    partial core radius                                                         
   POMASS =  118.710; ZVAL   =    4.000    mass and valenz                                          
   RCORE  =    3.000    outmost cutoff radius                                                       
   RWIGS  =    2.960; RWIGS  =    1.566    wigner-seitz radius (au A)                               
   ENMAX  =  103.236; ENMIN  =   77.427 eV                                                          
   ICORE  =        3    local potential                                                             
   LCOR   =        T    correct aug charges                                                         
   LPAW   =        T    paw PP                                                                      
   EAUG   =  263.585                                                                                
   DEXC   =    0.000                                                                                
   RMAX   =    3.078    core radius for proj-oper                                                   
   RAUG   =    1.300    factor for augmentation sphere                                              
   RDEP   =    3.022    radius for radial grids                                                     
   RDEPT  =    2.655    core radius for aug-charge                                                  
                                                                                                    
   Atomic configuration                                                                             
   13 entries                                                                                       
     n  l   j            E        occ.                                                              
     1  0  0.50    -29007.2859   2.0000                                                             
     2  0  0.50     -4378.8056   2.0000                                                             
     2  1  1.50     -3930.4293   6.0000                                                             
     3  0  0.50      -845.0264   2.0000                                                             
     3  1  1.50      -698.5725   6.0000                                                             
     3  2  2.50      -473.2839  10.0000                                                             
     4  0  0.50      -133.9036   2.0000                                                             
     4  1  1.50       -89.6752   6.0000                                                             
     4  2  2.50       -25.8375  10.0000                                                             
     5  0  0.50       -10.5484   2.0000                                                             
     5  1  0.50        -3.6940   2.0000                                                             
     5  2  1.50        -1.3606   0.0000                                                             
     4  3  2.50        -4.0817   0.0000                                                             
   Description                                                                                      
     l       E           TYP  RCUT    TYP  RCUT                                                     
     0    -10.5483727     23  3.000                                                                 
     0     27.2116520     23  3.000                                                                 
     1     -3.6939829     23  3.000                                                                 
     1      1.9821976     23  3.000                                                                 
     2     -1.3605826     23  3.000                                                                 
     3     -2.7211652     23  3.000                                                                 
  local pseudopotential read in
  partial core-charges read in
  partial kinetic energy density read in
  atomic valenz-charges read in
  non local Contribution for L=           0  read in
    real space projection operators read in
  non local Contribution for L=           0  read in
    real space projection operators read in
  non local Contribution for L=           1  read in
    real space projection operators read in
  non local Contribution for L=           1  read in
    real space projection operators read in
  non local Contribution for L=           2  read in
    real space projection operators read in
    PAW grid and wavefunctions read in
 
   number of l-projection  operators is LMAX  =           5
   number of lm-projection operators is LMMAX =          13
 
 POTCAR:    PAW_PBE Si 05Jan2001                  
   VRHFIN =Si: s2p2                                                                                 
   LEXCH  = PE                                                                                      
   EATOM  =   103.0669 eV,    7.5752 Ry                                                             
                                                                                                    
   TITEL  = PAW_PBE Si 05Jan2001                                                                    
   LULTRA =        F    use ultrasoft PP ?                                                          
   IUNSCR =        1    unscreen: 0-lin 1-nonlin 2-no                                               
   RPACOR =    1.500    partial core radius                                                         
   POMASS =   28.085; ZVAL   =    4.000    mass and valenz                                          
   RCORE  =    1.900    outmost cutoff radius                                                       
   RWIGS  =    2.480; RWIGS  =    1.312    wigner-seitz radius (au A)                               
   ENMAX  =  245.345; ENMIN  =  184.009 eV                                                          
   ICORE  =        2    local potential                                                             
   LCOR   =        T    correct aug charges                                                         
   LPAW   =        T    paw PP                                                                      
   EAUG   =  322.069                                                                                
   DEXC   =    0.000                                                                                
   RMAX   =    1.950    core radius for proj-oper                                                   
   RAUG   =    1.300    factor for augmentation sphere                                              
   RDEP   =    1.993    radius for radial grids                                                     
   RDEPT  =    1.837    core radius for aug-charge                                                  
                                                                                                    
   Atomic configuration                                                                             
    6 entries                                                                                       
     n  l   j            E        occ.                                                              
     1  0  0.50     -1785.8828   2.0000                                                             
     2  0  0.50      -139.4969   2.0000                                                             
     2  1  1.50       -95.5546   6.0000                                                             
     3  0  0.50       -10.8127   2.0000                                                             
     3  1  0.50        -4.0811   2.0000                                                             
     3  2  1.50        -4.0817   0.0000                                                             
   Description                                                                                      
     l       E           TYP  RCUT    TYP  RCUT                                                     
     0    -10.8127223     23  1.900                                                                 
     0     -7.6451159     23  1.900                                                                 
     1     -4.0811372     23  1.900                                                                 
     1      2.4879257     23  1.900                                                                 
     2     -4.0817478      7  1.900                                                                 
  local pseudopotential read in
  partial core-charges read in
  partial kinetic energy density read in
  atomic valenz-charges read in
  non local Contribution for L=           0  read in
    real space projection operators read in
  non local Contribution for L=           0  read in
    real space projection operators read in
  non local Contribution for L=           1  read in
    real space projection operators read in
  non local Contribution for L=           1  read in
    real space projection operators read in
    PAW grid and wavefunctions read in
 
   number of l-projection  operators is LMAX  =           4
   number of lm-projection operators is LMMAX =           8
 
 Optimization of the real space projectors (new method)

 maximal supplied QI-value         = 12.47
 optimisation between [QCUT,QGAM] = [ 12.47, 27.06] = [ 43.56,205.12] Ry 
 Optimized for a Real-space Cutoff    1.58 Angstroem

   l    n(q)    QCUT    max X(q) W(low)/X(q) W(high)/X(q)  e(spline) 
   0     13    12.472    14.688    0.45E-04    0.45E-04    0.25E-05
   0     13    12.472     7.308    0.94E-04    0.11E-03    0.61E-05
   1     12    12.472    45.102    0.34E-03    0.14E-03    0.21E-05
   1     12    12.472    30.691    0.31E-03    0.13E-03    0.20E-05
   2     12    12.472     7.156    0.86E-04    0.11E-03    0.17E-05
 WARNING: PSMAXN for non-local potential too small
          PSMAXN should be >   13.5545592237991       NTYP=           1
 Optimization of the real space projectors (new method)

 maximal supplied QI-value         = 19.84
 optimisation between [QCUT,QGAM] = [ 13.49, 26.99] = [ 50.98,203.92] Ry 
 Optimized for a Real-space Cutoff    1.07 Angstroem

   l    n(q)    QCUT    max X(q) W(low)/X(q) W(high)/X(q)  e(spline) 
   0      9    13.493   159.560    0.22E-03    0.15E-03    0.72E-07
   0      9    13.493   115.863    0.21E-03    0.15E-03    0.71E-07
   1      8    13.493    88.339    0.15E-03    0.11E-03    0.13E-06
   1      8    13.493    48.592    0.15E-03    0.10E-03    0.13E-06
  PAW_PBE Sn 08Apr2002                  :
 energy of atom  1       EATOM=  -94.0860
 kinetic energy error for atom=    0.0000 (will be added to EATOM!!)
  PAW_PBE Si 05Jan2001                  :
 energy of atom  2       EATOM= -103.0669
 kinetic energy error for atom=    0.0003 (will be added to EATOM!!)
 
 
 POSCAR: Sn+Si
  positions in direct lattice
  No initial velocities read in


 exchange-correlation table for PE
   RHO(1)=    0.500       N(1)  =     2000
   RHO(2)=  100.500       N(2)  =     4000
 


--------------------------------------------------------------------------------------------------------


 ion  position               nearest neighbor table
   1  0.422  0.720  0.886- 198 2.34 114 2.34  10 3.03  64 3.43
   2  0.828  0.667  0.168-  49 2.81 142 2.81 101 2.81 100 2.81
   3  0.287  0.393  0.534- 232 2.34 163 2.34  96 2.39
   4  0.614  0.758  0.886- 216 2.34 144 2.34  19 2.98  64 3.51
   5  0.828  0.333  0.168- 174 2.81  35 2.81 205 2.81 264 2.81
   6  0.662  0.333  0.336-  53 2.81 262 2.81 205 2.81 190 2.81
   7  0.018  0.739  0.816-  77 2.34 176 2.34 165 2.34 248 2.34
   8  0.828  0.000  0.168-  46 2.81 217 2.81 107 2.81 106 2.81
   9  0.662  0.000  0.336-  47 2.81 220 2.81 107 2.81 108 2.81
  10  0.328  0.667  0.000- 252 2.81  82 2.81 237 2.94   1 3.03
  11  0.268  0.489  0.886- 111 2.34 195 2.34  58 3.02
  12  0.995  0.667  0.336- 211 2.81 142 2.81  83 2.81  84 2.81
  13  0.806  0.797  0.886- 219 2.34 135 2.34  73 2.35
  14  0.075  0.451  0.886- 192 2.34 120 2.34  58 2.93
  15  0.995  0.333  0.336- 187 2.81  35 2.81  86 2.81  87 2.81
  16  0.960  0.028  0.886- 222 2.34 138 2.34 207 2.36
  17  0.162  0.000  0.168-  38 2.81 162 2.81  89 2.81  88 2.81
  18  0.995  0.000  0.336-  39 2.81 217 2.81  89 2.81  90 2.81
  19  0.662  0.667  0.000-  49 2.81  91 2.81  52 2.95   4 2.98
  20  0.495  0.667  0.168- 127 2.81 252 2.81  50 2.81  91 2.81
  21  0.328  0.667  0.336-  51 2.81 124 2.81  93 2.81 127 2.81
  22  0.662  0.333  0.000-  97 2.40  94 2.81 174 2.81
  23  0.845  0.604  0.886- 204 2.34 135 2.34  76 3.01
  24  0.441  0.624  0.534- 166 2.34 235 2.34  51 2.40
  25  0.662  0.000  0.000-  46 2.81 243 2.81  79 2.93 258 3.02
  26  0.495  0.000  0.168-  98 2.81 158 2.81  47 2.81 243 2.81
  27  0.328  0.000  0.336-  48 2.81  38 2.81  99 2.81  98 2.81
  28  0.883  0.412  0.886- 204 2.34 117 2.34  76 2.98
  29  0.018  0.739  0.534- 256 2.34 175 2.34  84 3.02
  30  0.172  0.970  0.534- 259 2.34 178 2.34  39 3.03  99 3.43
  31  0.078  0.583  0.084- 156 2.81 159 2.81  58 2.81  59 2.81
  32  0.825  0.701  0.534- 181 2.34 253 2.34  84 2.93
  33  0.364  0.008  0.534- 250 2.34 151 2.34  48 2.98  99 3.51
  34  0.306  0.297  0.886- 213 2.34 111 2.34 177 2.35
  35  0.912  0.250  0.252- 150 2.81   5 2.81  15 2.81 196 2.81
  36  0.768  0.989  0.605- 146 2.34 223 2.34  92 2.34 224 2.34
  37  0.537  0.643  0.745- 114 2.34 216 2.34 197 2.34 113 2.34
  38  0.245  0.917  0.252-  17 2.81  27 2.81  65 2.81 130 2.81
  39  0.078  0.917  0.420-  18 2.81 130 2.81 145 2.94  30 3.03
  40  0.152  0.066  0.886- 210 2.34 141 2.34  61 2.95
  41  0.595  0.854  0.534- 169 2.34 238 2.34 102 3.01
  42  0.556  0.047  0.534- 226 2.34 169 2.34 108 2.35
  43  0.412  0.250  0.084- 177 2.81  70 2.81  71 2.81 246 2.81
  44  0.245  0.250  0.252-  71 2.81 234 2.81 209 2.81 121 2.81
  45  0.710  0.278  0.534- 229 2.34 148 2.34 262 2.36
  46  0.745  0.917  0.084-   8 2.81  25 2.81  74 2.81  73 2.81
  47  0.578  0.917  0.252-   9 2.81  26 2.81  74 2.81  75 2.81
  48  0.412  0.917  0.420-  27 2.81  75 2.81  78 2.95  33 2.98
  49  0.745  0.583  0.084-   2 2.81  19 2.81 249 2.81  76 2.81
  50  0.578  0.583  0.252- 118 2.81  20 2.81 249 2.81 208 2.81
  51  0.412  0.583  0.420-  24 2.40  21 2.81 208 2.81
  52  0.652  0.566  0.886- 132 2.34 216 2.34  19 2.95
  53  0.578  0.250  0.252- 153 2.81   6 2.81 246 2.81  81 2.81
  54  0.412  0.250  0.420- 121 2.81  81 2.81 105 2.93 109 3.02
  55  0.162  0.833  0.000- 168 2.40  82 2.81 162 2.81
  56  0.995  0.833  0.168- 100 2.81  83 2.81 217 2.81 162 2.81
  57  0.828  0.833  0.336-  84 2.81 101 2.81 220 2.81 217 2.81
  58  0.162  0.500  0.000-  85 2.81  31 2.81  14 2.93  11 3.02
  59  0.995  0.500  0.168- 264 2.81  86 2.81 142 2.81  31 2.81
  60  0.056  0.547  0.534- 244 2.34 175 2.34 211 2.35
  61  0.162  0.167  0.000-  88 2.81 228 2.81  40 2.95  80 2.98
  62  0.498  0.335  0.886- 189 2.34 129 2.34
  63  0.633  0.662  0.534- 238 2.34 157 2.34 102 2.98
  64  0.495  0.833  0.000-  91 2.81 158 2.81   1 3.43   4 3.51  79 3.54
  65  0.328  0.833  0.168-  82 2.81 127 2.81  38 2.81 158 2.81
  66  0.902  0.316  0.534- 172 2.34 241 2.34  87 2.95
  67  0.495  0.500  0.000- 231 2.36  94 2.81 252 2.81
  68  0.328  0.500  0.168-  85 2.81 214 2.81 124 2.81 252 2.81
  69  0.162  0.500  0.336-  86 2.81  96 2.81 211 2.81 124 2.81
  70  0.495  0.167  0.000- 103 2.39  43 2.81 243 2.81
  71  0.328  0.167  0.168-  44 2.81  88 2.81  43 2.81  98 2.81
  72  0.287  0.893  0.675- 178 2.34 167 2.34 251 2.34 250 2.34
  73  0.828  0.833  0.000-  13 2.35 100 2.81  46 2.81
  74  0.662  0.833  0.168- 101 2.81  91 2.81  47 2.81  46 2.81
  75  0.495  0.833  0.336- 102 2.81 127 2.81  47 2.81  48 2.81
  76  0.828  0.500  0.000- 264 2.81  49 2.81  28 2.98  23 3.01
  77  0.998  0.835  0.886-   7 2.34 138 2.34
  78  0.402  0.816  0.534- 166 2.34 250 2.34  48 2.95
  79  0.575  0.951  0.886- 225 2.34 144 2.34  25 2.93  64 3.54
  80  0.114  0.258  0.886- 192 2.34 141 2.34  61 2.98
  81  0.495  0.167  0.336- 108 2.81  98 2.81  53 2.81  54 2.81
  82  0.245  0.750  0.084-  55 2.81  65 2.81 156 2.81  10 2.81
  83  0.078  0.750  0.252-  56 2.81 130 2.81 156 2.81  12 2.81
  84  0.912  0.750  0.420-  57 2.81  12 2.81  32 2.93  29 3.02
  85  0.245  0.417  0.084-  58 2.81  68 2.81 234 2.81 177 2.81
  86  0.078  0.417  0.252-  59 2.81 234 2.81  69 2.81  15 2.81
  87  0.912  0.417  0.420- 133 2.81  15 2.81  66 2.95  95 2.98
  88  0.245  0.083  0.084-  61 2.81  71 2.81  17 2.81 180 2.81
  89  0.078  0.083  0.252-  17 2.81 150 2.81 209 2.81  18 2.81
  90  0.912  0.083  0.420- 199 2.40 196 2.81  18 2.81
  91  0.578  0.750  0.084-  64 2.81  74 2.81  19 2.81  20 2.81
  92  0.748  0.085  0.534-  36 2.34 148 2.34
  93  0.245  0.750  0.420- 136 2.36 130 2.81  21 2.81
  94  0.578  0.417  0.084-  67 2.81 249 2.81  22 2.81 246 2.81
  95  0.864  0.508  0.534- 253 2.34 172 2.34  87 2.98
  96  0.245  0.417  0.420-   3 2.39  69 2.81 121 2.81
  97  0.691  0.374  0.886- 201 2.34 132 2.34  22 2.40
  98  0.412  0.083  0.252-  26 2.81  71 2.81  81 2.81  27 2.81
  99  0.245  0.083  0.420-  27 2.81 209 2.81  30 3.43  33 3.51 105 3.54
 100  0.912  0.750  0.084-  73 2.81  56 2.81   2 2.81 159 2.81
 101  0.745  0.750  0.252-  74 2.81  57 2.81   2 2.81 118 2.81
 102  0.578  0.750  0.420-  75 2.81 118 2.81  63 2.98  41 3.01
 103  0.537  0.143  0.886- 129 2.34 225 2.34  70 2.39
 104  0.248  0.585  0.534- 247 2.34 163 2.34
 105  0.325  0.201  0.534- 151 2.34 232 2.34  54 2.93  99 3.54
 106  0.912  0.083  0.084- 183 2.81 150 2.81   8 2.81 207 2.81
 107  0.745  0.083  0.252- 153 2.81   8 2.81   9 2.81 196 2.81
 108  0.578  0.083  0.420-  42 2.35  81 2.81   9 2.81
 109  0.518  0.239  0.534- 154 2.34 226 2.34  54 3.02
 110  0.402  0.316  0.675- 227 2.34 154 2.34 232 2.34 155 2.34
 111  0.287  0.393  0.816- 233 2.34  11 2.34  34 2.34 155 2.34
 112  0.672  0.470  0.534- 229 2.34 157 2.34 190 3.03
 113  0.556  0.547  0.675- 235 2.34 230 2.34 157 2.34  37 2.34
 114  0.441  0.624  0.816-  37 2.34 236 2.34 231 2.34   1 2.34
 115  0.133  0.162  0.534- 259 2.34 160 2.34 187 2.98
 116  0.018  0.239  0.675- 260 2.34 241 2.34 161 2.34 160 2.34
 117  0.902  0.316  0.816- 261 2.34 242 2.34  28 2.34 161 2.34
 118  0.662  0.667  0.336-  50 2.81 139 2.81 101 2.81 102 2.81
 119  0.172  0.470  0.675- 244 2.34 164 2.34 233 2.34 163 2.34
 120  0.056  0.547  0.816- 245 2.34 164 2.34  14 2.34 165 2.34
 121  0.328  0.333  0.336-  54 2.81  96 2.81  44 2.81 214 2.81
 122  0.325  0.701  0.675- 247 2.34 166 2.34 167 2.34 236 2.34
 123  0.210  0.778  0.816- 248 2.34 168 2.34 237 2.34 167 2.34
 124  0.245  0.583  0.252- 156 2.81  21 2.81  68 2.81  69 2.81
 125  0.479  0.931  0.675- 250 2.34 170 2.34 169 2.34 239 2.34
 126  0.364  0.008  0.816- 251 2.34 171 2.34 170 2.34 240 2.34
 127  0.412  0.750  0.252-  20 2.81  65 2.81  75 2.81  21 2.81
 128  0.633  0.162  0.675- 226 2.34 148 2.34 263 2.34 149 2.34
 129  0.518  0.239  0.816- 227 2.34 103 2.34  62 2.34 149 2.34
 130  0.162  0.833  0.336-  83 2.81  93 2.81  39 2.81  38 2.81
 131  0.787  0.393  0.675- 229 2.34 173 2.34 172 2.34 242 2.34
 132  0.672  0.470  0.816-  52 2.34 230 2.34  97 2.34 173 2.34
 133  0.828  0.500  0.336-  87 2.81 205 2.81 139 2.81 142 2.81
 134  0.941  0.624  0.675- 253 2.34 245 2.34 176 2.34 175 2.34
 135  0.825  0.701  0.816- 254 2.34  23 2.34  13 2.34 176 2.34
 136  0.210  0.778  0.534- 247 2.34 178 2.34  93 2.36
 137  0.095  0.854  0.675- 248 2.34 178 2.34 256 2.34 179 2.34
 138  0.979  0.931  0.816-  77 2.34 257 2.34 179 2.34  16 2.34
 139  0.745  0.583  0.420- 118 2.81 133 2.81
 140  0.248  0.085  0.675- 259 2.34 251 2.34 151 2.34 152 2.34
 141  0.133  0.162  0.816- 260 2.34  80 2.34  40 2.34 152 2.34
 142  0.912  0.583  0.252-   2 2.81  12 2.81  59 2.81 133 2.81
 143  0.710  0.778  0.675- 238 2.34 254 2.34 182 2.34 181 2.34
 144  0.595  0.854  0.816- 239 2.34  79 2.34 182 2.34   4 2.34
 145  0.979  0.931  0.534- 256 2.34 184 2.34  39 2.94
 146  0.864  0.008  0.675- 257 2.34  36 2.34 184 2.34 185 2.34
 147  0.748  0.085  0.816- 263 2.34 258 2.34 186 2.34 185 2.34
 148  0.729  0.181  0.605- 128 2.34 200 2.34  45 2.34  92 2.34
 149  0.614  0.258  0.745- 201 2.34 128 2.34 188 2.34 129 2.34
 150  0.995  0.167  0.168-  35 2.81 106 2.81  89 2.81 228 2.81
 151  0.345  0.104  0.605- 105 2.34 140 2.34 212 2.34  33 2.34
 152  0.229  0.181  0.745- 213 2.34 191 2.34 140 2.34 141 2.34
 153  0.662  0.167  0.168- 107 2.81  53 2.81 174 2.81 243 2.81
 154  0.498  0.335  0.605- 188 2.34 110 2.34 109 2.34 193 2.34
 155  0.383  0.412  0.745- 189 2.34 110 2.34 194 2.34 111 2.34
 156  0.162  0.667  0.168- 124 2.81  31 2.81  83 2.81  82 2.81
 157  0.652  0.566  0.605- 215 2.34 112 2.34 113 2.34  63 2.34
 158  0.412  0.917  0.084- 180 2.81  26 2.81  64 2.81  65 2.81
 159  0.995  0.667  0.000- 165 2.39  31 2.81 100 2.81
 160  0.114  0.258  0.605- 191 2.34 115 2.34 202 2.34 116 2.34
 161  0.998  0.335  0.745- 192 2.34 116 2.34 203 2.34 117 2.34
 162  0.078  0.917  0.084-  17 2.81 207 2.81  55 2.81  56 2.81
 163  0.268  0.489  0.605- 194 2.34 104 2.34   3 2.34 119 2.34
 164  0.152  0.566  0.745- 120 2.34 119 2.34 195 2.34 206 2.34
 165  0.037  0.643  0.886-   7 2.34 120 2.34 159 2.39
 166  0.422  0.720  0.605- 122 2.34 197 2.34  78 2.34  24 2.34
 167  0.306  0.797  0.745- 198 2.34 122 2.34  72 2.34 123 2.34
 168  0.191  0.874  0.886- 210 2.34 123 2.34  55 2.40
 169  0.575  0.951  0.605- 224 2.34  41 2.34  42 2.34 125 2.34
 170  0.460  0.028  0.745- 225 2.34 125 2.34 212 2.34 126 2.34
 171  0.345  0.104  0.886- 126 2.34 213 2.34 180 3.01
 172  0.883  0.412  0.605- 203 2.34  66 2.34 131 2.34  95 2.34
 173  0.768  0.489  0.745- 204 2.34 131 2.34 215 2.34 132 2.34
 174  0.745  0.250  0.084-   5 2.81 153 2.81 183 2.81  22 2.81
 175  0.037  0.643  0.605- 206 2.34  29 2.34 134 2.34  60 2.34
 176  0.922  0.720  0.745-   7 2.34 134 2.34 218 2.34 135 2.34
 177  0.328  0.333  0.000-  34 2.35  43 2.81  85 2.81
 178  0.191  0.874  0.605-  72 2.34 137 2.34  30 2.34 136 2.34
 179  0.075  0.951  0.745- 210 2.34 221 2.34 138 2.34 137 2.34
 180  0.328  0.000  0.000- 158 2.81  88 2.81 240 2.98 171 3.01
 181  0.806  0.797  0.605- 218 2.34 223 2.34  32 2.34 143 2.34
 182  0.691  0.874  0.745- 224 2.34 144 2.34 219 2.34 143 2.34
 183  0.828  0.167  0.000- 106 2.81 174 2.81 186 2.94 261 3.03
 184  0.960  0.028  0.605- 221 2.34 199 2.34 145 2.34 146 2.34
 185  0.845  0.104  0.745- 200 2.34 222 2.34 147 2.34 146 2.34
 186  0.729  0.181  0.886- 201 2.34 147 2.34 183 2.94
 187  0.078  0.250  0.420-  15 2.81 209 2.81 115 2.98 202 3.01
 188  0.595  0.354  0.675- 154 2.34 230 2.34 149 2.34 229 2.34
 189  0.479  0.431  0.816- 230 2.34 155 2.34 231 2.34  62 2.34
 190  0.578  0.417  0.420- 208 2.81   6 2.81 193 2.94 112 3.03
 191  0.210  0.278  0.675- 160 2.34 233 2.34 152 2.34 232 2.34
 192  0.095  0.354  0.816- 161 2.34  80 2.34  14 2.34 233 2.34
 193  0.479  0.431  0.534- 235 2.34 154 2.34 190 2.94
 194  0.364  0.508  0.675- 163 2.34 236 2.34 155 2.34 235 2.34
 195  0.248  0.585  0.816- 237 2.34 164 2.34  11 2.34 236 2.34
 196  0.828  0.167  0.336-  90 2.81 262 2.81  35 2.81 107 2.81
 197  0.518  0.739  0.675- 239 2.34 166 2.34  37 2.34 238 2.34
 198  0.402  0.816  0.816- 167 2.34 240 2.34   1 2.34 239 2.34
 199  0.941  0.124  0.534- 241 2.34 184 2.34  90 2.40
 200  0.825  0.201  0.675- 242 2.34 148 2.34 185 2.34 241 2.34
 201  0.710  0.278  0.816- 149 2.34 186 2.34  97 2.34 242 2.34
 202  0.095  0.354  0.534- 244 2.34 160 2.34 187 3.01
 203  0.979  0.431  0.675- 172 2.34 245 2.34 244 2.34 161 2.34
 204  0.864  0.508  0.816- 173 2.34  28 2.34  23 2.34 245 2.34
 205  0.745  0.417  0.252- 249 2.81   5 2.81 133 2.81   6 2.81
 206  0.133  0.662  0.675- 175 2.34 248 2.34 247 2.34 164 2.34
 207  0.995  0.000  0.000-  16 2.36 162 2.81 106 2.81
 208  0.495  0.500  0.336- 190 2.81 214 2.81  50 2.81  51 2.81
 209  0.162  0.167  0.336-  89 2.81 187 2.81  44 2.81  99 2.81
 210  0.172  0.970  0.816- 179 2.34 168 2.34  40 2.34 251 2.34
 211  0.078  0.583  0.420-  60 2.35  12 2.81  69 2.81
 212  0.441  0.124  0.675- 227 2.34 170 2.34 151 2.34 226 2.34
 213  0.325  0.201  0.816-  34 2.34 152 2.34 171 2.34 227 2.34
 214  0.412  0.417  0.252- 246 2.81  68 2.81 208 2.81 121 2.81
 215  0.748  0.585  0.675- 157 2.34 253 2.34 254 2.34 173 2.34
 216  0.633  0.662  0.816-  37 2.34   4 2.34  52 2.34 254 2.34
 217  0.912  0.917  0.252-   8 2.81  18 2.81  56 2.81  57 2.81
 218  0.902  0.816  0.675- 257 2.34 256 2.34 181 2.34 176 2.34
 219  0.787  0.893  0.816- 258 2.34 257 2.34  13 2.34 182 2.34
 220  0.745  0.917  0.420- 223 2.39   9 2.81  57 2.81
 221  0.056  0.047  0.675- 184 2.34 179 2.34 259 2.34 260 2.34
 222  0.941  0.124  0.816-  16 2.34 185 2.34 261 2.34 260 2.34
 223  0.787  0.893  0.534-  36 2.34 181 2.34 220 2.39
 224  0.672  0.970  0.675- 169 2.34 182 2.34 263 2.34  36 2.34
 225  0.556  0.047  0.816- 170 2.34  79 2.34 103 2.34 263 2.34
 226  0.537  0.143  0.605- 128 2.34  42 2.34 109 2.34 212 2.34
 227  0.422  0.220  0.745- 129 2.34 212 2.34 110 2.34 213 2.34
 228  0.078  0.250  0.084- 234 2.81  61 2.81 255 2.81 150 2.81
 229  0.691  0.374  0.605- 131 2.34 112 2.34  45 2.34 188 2.34
 230  0.575  0.451  0.745- 113 2.34 189 2.34 188 2.34 132 2.34
 231  0.460  0.528  0.886- 114 2.34 189 2.34  67 2.36
 232  0.306  0.297  0.605- 105 2.34 110 2.34   3 2.34 191 2.34
 233  0.191  0.374  0.745- 111 2.34 191 2.34 119 2.34 192 2.34
 234  0.162  0.333  0.168-  86 2.81  44 2.81 228 2.81  85 2.81
 235  0.460  0.528  0.605- 113 2.34 193 2.34  24 2.34 194 2.34
 236  0.345  0.604  0.745- 114 2.34 194 2.34 122 2.34 195 2.34
 237  0.229  0.681  0.886- 195 2.34 123 2.34  10 2.94
 238  0.614  0.758  0.605- 143 2.34  63 2.34  41 2.34 197 2.34
 239  0.498  0.835  0.745- 144 2.34 197 2.34 125 2.34 198 2.34
 240  0.383  0.912  0.886- 198 2.34 126 2.34 180 2.98
 241  0.922  0.220  0.605- 116 2.34 199 2.34 200 2.34  66 2.34
 242  0.806  0.297  0.745- 200 2.34 117 2.34 201 2.34 131 2.34
 243  0.578  0.083  0.084-  25 2.81  70 2.81 153 2.81  26 2.81
 244  0.075  0.451  0.605- 119 2.34 202 2.34 203 2.34  60 2.34
 245  0.960  0.528  0.745- 120 2.34 203 2.34 134 2.34 204 2.34
 246  0.495  0.333  0.168- 214 2.81  43 2.81  53 2.81  94 2.81
 247  0.229  0.681  0.605- 122 2.34 104 2.34 136 2.34 206 2.34
 248  0.114  0.758  0.745- 206 2.34 123 2.34 137 2.34   7 2.34
 249  0.662  0.500  0.168- 205 2.81  94 2.81  50 2.81  49 2.81
 250  0.383  0.912  0.605- 125 2.34  33 2.34  78 2.34  72 2.34
 251  0.268  0.989  0.745- 126 2.34 140 2.34  72 2.34 210 2.34
 252  0.412  0.583  0.084-  10 2.81  20 2.81  67 2.81  68 2.81
 253  0.845  0.604  0.605- 134 2.34 215 2.34  95 2.34  32 2.34
 254  0.729  0.681  0.745- 135 2.34 215 2.34 143 2.34 216 2.34
 255  0.995  0.333  0.000- 228 2.81 264 2.81
 256  0.998  0.835  0.605-  29 2.34 218 2.34 137 2.34 145 2.34
 257  0.883  0.912  0.745- 146 2.34 218 2.34 138 2.34 219 2.34
 258  0.768  0.989  0.886- 147 2.34 219 2.34  25 3.02
 259  0.152  0.066  0.605- 140 2.34  30 2.34 115 2.34 221 2.34
 260  0.037  0.143  0.745- 141 2.34 116 2.34 221 2.34 222 2.34
 261  0.922  0.220  0.886- 117 2.34 222 2.34 183 3.03
 262  0.745  0.250  0.420-  45 2.36   6 2.81 196 2.81
 263  0.652  0.066  0.745- 147 2.34 224 2.34 128 2.34 225 2.34
 264  0.912  0.417  0.084-  76 2.81  59 2.81   5 2.81 255 2.81
 
  LATTYP: Found a simple tetragonal cell.
 ALAT       =    19.4675998690
 C/A-ratio  =     0.9914038219
  
  Lattice vectors:
  
 A1 = (  19.4675998690,   0.0000000000,   0.0000000000)
 A2 = (   0.0000000000,  19.4675998690,   0.0000000000)
 A3 = (   0.0000000000,   0.0000000000,  19.3002529140)


Analysis of symmetry for initial positions (statically):
=====================================================================
 Subroutine PRICEL returns:
 Original cell was already a primitive cell.
 

 Routine SETGRP: Setting up the symmetry group for a 
 simple tetragonal supercell.


 Subroutine GETGRP returns: Found  1 space group operations
 (whereof  1 operations were pure point group operations)
 out of a pool of 16 trial point group operations.


The static configuration has the point symmetry C_1 .


Analysis of symmetry for dynamics (positions and initial velocities):
=====================================================================
 Subroutine PRICEL returns:
 Original cell was already a primitive cell.
 

 Routine SETGRP: Setting up the symmetry group for a 
 simple tetragonal supercell.


 Subroutine GETGRP returns: Found  1 space group operations
 (whereof  1 operations were pure point group operations)
 out of a pool of 16 trial point group operations.


The dynamic configuration has the point symmetry C_1 .


Analysis of structural, dynamic, and magnetic symmetry:
=====================================================================
 Subroutine PRICEL returns:
 Original cell was already a primitive cell.
 

 Routine SETGRP: Setting up the symmetry group for a 
 simple tetragonal supercell.


 Subroutine GETGRP returns: Found  1 space group operations
 (whereof  1 operations were pure point group operations)
 out of a pool of 16 trial point group operations.


The overall configuration has the point symmetry C_1 .


 Subroutine INISYM returns: Found  1 space group operations
 (whereof  1 operations are pure point group operations),
 and found     1 'primitive' translations


----------------------------------------------------------------------------------------

                                     Primitive cell                                     

  volume of cell :    7314.5535

  direct lattice vectors                    reciprocal lattice vectors
    19.467599869  0.000000000  0.000000000     0.051367401  0.000000000  0.000000000
     0.000000000 19.467599869  0.000000000     0.000000000  0.051367401  0.000000000
     0.000000000  0.000000000 19.300252914     0.000000000  0.000000000  0.051812793

  length of vectors
    19.467599869 19.467599869 19.300252914     0.051367401  0.051367401  0.051812793

  position of ions in fractional coordinates (direct lattice)
     0.421547055  0.719827771  0.886011779
     0.828368425  0.666666687  0.168111786
     0.286931992  0.392904580  0.534267545
     0.613854647  0.758289278  0.886011779
     0.828368425  0.333333343  0.168111786
     0.661701739  0.333333343  0.336223543
     0.017700911  0.739058614  0.815662920
     0.828368425  0.000000000  0.168111786
     0.661701739  0.000000000  0.336223543
     0.328368455  0.666666687  0.000000000
     0.267701030  0.489058524  0.886011779
     0.995035112  0.666666687  0.336223543
     0.806162417  0.796750903  0.886011779
     0.075393319  0.450596988  0.886011779
     0.995035112  0.333333343  0.336223543
     0.960008562  0.027520061  0.886011779
     0.161701739  0.000000000  0.168111786
     0.995035112  0.000000000  0.336223543
     0.661701798  0.666666687  0.000000000
     0.495035112  0.666666687  0.168111786
     0.328368455  0.666666687  0.336223543
     0.661701798  0.333333343  0.000000000
     0.844624043  0.604443133  0.886011779
     0.440778017  0.623673797  0.534267545
     0.661701798  0.000000000  0.000000000
     0.495035112  0.000000000  0.168111786
     0.328368455  0.000000000  0.336223543
     0.883085549  0.412135422  0.886011779
     0.017701149  0.739058495  0.534267545
     0.171547294  0.969827712  0.534267545
     0.078368433  0.583333433  0.084055893
     0.825393379  0.700596869  0.534267545
     0.363854885  0.008289218  0.534267545
     0.306162596  0.296750814  0.886011779
     0.911701798  0.250000000  0.252167612
     0.767701089  0.989058375  0.604616404
     0.536931753  0.642904639  0.745314062
     0.245035097  0.916666746  0.252167612
     0.078368381  0.916666746  0.420279443
     0.152316332  0.065981627  0.886011779
     0.594624162  0.854443133  0.534267545
     0.556162596  0.046750784  0.534267545
     0.411701769  0.250000000  0.084055893
     0.245035097  0.250000000  0.252167612
     0.710008860  0.277519971  0.534267545
     0.745035172  0.916666746  0.084055893
     0.578368545  0.916666746  0.252167612
     0.411701798  0.916666746  0.420279443
     0.745035172  0.583333433  0.084055893
     0.578368545  0.583333433  0.252167612
     0.411701798  0.583333433  0.420279443
     0.652316332  0.565981567  0.886011779
     0.578368545  0.250000000  0.252167612
     0.411701798  0.250000000  0.420279443
     0.161701769  0.833333313  0.000000000
     0.995035052  0.833333313  0.168111786
     0.828368425  0.833333313  0.336223543
     0.161701769  0.500000000  0.000000000
     0.995035052  0.500000000  0.168111786
     0.056162596  0.546750724  0.534267545
     0.161701769  0.166666672  0.000000000
     0.498470068  0.335212380  0.886011779
     0.633085728  0.662135422  0.534267545
     0.495035112  0.833333313  0.000000000
     0.328368425  0.833333313  0.168111786
     0.902316451  0.315981477  0.534267545
     0.495035112  0.500000000  0.000000000
     0.328368425  0.500000000  0.168111786
     0.161701754  0.500000000  0.336223543
     0.495035112  0.166666672  0.000000000
     0.328368425  0.166666672  0.168111786
     0.286931753  0.892904639  0.674965203
     0.828368545  0.833333313  0.000000000
     0.661701858  0.833333313  0.168111786
     0.495035201  0.833333313  0.336223543
     0.828368545  0.500000000  0.000000000
     0.998470128  0.835212350  0.886011779
     0.402316451  0.815981507  0.534267545
     0.575393200  0.950596988  0.886011779
     0.113854766  0.258289337  0.886011779
     0.495035201  0.166666672  0.336223543
     0.245035097  0.750000060  0.084055893
     0.078368433  0.750000060  0.252167612
     0.911701739  0.750000060  0.420279443
     0.245035097  0.416666716  0.084055893
     0.078368433  0.416666716  0.252167612
     0.911701739  0.416666716  0.420279443
     0.245035097  0.083333343  0.084055893
     0.078368433  0.083333343  0.252167612
     0.911701739  0.083333343  0.420279443
     0.578368485  0.750000060  0.084055893
     0.748470306  0.085212208  0.534267545
     0.245035127  0.750000060  0.420279443
     0.578368485  0.416666716  0.084055893
     0.863854945  0.508289218  0.534267545
     0.245035127  0.416666716  0.420279443
     0.690777779  0.373673856  0.886011779
     0.411701858  0.083333343  0.252167612
     0.245035127  0.083333343  0.420279443
     0.911701739  0.750000060  0.084055893
     0.745035052  0.750000060  0.252167612
     0.578368366  0.750000060  0.420279443
     0.536931634  0.142904639  0.886011779
     0.248470306  0.585212350  0.534267545
     0.325393438  0.200596869  0.534267545
     0.911701739  0.083333343  0.084055893
     0.745035052  0.083333343  0.252167612
     0.578368366  0.083333343  0.420279443
     0.517701149  0.239058375  0.534267545
     0.402316570  0.315981507  0.674965203
     0.286931753  0.392904669  0.815662920
     0.671547413  0.469827592  0.534267545
     0.556162596  0.546750665  0.674965203
     0.440778017  0.623673856  0.815662920
     0.133085728  0.162135303  0.534267545
     0.017701030  0.239058435  0.674965203
     0.902316332  0.315981567  0.815662920
     0.661701739  0.666666687  0.336223543
     0.171547174  0.469827712  0.674965203
     0.056162477  0.546750844  0.815662920
     0.328368455  0.333333343  0.336223543
     0.325393319  0.700596929  0.674965203
     0.210008621  0.777520061  0.815662920
     0.245035097  0.583333433  0.252167612
     0.479239464  0.931366265  0.674965203
     0.363854766  0.008289337  0.815662920
     0.411701858  0.750000060  0.252167612
     0.633085608  0.162135333  0.674965203
     0.517700911  0.239058465  0.815662920
     0.161701754  0.833333313  0.336223543
     0.786931813  0.392904609  0.674965203
     0.671547055  0.469827741  0.815662920
     0.828368425  0.500000000  0.336223543
     0.940777957  0.623673856  0.674965203
     0.825393200  0.700596988  0.815662920
     0.210008860  0.777519882  0.534267545
     0.094624162  0.854443014  0.674965203
     0.979239404  0.931366146  0.815662920
     0.745035052  0.583333433  0.420279443
     0.248470306  0.085212342  0.674965203
     0.133085489  0.162135482  0.815662920
     0.911701798  0.583333433  0.252167612
     0.710008621  0.777520001  0.674965203
     0.594624043  0.854443192  0.815662920
     0.979239583  0.931366086  0.534267545
     0.863854885  0.008289099  0.674965203
     0.748470068  0.085212342  0.815662920
     0.729239464  0.181366086  0.604616404
     0.613854885  0.258289218  0.745314062
     0.995035052  0.166666672  0.168111786
     0.344624162  0.104443066  0.604616404
     0.229239464  0.181366205  0.745314062
     0.661701858  0.166666672  0.168111786
     0.498470426  0.335212231  0.604616404
     0.383085728  0.412135392  0.745314062
     0.161701739  0.666666687  0.168111786
     0.652316570  0.565981448  0.604616404
     0.411701769  0.916666746  0.084055893
     0.995035112  0.666666687  0.000000000
     0.113855004  0.258289158  0.604616404
     0.998470306  0.335212290  0.745314062
     0.078368433  0.916666746  0.084055893
     0.267701149  0.489058465  0.604616404
     0.152316332  0.565981567  0.745314062
     0.036931634  0.642904758  0.886011779
     0.421547174  0.719827652  0.604616404
     0.306162596  0.796750784  0.745314062
     0.190777779  0.873673916  0.886011779
     0.575393438  0.950596929  0.604616404
     0.460008621  0.027520061  0.745314062
     0.344624043  0.104443185  0.886011779
     0.883085728  0.412135333  0.604616404
     0.767701030  0.489058435  0.745314062
     0.745035172  0.250000000  0.084055893
     0.036931872  0.642904639  0.604616404
     0.921547174  0.719827712  0.745314062
     0.328368455  0.333333343  0.000000000
     0.190778017  0.873673797  0.604616404
     0.075393319  0.950596929  0.745314062
     0.328368455  0.000000000  0.000000000
     0.806162596  0.796750724  0.604616404
     0.690777898  0.873673916  0.745314062
     0.828368545  0.166666672  0.000000000
     0.960008800  0.027519941  0.604616404
     0.844624043  0.104443066  0.745314062
     0.729239345  0.181366205  0.886011779
     0.078368381  0.250000000  0.420279443
     0.594624043  0.354443103  0.674965203
     0.479239464  0.431366265  0.815662920
     0.578368366  0.416666716  0.420279443
     0.210008621  0.277520001  0.674965203
     0.094624043  0.354443133  0.815662920
     0.479239702  0.431366175  0.534267545
     0.363854885  0.508289278  0.674965203
     0.248470187  0.585212469  0.815662920
     0.828368425  0.166666672  0.336223543
     0.517701030  0.739058554  0.674965203
     0.402316332  0.815981686  0.815662920
     0.940778017  0.123673767  0.534267545
     0.825393319  0.200596899  0.674965203
     0.710008621  0.277520031  0.815662920
     0.094624281  0.354443043  0.534267545
     0.979239523  0.431366175  0.674965203
     0.863854825  0.508289278  0.815662920
     0.745035052  0.416666716  0.252167612
     0.133085608  0.662135482  0.674965203
     0.995035112  0.000000000  0.000000000
     0.495035201  0.500000000  0.336223543
     0.161701754  0.166666672  0.336223543
     0.171547055  0.969827771  0.815662920
     0.078368381  0.583333433  0.420279443
     0.440778017  0.123673908  0.674965203
     0.325393200  0.200597048  0.815662920
     0.411701858  0.416666716  0.252167612
     0.748470306  0.585212350  0.674965203
     0.633085489  0.662135482  0.815662920
     0.911701798  0.916666746  0.252167612
     0.902316451  0.815981627  0.674965203
     0.786931753  0.892904758  0.815662920
     0.745035052  0.916666746  0.420279443
     0.056162596  0.046750784  0.674965203
     0.940777898  0.123673908  0.815662920
     0.786931872  0.892904580  0.534267545
     0.671547174  0.969827712  0.674965203
     0.556162357  0.046750784  0.815662920
     0.536931992  0.142904535  0.604616404
     0.421547174  0.219827682  0.745314062
     0.078368433  0.250000000  0.084055893
     0.690778017  0.373673767  0.604616404
     0.575393200  0.450596929  0.745314062
     0.460008502  0.527520061  0.886011779
     0.306162715  0.296750695  0.604616404
     0.190778017  0.373673826  0.745314062
     0.161701739  0.333333343  0.168111786
     0.460008860  0.527519941  0.604616404
     0.344624281  0.604443073  0.745314062
     0.229239464  0.681366205  0.886011779
     0.613855124  0.758289218  0.604616404
     0.498470426  0.835212350  0.745314062
     0.383085728  0.912135482  0.886011779
     0.921547294  0.219827563  0.604616404
     0.806162536  0.296750695  0.745314062
     0.578368485  0.083333343  0.084055893
     0.075393438  0.450596869  0.604616404
     0.960008740  0.527520001  0.745314062
     0.495035112  0.333333343  0.168111786
     0.229239583  0.681366086  0.604616404
     0.113854885  0.758289218  0.745314062
     0.661701858  0.500000000  0.168111786
     0.383085728  0.912135422  0.604616404
     0.267701149  0.989058554  0.745314062
     0.411701769  0.583333433  0.084055893
     0.844624162  0.604443014  0.604616404
     0.729239464  0.681366146  0.745314062
     0.995035112  0.333333343  0.000000000
     0.998470306  0.835212231  0.604616404
     0.883085608  0.912135363  0.745314062
     0.767700911  0.989058554  0.886011779
     0.152316570  0.065981507  0.604616404
     0.036931872  0.142904758  0.745314062
     0.921547115  0.219827890  0.886011779
     0.745035052  0.250000000  0.420279443
     0.652316332  0.065981507  0.745314062
     0.911701739  0.416666716  0.084055893

  ion indices of the primitive-cell ions
   primitive index   ion index
                 1           1
                 2           2
                 3           3
                 4           4
                 5           5
                 6           6
                 7           7
                 8           8
                 9           9
                10          10
                11          11
                12          12
                13          13
                14          14
                15          15
                16          16
                17          17
                18          18
                19          19
                20          20
                21          21
                22          22
                23          23
                24          24
                25          25
                26          26
                27          27
                28          28
                29          29
                30          30
                31          31
                32          32
                33          33
                34          34
                35          35
                36          36
                37          37
                38          38
                39          39
                40          40
                41          41
                42          42
                43          43
                44          44
                45          45
                46          46
                47          47
                48          48
                49          49
                50          50
                51          51
                52          52
                53          53
                54          54
                55          55
                56          56
                57          57
                58          58
                59          59
                60          60
                61          61
                62          62
                63          63
                64          64
                65          65
                66          66
                67          67
                68          68
                69          69
                70          70
                71          71
                72          72
                73          73
                74          74
                75          75
                76          76
                77          77
                78          78
                79          79
                80          80
                81          81
                82          82
                83          83
                84          84
                85          85
                86          86
                87          87
                88          88
                89          89
                90          90
                91          91
                92          92
                93          93
                94          94
                95          95
                96          96
                97          97
                98          98
                99          99
               100         100
               101         101
               102         102
               103         103
               104         104
               105         105
               106         106
               107         107
               108         108
               109         109
               110         110
               111         111
               112         112
               113         113
               114         114
               115         115
               116         116
               117         117
               118         118
               119         119
               120         120
               121         121
               122         122
               123         123
               124         124
               125         125
               126         126
               127         127
               128         128
               129         129
               130         130
               131         131
               132         132
               133         133
               134         134
               135         135
               136         136
               137         137
               138         138
               139         139
               140         140
               141         141
               142         142
               143         143
               144         144
               145         145
               146         146
               147         147
               148         148
               149         149
               150         150
               151         151
               152         152
               153         153
               154         154
               155         155
               156         156
               157         157
               158         158
               159         159
               160         160
               161         161
               162         162
               163         163
               164         164
               165         165
               166         166
               167         167
               168         168
               169         169
               170         170
               171         171
               172         172
               173         173
               174         174
               175         175
               176         176
               177         177
               178         178
               179         179
               180         180
               181         181
               182         182
               183         183
               184         184
               185         185
               186         186
               187         187
               188         188
               189         189
               190         190
               191         191
               192         192
               193         193
               194         194
               195         195
               196         196
               197         197
               198         198
               199         199
               200         200
               201         201
               202         202
               203         203
               204         204
               205         205
               206         206
               207         207
               208         208
               209         209
               210         210
               211         211
               212         212
               213         213
               214         214
               215         215
               216         216
               217         217
               218         218
               219         219
               220         220
               221         221
               222         222
               223         223
               224         224
               225         225
               226         226
               227         227
               228         228
               229         229
               230         230
               231         231
               232         232
               233         233
               234         234
               235         235
               236         236
               237         237
               238         238
               239         239
               240         240
               241         241
               242         242
               243         243
               244         244
               245         245
               246         246
               247         247
               248         248
               249         249
               250         250
               251         251
               252         252
               253         253
               254         254
               255         255
               256         256
               257         257
               258         258
               259         259
               260         260
               261         261
               262         262
               263         263
               264         264

----------------------------------------------------------------------------------------

 
 
 KPOINTS: Automatic KPOINTS generated             

Automatic generation of k-mesh.
 Grid dimensions read from file:
 generate k-points for:    2    2    2

 Generating k-lattice:

  Cartesian coordinates                     Fractional coordinates (reciprocal lattice)
     0.025683700  0.000000000  0.000000000     0.500000000  0.000000000  0.000000000
     0.000000000  0.025683700  0.000000000     0.000000000  0.500000000  0.000000000
     0.000000000  0.000000000  0.025906396     0.000000000  0.000000000  0.500000000

  Length of vectors
     0.025683700  0.025683700  0.025906396

  Shift w.r.t. Gamma in fractional coordinates (k-lattice)
     0.000000000  0.000000000  0.000000000

 
 Subroutine IBZKPT returns following result:
 ===========================================
 
 Found      8 irreducible k-points:
 
 Following reciprocal coordinates:
            Coordinates               Weight
  0.000000  0.000000  0.000000      1.000000
  0.500000  0.000000  0.000000      1.000000
  0.000000  0.500000  0.000000      1.000000
  0.500000  0.500000  0.000000      1.000000
  0.000000  0.000000  0.500000      1.000000
  0.500000  0.000000  0.500000      1.000000
  0.000000  0.500000  0.500000      1.000000
  0.500000  0.500000  0.500000      1.000000
 
 Following cartesian coordinates:
            Coordinates               Weight
  0.000000  0.000000  0.000000      1.000000
  0.025684  0.000000  0.000000      1.000000
  0.000000  0.025684  0.000000      1.000000
  0.025684  0.025684  0.000000      1.000000
  0.000000  0.000000  0.025906      1.000000
  0.025684  0.000000  0.025906      1.000000
  0.000000  0.025684  0.025906      1.000000
  0.025684  0.025684  0.025906      1.000000
 
 -----------------------------------------------------------------------------
|                                                                             |
|           W    W    AA    RRRRR   N    N  II  N    N   GGGG   !!!           |
|           W    W   A  A   R    R  NN   N  II  NN   N  G    G  !!!           |
|           W    W  A    A  R    R  N N  N  II  N N  N  G       !!!           |
|           W WW W  AAAAAA  RRRRR   N  N N  II  N  N N  G  GGG   !            |
|           WW  WW  A    A  R   R   N   NN  II  N   NN  G    G                |
|           W    W  A    A  R    R  N    N  II  N    N   GGGG   !!!           |
|                                                                             |
|     The number of bands has been changed from the values supplied in        |
|     the INCAR file. This is a result of running the parallel version.       |
|     The orbitals not found in the WAVECAR file will be initialized with     |
|     random numbers, which is usually adequate. For correlated               |
|     calculations, however, you should redo the groundstate calculation.     |
|     I found NBANDS = 634. Now, NBANDS = 636.                                |
|                                                                             |
 -----------------------------------------------------------------------------



--------------------------------------------------------------------------------------------------------




 Dimension of arrays:
   k-points           NKPTS =      8   k-points in BZ     NKDIM =      8   number of bands    NBANDS=    636
   number of dos      NEDOS =    301   number of ions     NIONS =    264
   non local maximal  LDIM  =      5   non local SUM 2l+1 LMDIM =     13
   total plane-waves  NPLWV = ******
   max r-space proj   IRMAX =   4555   max aug-charges    IRDMAX= 210771
   dimension x,y,z NGX =   126 NGY =  126 NGZ =  126
   dimension x,y,z NGXF=   252 NGYF=  252 NGZF=  252
   support grid    NGXF=   504 NGYF=  504 NGZF=  504
   ions per type =             108 156
   NGX,Y,Z   is equivalent  to a cutoff of  10.76, 10.76, 10.85 a.u.
   NGXF,Y,Z  is equivalent  to a cutoff of  21.52, 21.52, 21.71 a.u.

 SYSTEM =  Si and Ge interface calculation         
 POSCAR =  Sn+Si                                   

 Startparameter for this run:
   NWRITE =      2    write-flag & timer
   PREC   = normal    normal or accurate (medium, high low for compatibility)
   ISTART =      0    job   : 0-new  1-cont  2-samecut
   ICHARG =      2    charge: 1-file 2-atom 10-const
   ISPIN  =      2    spin polarized calculation?
   LNONCOLLINEAR =      F non collinear calculations
   LSORBIT =      F    spin-orbit coupling
   INIWAV =      1    electr: 0-lowe 1-rand  2-diag
   LASPH  =      T    aspherical Exc in radial PAW
 Electronic Relaxation 1
   ENCUT  =  700.0 eV  51.45 Ry    7.17 a.u.  42.00 42.00 41.64*2*pi/ulx,y,z
   ENINI  =  700.0     initial cutoff
   ENAUG  =  900.0 eV  augmentation charge cutoff
   NELM   =    100;   NELMIN=  2; NELMDL= -5     # of ELM steps 
   EDIFF  = 0.1E-06   stopping-criterion for ELM
   LREAL  =      T    real-space projection
   NLSPLINE    = F    spline interpolate recip. space projectors
   LCOMPAT=      F    compatible to vasp.4.4
   GGA_COMPAT  = T    GGA compatible to vasp.4.4-vasp.4.6
   LMAXPAW     = -100 max onsite density
   LMAXMIX     =    6 max onsite mixed and CHGCAR
   VOSKOWN=      0    Vosko Wilk Nusair interpolation
   ROPT   =   -0.00050  -0.00050
 Ionic relaxation
   EDIFFG = 0.1E-05   stopping-criterion for IOM
   NSW    =      0    number of steps for IOM
   NBLOCK =      1;   KBLOCK =      1    inner block; outer block 
   IBRION =     -1    ionic relax: 0-MD 1-quasi-New 2-CG
   NFREE  =      0    steps in history (QN), initial steepest desc. (CG)
   ISIF   =      2    stress and relaxation
   IWAVPR =     10    prediction:  0-non 1-charg 2-wave 3-comb
   ISYM   =      2    0-nonsym 1-usesym 2-fastsym
   LCORR  =      T    Harris-Foulkes like correction to forces

   POTIM  = 0.5000    time-step for ionic-motion
   TEIN   =    0.0    initial temperature
   TEBEG  =    0.0;   TEEND  =   0.0 temperature during run
   SMASS  =  -3.00    Nose mass-parameter (am)
   estimated Nose-frequenzy (Omega)   =  0.10E-29 period in steps = 0.13E+47 mass=  -0.866E-26a.u.
   SCALEE = 1.0000    scale energy and forces
   NPACO  =    256;   APACO  = 10.0  distance and # of slots for P.C.
   PSTRESS=    0.0 pullay stress

  Mass of Ions in am
   POMASS = 118.71 28.09
  Ionic Valenz
   ZVAL   =   4.00  4.00
  Atomic Wigner-Seitz radii
   RWIGS  =  -1.00 -1.00
  virtual crystal weights 
   VCA    =   1.00  1.00
   NELECT =    1056.0000    total number of electrons
   NUPDOWN=       1.0000    fix difference up-down

 DOS related values:
   EMIN   =  10.00;   EMAX   =-10.00  energy-range for DOS
   EFERMI =   0.00;   METHOD = LEGACY      
   ISMEAR =     0;   SIGMA  =   0.01  broadening in eV -4-tet -1-fermi 0-gaus

 Electronic relaxation 2 (details)
   IALGO  =     38    algorithm
   LDIAG  =      T    sub-space diagonalisation (order eigenvalues)
   LSUBROT=      F    optimize rotation matrix (better conditioning)
   TURBO    =      0    0=normal 1=particle mesh
   IRESTART =      0    0=no restart 2=restart with 2 vectors
   NREBOOT  =      0    no. of reboots
   NMIN     =      0    reboot dimension
   EREF     =   0.00    reference energy to select bands
   IMIX   =      4    mixing-type and parameters
     AMIX     =   0.60;   BMIX     =  1.00
     AMIX_MAG =   2.40;   BMIX_MAG =  1.00
     AMIN     =   0.10
     WC   =   100.;   INIMIX=   1;  MIXPRE=   1;  MAXMIX= -45

 Intra band minimization:
   WEIMIN = 0.0000     energy-eigenvalue tresh-hold
   EBREAK =  0.39E-10  absolut break condition
   DEPER  =   0.30     relativ break condition  

   TIME   =   0.40     timestep for ELM

  volume/ion in A,a.u.               =      27.71       186.97
  Fermi-wavevector in a.u.,A,eV,Ry     =   0.858816  1.622927 10.035183  0.737565
  Thomas-Fermi vector in A             =   1.976078
 
 Write flags
   LWAVE        =      F    write WAVECAR
   LDOWNSAMPLE  =      F    k-point downsampling of WAVECAR
   LCHARG       =      T    write CHGCAR
   LVTOT        =      F    write LOCPOT, total local potential
   LVHAR        =      T    write LOCPOT, Hartree potential only
   WRT_POTENTIAL=  hartree ionic  ! write potential to hdf5 file
   LELF         =      F    write electronic localiz. function (ELF)
   LORBIT       =      0    0 simple, 1 ext, 2 COOP (PROOUT), +10 PAW based schemes


 Dipole corrections
   LMONO      =      F    monopole corrections only (constant potential shift)
   LDIPOL     =      F    correct potential (dipole corrections)
   IDIPOL     =      0    1-x, 2-y, 3-z, 4-all directions 
   EPSILON    =  1.0000000 bulk dielectric constant
   LVACPOTAV  =      F  vacuum potentials using an averaging scheme for the charge density
   VACPOTFLAT =  0.1000000 required flatness to determine vacuum potential
 Exchange correlation treatment:
   GGA     = PE    functional components
   XC_C    = 1    coefficients multiplying the functional components
   LIBXC   =     F    Libxc                    
   VOSKOWN =     0    Vosko Wilk Nusair interpolation
   LHFCALC =     F    Hartree Fock is set to
   LHFONE  =     F    Hartree Fock one center treatment
   AEXX    =    0.0000 exact exchange contribution

 Parameters of functionals:
   PE:
     No parameter
 
 Van der Waals corrections
   IVDW    =     0    specifies the selected vdW correction

 Linear response parameters
   LEPSILON=     F    determine dielectric tensor
   LRPA    =     F    only Hartree local field effects (RPA)
   LNABLA  =     F    use nabla operator in PAW spheres
   LVEL    =     F    velocity operator in full k-point grid
   CSHIFT  =0.1000    complex shift for real part using Kramers Kronig
   OMEGAMAX=  -1.0    maximum frequency
   DEG_THRESHOLD= 0.2000000E-02 threshold for treating states as degnerate
   RTIME   =   -0.100 relaxation time in fs
  (WPLASMAI=    0.000 imaginary part of plasma frequency in eV, 0.658/RTIME)
   DFIELD  = 0.0000000 0.0000000 0.0000000 field for delta impulse in time
 
  Optional k-point grid parameters
   LKPOINTS_OPT  =     F    use optional k-point grid
   KPOINTS_OPT_MODE=     1    mode for optional k-point grid
 
 Orbital magnetization related:
   ORBITALMAG=     F  switch on orbital magnetization
   LCHIMAG   =     F  perturbation theory with respect to B field
   DQ        =  0.001000  dq finite difference perturbation B field
   LLRAUG    =     F  two centre corrections for induced B field
   LBONE     =     F  B-component reconstruction in AE one-centre
   LVGVCALC  =     T  calculate vGv susceptibility
   LVGVAPPL  =     F  apply vGv susceptibility instead of pGv for G=0

 Random number generation:
   RANDOM_GENERATOR = DEFAULT
   PCG_SEED         = not used


--------------------------------------------------------------------------------------------------------


 Static calculation
 charge density and potential will be updated during run
 spin polarized calculation
 Variant of blocked Davidson
 Davidson routine will perform the subspace rotation
 perform sub-space diagonalisation
    after iterative eigenvector-optimisation
 modified Broyden-mixing scheme, WC =      100.0
 initial mixing is a Kerker type mixing with AMIX =  0.6000 and BMIX =      1.0000
 Hartree-type preconditioning will be used
 using additional bands          108
 real space projection scheme for non local part
 use partial core corrections
 calculate Harris-corrections to forces 
   (improved forces if not selfconsistent)
 use gradient corrections 
 use of overlap-Matrix (Vanderbilt PP)
 Gauss-broadening in eV      SIGMA  =   0.01


--------------------------------------------------------------------------------------------------------


  energy-cutoff  :      700.00
  volume of cell :     7314.55
      direct lattice vectors                 reciprocal lattice vectors
    19.467599869  0.000000000  0.000000000     0.051367401  0.000000000  0.000000000
     0.000000000 19.467599869  0.000000000     0.000000000  0.051367401  0.000000000
     0.000000000  0.000000000 19.300252914     0.000000000  0.000000000  0.051812793

  length of vectors
    19.467599869 19.467599869 19.300252914     0.051367401  0.051367401  0.051812793


 
 k-points in units of 2pi/SCALE and weight: Automatic KPOINTS generated             
   0.00000000  0.00000000  0.00000000       0.125
   0.02568370  0.00000000  0.00000000       0.125
   0.00000000  0.02568370  0.00000000       0.125
   0.02568370  0.02568370  0.00000000       0.125
   0.00000000  0.00000000  0.02590640       0.125
   0.02568370  0.00000000  0.02590640       0.125
   0.00000000  0.02568370  0.02590640       0.125
   0.02568370  0.02568370  0.02590640       0.125
 
 k-points in reciprocal lattice and weights: Automatic KPOINTS generated             
   0.00000000  0.00000000  0.00000000       0.125
   0.50000000  0.00000000  0.00000000       0.125
   0.00000000  0.50000000  0.00000000       0.125
   0.50000000  0.50000000  0.00000000       0.125
   0.00000000  0.00000000  0.50000000       0.125
   0.50000000  0.00000000  0.50000000       0.125
   0.00000000  0.50000000  0.50000000       0.125
   0.50000000  0.50000000  0.50000000       0.125
 
 position of ions in fractional coordinates (direct lattice) 
   0.42154705  0.71982777  0.88601178
   0.82836843  0.66666669  0.16811179
   0.28693199  0.39290458  0.53426754
   0.61385465  0.75828928  0.88601178
   0.82836843  0.33333334  0.16811179
   0.66170174  0.33333334  0.33622354
   0.01770091  0.73905861  0.81566292
   0.82836843  0.00000000  0.16811179
   0.66170174  0.00000000  0.33622354
   0.32836846  0.66666669  0.00000000
   0.26770103  0.48905852  0.88601178
   0.99503511  0.66666669  0.33622354
   0.80616242  0.79675090  0.88601178
   0.07539332  0.45059699  0.88601178
   0.99503511  0.33333334  0.33622354
   0.96000856  0.02752006  0.88601178
   0.16170174  0.00000000  0.16811179
   0.99503511  0.00000000  0.33622354
   0.66170180  0.66666669  0.00000000
   0.49503511  0.66666669  0.16811179
   0.32836846  0.66666669  0.33622354
   0.66170180  0.33333334  0.00000000
   0.84462404  0.60444313  0.88601178
   0.44077802  0.62367380  0.53426754
   0.66170180  0.00000000  0.00000000
   0.49503511  0.00000000  0.16811179
   0.32836846  0.00000000  0.33622354
   0.88308555  0.41213542  0.88601178
   0.01770115  0.73905850  0.53426754
   0.17154729  0.96982771  0.53426754
   0.07836843  0.58333343  0.08405589
   0.82539338  0.70059687  0.53426754
   0.36385489  0.00828922  0.53426754
   0.30616260  0.29675081  0.88601178
   0.91170180  0.25000000  0.25216761
   0.76770109  0.98905837  0.60461640
   0.53693175  0.64290464  0.74531406
   0.24503510  0.91666675  0.25216761
   0.07836838  0.91666675  0.42027944
   0.15231633  0.06598163  0.88601178
   0.59462416  0.85444313  0.53426754
   0.55616260  0.04675078  0.53426754
   0.41170177  0.25000000  0.08405589
   0.24503510  0.25000000  0.25216761
   0.71000886  0.27751997  0.53426754
   0.74503517  0.91666675  0.08405589
   0.57836855  0.91666675  0.25216761
   0.41170180  0.91666675  0.42027944
   0.74503517  0.58333343  0.08405589
   0.57836855  0.58333343  0.25216761
   0.41170180  0.58333343  0.42027944
   0.65231633  0.56598157  0.88601178
   0.57836855  0.25000000  0.25216761
   0.41170180  0.25000000  0.42027944
   0.16170177  0.83333331  0.00000000
   0.99503505  0.83333331  0.16811179
   0.82836843  0.83333331  0.33622354
   0.16170177  0.50000000  0.00000000
   0.99503505  0.50000000  0.16811179
   0.05616260  0.54675072  0.53426754
   0.16170177  0.16666667  0.00000000
   0.49847007  0.33521238  0.88601178
   0.63308573  0.66213542  0.53426754
   0.49503511  0.83333331  0.00000000
   0.32836843  0.83333331  0.16811179
   0.90231645  0.31598148  0.53426754
   0.49503511  0.50000000  0.00000000
   0.32836843  0.50000000  0.16811179
   0.16170175  0.50000000  0.33622354
   0.49503511  0.16666667  0.00000000
   0.32836843  0.16666667  0.16811179
   0.28693175  0.89290464  0.67496520
   0.82836855  0.83333331  0.00000000
   0.66170186  0.83333331  0.16811179
   0.49503520  0.83333331  0.33622354
   0.82836855  0.50000000  0.00000000
   0.99847013  0.83521235  0.88601178
   0.40231645  0.81598151  0.53426754
   0.57539320  0.95059699  0.88601178
   0.11385477  0.25828934  0.88601178
   0.49503520  0.16666667  0.33622354
   0.24503510  0.75000006  0.08405589
   0.07836843  0.75000006  0.25216761
   0.91170174  0.75000006  0.42027944
   0.24503510  0.41666672  0.08405589
   0.07836843  0.41666672  0.25216761
   0.91170174  0.41666672  0.42027944
   0.24503510  0.08333334  0.08405589
   0.07836843  0.08333334  0.25216761
   0.91170174  0.08333334  0.42027944
   0.57836848  0.75000006  0.08405589
   0.74847031  0.08521221  0.53426754
   0.24503513  0.75000006  0.42027944
   0.57836848  0.41666672  0.08405589
   0.86385494  0.50828922  0.53426754
   0.24503513  0.41666672  0.42027944
   0.69077778  0.37367386  0.88601178
   0.41170186  0.08333334  0.25216761
   0.24503513  0.08333334  0.42027944
   0.91170174  0.75000006  0.08405589
   0.74503505  0.75000006  0.25216761
   0.57836837  0.75000006  0.42027944
   0.53693163  0.14290464  0.88601178
   0.24847031  0.58521235  0.53426754
   0.32539344  0.20059687  0.53426754
   0.91170174  0.08333334  0.08405589
   0.74503505  0.08333334  0.25216761
   0.57836837  0.08333334  0.42027944
   0.51770115  0.23905837  0.53426754
   0.40231657  0.31598151  0.67496520
   0.28693175  0.39290467  0.81566292
   0.67154741  0.46982759  0.53426754
   0.55616260  0.54675066  0.67496520
   0.44077802  0.62367386  0.81566292
   0.13308573  0.16213530  0.53426754
   0.01770103  0.23905843  0.67496520
   0.90231633  0.31598157  0.81566292
   0.66170174  0.66666669  0.33622354
   0.17154717  0.46982771  0.67496520
   0.05616248  0.54675084  0.81566292
   0.32836846  0.33333334  0.33622354
   0.32539332  0.70059693  0.67496520
   0.21000862  0.77752006  0.81566292
   0.24503510  0.58333343  0.25216761
   0.47923946  0.93136627  0.67496520
   0.36385477  0.00828934  0.81566292
   0.41170186  0.75000006  0.25216761
   0.63308561  0.16213533  0.67496520
   0.51770091  0.23905846  0.81566292
   0.16170175  0.83333331  0.33622354
   0.78693181  0.39290461  0.67496520
   0.67154705  0.46982774  0.81566292
   0.82836843  0.50000000  0.33622354
   0.94077796  0.62367386  0.67496520
   0.82539320  0.70059699  0.81566292
   0.21000886  0.77751988  0.53426754
   0.09462416  0.85444301  0.67496520
   0.97923940  0.93136615  0.81566292
   0.74503505  0.58333343  0.42027944
   0.24847031  0.08521234  0.67496520
   0.13308549  0.16213548  0.81566292
   0.91170180  0.58333343  0.25216761
   0.71000862  0.77752000  0.67496520
   0.59462404  0.85444319  0.81566292
   0.97923958  0.93136609  0.53426754
   0.86385489  0.00828910  0.67496520
   0.74847007  0.08521234  0.81566292
   0.72923946  0.18136609  0.60461640
   0.61385489  0.25828922  0.74531406
   0.99503505  0.16666667  0.16811179
   0.34462416  0.10444307  0.60461640
   0.22923946  0.18136621  0.74531406
   0.66170186  0.16666667  0.16811179
   0.49847043  0.33521223  0.60461640
   0.38308573  0.41213539  0.74531406
   0.16170174  0.66666669  0.16811179
   0.65231657  0.56598145  0.60461640
   0.41170177  0.91666675  0.08405589
   0.99503511  0.66666669  0.00000000
   0.11385500  0.25828916  0.60461640
   0.99847031  0.33521229  0.74531406
   0.07836843  0.91666675  0.08405589
   0.26770115  0.48905846  0.60461640
   0.15231633  0.56598157  0.74531406
   0.03693163  0.64290476  0.88601178
   0.42154717  0.71982765  0.60461640
   0.30616260  0.79675078  0.74531406
   0.19077778  0.87367392  0.88601178
   0.57539344  0.95059693  0.60461640
   0.46000862  0.02752006  0.74531406
   0.34462404  0.10444319  0.88601178
   0.88308573  0.41213533  0.60461640
   0.76770103  0.48905843  0.74531406
   0.74503517  0.25000000  0.08405589
   0.03693187  0.64290464  0.60461640
   0.92154717  0.71982771  0.74531406
   0.32836846  0.33333334  0.00000000
   0.19077802  0.87367380  0.60461640
   0.07539332  0.95059693  0.74531406
   0.32836846  0.00000000  0.00000000
   0.80616260  0.79675072  0.60461640
   0.69077790  0.87367392  0.74531406
   0.82836855  0.16666667  0.00000000
   0.96000880  0.02751994  0.60461640
   0.84462404  0.10444307  0.74531406
   0.72923935  0.18136621  0.88601178
   0.07836838  0.25000000  0.42027944
   0.59462404  0.35444310  0.67496520
   0.47923946  0.43136627  0.81566292
   0.57836837  0.41666672  0.42027944
   0.21000862  0.27752000  0.67496520
   0.09462404  0.35444313  0.81566292
   0.47923970  0.43136618  0.53426754
   0.36385489  0.50828928  0.67496520
   0.24847019  0.58521247  0.81566292
   0.82836843  0.16666667  0.33622354
   0.51770103  0.73905855  0.67496520
   0.40231633  0.81598169  0.81566292
   0.94077802  0.12367377  0.53426754
   0.82539332  0.20059690  0.67496520
   0.71000862  0.27752003  0.81566292
   0.09462428  0.35444304  0.53426754
   0.97923952  0.43136618  0.67496520
   0.86385482  0.50828928  0.81566292
   0.74503505  0.41666672  0.25216761
   0.13308561  0.66213548  0.67496520
   0.99503511  0.00000000  0.00000000
   0.49503520  0.50000000  0.33622354
   0.16170175  0.16666667  0.33622354
   0.17154705  0.96982777  0.81566292
   0.07836838  0.58333343  0.42027944
   0.44077802  0.12367391  0.67496520
   0.32539320  0.20059705  0.81566292
   0.41170186  0.41666672  0.25216761
   0.74847031  0.58521235  0.67496520
   0.63308549  0.66213548  0.81566292
   0.91170180  0.91666675  0.25216761
   0.90231645  0.81598163  0.67496520
   0.78693175  0.89290476  0.81566292
   0.74503505  0.91666675  0.42027944
   0.05616260  0.04675078  0.67496520
   0.94077790  0.12367391  0.81566292
   0.78693187  0.89290458  0.53426754
   0.67154717  0.96982771  0.67496520
   0.55616236  0.04675078  0.81566292
   0.53693199  0.14290453  0.60461640
   0.42154717  0.21982768  0.74531406
   0.07836843  0.25000000  0.08405589
   0.69077802  0.37367377  0.60461640
   0.57539320  0.45059693  0.74531406
   0.46000850  0.52752006  0.88601178
   0.30616271  0.29675070  0.60461640
   0.19077802  0.37367383  0.74531406
   0.16170174  0.33333334  0.16811179
   0.46000886  0.52751994  0.60461640
   0.34462428  0.60444307  0.74531406
   0.22923946  0.68136621  0.88601178
   0.61385512  0.75828922  0.60461640
   0.49847043  0.83521235  0.74531406
   0.38308573  0.91213548  0.88601178
   0.92154729  0.21982756  0.60461640
   0.80616254  0.29675070  0.74531406
   0.57836848  0.08333334  0.08405589
   0.07539344  0.45059687  0.60461640
   0.96000874  0.52752000  0.74531406
   0.49503511  0.33333334  0.16811179
   0.22923958  0.68136609  0.60461640
   0.11385489  0.75828922  0.74531406
   0.66170186  0.50000000  0.16811179
   0.38308573  0.91213542  0.60461640
   0.26770115  0.98905855  0.74531406
   0.41170177  0.58333343  0.08405589
   0.84462416  0.60444301  0.60461640
   0.72923946  0.68136615  0.74531406
   0.99503511  0.33333334  0.00000000
   0.99847031  0.83521223  0.60461640
   0.88308561  0.91213536  0.74531406
   0.76770091  0.98905855  0.88601178
   0.15231657  0.06598151  0.60461640
   0.03693187  0.14290476  0.74531406
   0.92154712  0.21982789  0.88601178
   0.74503505  0.25000000  0.42027944
   0.65231633  0.06598151  0.74531406
   0.91170174  0.41666672  0.08405589
 
 position of ions in cartesian coordinates  (Angst):
   8.20650939 14.01331902 17.10025142
  16.12634504 12.97840031  3.24459999
   5.58587721  7.64890915 10.31149874
  11.95027665 14.76207225 17.10025142
  16.12634504  6.48920014  3.24459999
  12.88174469  6.48920014  6.48919942
   0.34459425 14.38769738 15.74250065
  16.12634504  0.00000000  3.24459999
  12.88174469  0.00000000  6.48919942
   6.39254569 12.97840031  0.00000000
   5.21149654  9.52079566 17.10025142
  19.37094542 12.97840031  6.48919942
  15.69404736 15.51082777 17.10025142
   1.46772697  8.77204186 17.10025142
  19.37094542  6.48920014  6.48919942
  18.68906256  0.53574954 17.10025142
   3.14794475  0.00000000  3.24459999
  19.37094542  0.00000000  6.48919942
  12.88174584 12.97840031  0.00000000
   9.63714548 12.97840031  3.24459999
   6.39254569 12.97840031  6.48919942
  12.88174584  6.48920014  0.00000000
  16.44280291 11.76705706 17.10025142
   8.58089007 12.14143193 10.31149874
  12.88174584  0.00000000  0.00000000
   9.63714548  0.00000000  3.24459999
   6.39254569  0.00000000  6.48919942
  17.19155612  8.02328749 17.10025142
   0.34459889 14.38769506 10.31149874
   3.33961408 18.88021784 10.31149874
   1.52564530 11.35610186  1.62229999
  16.06842804 13.63893952 10.31149874
   7.08338131  0.16137118 10.31149874
   5.96025091  5.77702611 17.10025142
  17.74864580  4.86689997  4.86689869
  14.94529762 19.25459269 11.66924951
  10.45277252 12.51581027 14.38474990
   4.77024522 17.84530142  4.86689869
   1.52564428 17.84530142  8.11149954
   2.96523340  1.28450391 17.10025142
  11.57590526 16.63395702 10.31149874
  10.82715088  0.91012556 10.31149874
   8.01484530  4.86689997  1.62229999
   4.77024522  4.86689997  4.86689869
  13.82216839  5.40264775 10.31149874
  14.50404662 17.84530142  1.62229999
  11.25944741 17.84530142  4.86689869
   8.01484587 17.84530142  8.11149954
  14.50404662 11.35610186  1.62229999
  11.25944741 11.35610186  4.86689869
   8.01484587 11.35610186  8.11149954
  12.69903334 11.01830268 17.10025142
  11.25944741  4.86689997  4.86689869
   8.01484587  4.86689997  8.11149954
   3.14794534 16.22299949  0.00000000
  19.37094425 16.22299949  3.24459999
  16.12634504 16.22299949  6.48919942
   3.14794534  9.73379993  0.00000000
  19.37094425  9.73379993  3.24459999
   1.09335095 10.64392432 10.31149874
   3.14794534  3.24460008  0.00000000
   9.70401583  6.52578048 17.10025142
  12.32465964 12.89018745 10.31149874
   9.63714548 16.22299949  0.00000000
   6.39254511 16.22299949  3.24459999
  17.56593562  6.15140096 10.31149874
   9.63714548  9.73379993  0.00000000
   6.39254511  9.73379993  3.24459999
   3.14794504  9.73379993  6.48919942
   9.63714548  3.24460008  0.00000000
   6.39254511  3.24460008  3.24459999
   5.58587256 17.38271023 13.02699913
  16.12634738 16.22299949  0.00000000
  12.88174700 16.22299949  3.24459999
   9.63714721 16.22299949  6.48919942
  16.12634738  9.73379993  0.00000000
  19.43781693 16.25957984 17.10025142
   7.83213569 15.88520148 10.31149874
  11.20152458 18.50584180 17.10025142
   2.21647903  5.02827346 17.10025142
   9.63714721  3.24460008  6.48919942
   4.77024522 14.60070107  1.62229999
   1.52564530 14.60070107  4.86689869
  17.74864465 14.60070107  8.11149954
   4.77024522  8.11150091  1.62229999
   1.52564530  8.11150091  4.86689869
  17.74864465  8.11150091  8.11149954
   4.77024522  1.62230018  1.62229999
   1.52564530  1.62230018  4.86689869
  17.74864465  1.62230018  8.11149954
  11.25944624 14.60070107  1.62229999
  14.57092043  1.65887717 10.31149874
   4.77024581 14.60070107  8.11149954
  11.25944624  8.11150091  1.62229999
  16.81718241  9.89517111 10.31149874
   4.77024581  8.11150091  8.11149954
  13.44778540  7.27453311 17.10025142
   8.01484704  1.62230018  4.86689869
   4.77024581  1.62230018  8.11149954
  17.74864465 14.60070107  1.62229999
  14.50404428 14.60070107  4.86689869
  11.25944393 14.60070107  8.11149954
  10.45277021  2.78201033 17.10025142
[...]
     11.25945      4.86690      4.86690         0.044978      0.050681     -1.271153
      8.01485      4.86690      8.11150        -0.023538      0.310749      0.627173
      3.14795     16.22300      0.00000        -1.452392      0.286943      1.369758
     19.37094     16.22300      3.24460         0.040515      1.237683     -0.034330
     16.12635     16.22300      6.48920        -0.181126      1.402132      0.108925
      3.14795      9.73380      0.00000         0.282215     -0.311175     -0.858378
     19.37094      9.73380      3.24460        -1.246970     -0.147631      0.133157
      1.09335     10.64392     10.31150        -0.524012     -0.652041     -1.266526
      3.14795      3.24460      0.00000        -0.474931      0.525540      0.165117
      9.70402      6.52578     17.10025         0.018907      0.076801      3.973963
     12.32466     12.89019     10.31150         0.191911     -0.002329     -3.280863
      9.63715     16.22300      0.00000        -0.782162      0.744077     -0.808891
      6.39255     16.22300      3.24460         1.204146      0.086747      0.115329
     17.56594      6.15140     10.31150         0.144597      0.304480     -3.377218
      9.63715      9.73380      0.00000        -0.189532      0.422618      2.005805
      6.39255      9.73380      3.24460         0.725901      0.642861      0.654566
      3.14795      9.73380      6.48920        -0.123176      1.232337      0.201442
      9.63715      3.24460      0.00000        -0.992787      0.081929      4.633979
      6.39255      3.24460      3.24460         0.023849     -0.076504      0.108785
      5.58587     17.38271     13.02700         0.075192     -0.098455      0.208191
     16.12635     16.22300      0.00000         1.423000      1.555057      4.904173
     12.88175     16.22300      3.24460         0.102548     -0.093323      0.102002
      9.63715     16.22300      6.48920        -0.643112     -0.625698     -0.898260
     16.12635      9.73380      0.00000         0.585352     -0.552963      0.032113
     19.43782     16.25958     17.10025        -0.517826      3.133046      6.178965
      7.83214     15.88520     10.31150         0.084605      0.386929     -3.394838
     11.20152     18.50584     17.10025        -0.240411     -0.406402      3.607976
      2.21648      5.02827     17.10025        -0.203497     -0.128260      3.274871
      9.63715      3.24460      6.48920        -0.135539     -0.099813      0.079203
      4.77025     14.60070      1.62230        -0.420217     -0.605066      0.580347
      1.52565     14.60070      4.86690         1.368887      0.014287     -0.004263
     17.74864     14.60070      8.11150         0.280289     -0.312009      0.853872
      4.77025      8.11150      1.62230        -0.331186     -1.388620     -0.090768
      1.52565      8.11150      4.86690         0.643405     -0.708032     -0.725162
     17.74864      8.11150      8.11150        -0.465782      0.536532     -0.182014
      4.77025      1.62230      1.62230         0.684875     -0.535160     -0.366853
      1.52565      1.62230      4.86690        -0.094533      1.368426     -0.144479
     17.74864      1.62230      8.11150        -1.460973      0.300344     -1.355236
     11.25945     14.60070      1.62230        -0.113006     -0.142723      0.352184
     14.57092      1.65888     10.31150        -0.532717      3.109926     -6.164865
      4.77025     14.60070      8.11150        -0.184037      0.426394     -1.982811
     11.25945      8.11150      1.62230         0.174257     -0.068485      1.117700
     16.81718      9.89517     10.31150        -0.198507     -0.146482     -3.275967
      4.77025      8.11150      8.11150        -0.985319      0.090635     -4.642586
     13.44779      7.27453     17.10025         1.250110      1.330445     -1.096722
      8.01485      1.62230      4.86690         0.081736     -0.066470     -0.109719
      4.77025      1.62230      8.11150        -0.763754      0.762198      0.796721
     17.74864     14.60070      1.62230         0.335527     -0.432690     -0.776742
     14.50404     14.60070      4.86690        -0.594077     -0.743032      0.499382
     11.25944     14.60070      8.11150         0.561573     -0.537420     -0.037843
     10.45277      2.78201     17.10025         1.792190     -0.560313     -1.478392
      4.83712     11.39268     10.31150         0.000034      0.051877     -3.966403
      6.33463      3.90514     10.31150        -0.243989     -0.397763     -3.624828
     17.74864      1.62230      1.62230         0.946793      0.413365     -0.589830
     14.50404      1.62230      4.86690         0.040274      1.221862      0.020221
     11.25944      1.62230      8.11150         1.417943      1.548672     -4.910904
     10.07840      4.65389     10.31150        -0.032715      0.654852     -0.660921
      7.83214      6.15140     13.02700         0.081897      0.052519      0.071700
      5.58587      7.64891     15.74250        -0.320327     -0.070064     -2.791118
     13.07342      9.14642     10.31150        -0.159427      0.157367     -1.351153
     10.82715     10.64392     13.02700         0.458350     -2.352263     -1.519938
      8.58089     12.14143     15.74250        -1.720619     -2.642078      0.647586
      2.59086      3.15639     10.31150        -0.113847      0.619566     -0.799246
      0.34460      4.65389     13.02700         0.085670     -0.104387      0.035378
     17.56593      6.15140     15.74250         0.073765     -2.453864     -1.157291
     12.88174     12.97840      6.48920         0.512764     -0.320625      0.071708
      3.33961      9.14642     13.02700        -0.017784     -0.037260      0.148027
      1.09335     10.64393     15.74250        -0.601731      2.138882     -0.968574
      6.39255      6.48920      6.48920         0.216418      0.590313     -0.410023
      6.33463     13.63894     13.02700        -0.040620      0.043158      0.221453
      4.08836     15.13645     15.74250         0.369873      0.061026      0.403335
      4.77025     11.35610      4.86690        -0.439047      0.461691     -0.419034
      9.32964     18.13147     13.02700        -0.060842      0.076873      0.107283
      7.08338      0.16137     15.74250         0.192457      0.084115      0.136582
      8.01485     14.60070      4.86690        -0.094794      0.071510     -0.107161
     12.32466      3.15639     13.02700        -0.003894      0.059264      0.042455
     10.07839      4.65389     15.74250        -0.080941     -0.042906     -3.069293
      3.14795     16.22300      6.48920         0.194452     -0.146798      0.008861
     15.31967      7.64891     13.02700         0.076282     -0.032525      0.110068
     13.07341      9.14642     15.74250        -0.201230     -0.130387     -2.485742
     16.12635      9.73380      6.48920        -0.549484      0.309376     -0.764227
     18.31469     12.14143     13.02700        -0.019304     -0.039841      0.148479
     16.06842     13.63894     15.74250         0.143741      0.115159     -2.518069
      4.08837     15.13645     10.31150        -0.801737     -0.152190      2.117478
      1.84211     16.63395     13.02700        -0.049874     -0.054905      0.019900
     19.06344     18.13146     15.74250         0.119404      0.024665     -2.921854
     14.50404     11.35610      8.11150        -0.064752     -0.028661     -0.284816
      4.83712      1.65888     13.02700        -0.040685      0.041327      0.076652
      2.59086      3.15639     15.74250        -0.201237     -0.073289     -3.295795
     17.74865     11.35610      4.86690        -0.279036     -0.490536      0.320645
     13.82216     15.13645     13.02700        -0.089198      0.068490      0.117404
     11.57590     16.63396     15.74250         0.430342      0.058942     -2.796424
     19.06344     18.13146     10.31150        -0.096279     -0.632773     -0.589085
     16.81718      0.16137     13.02700         2.300806      0.379852      1.647702
     14.57092      1.65888     15.74250         0.008374     -0.016073      0.250084
     14.19654      3.53076     11.66925         0.119358      0.060904      2.942292
     11.95028      5.02827     14.38475        -0.004638     -0.088708     -0.050464
     19.37094      3.24460      3.24460         0.403657      0.528536     -0.268323
      6.70901      2.03326     11.66925         0.431934      0.064014      2.812567
      4.46274      3.53076     14.38475        -0.048157      0.075266     -0.128779
     12.88175      3.24460      3.24460        -0.061159     -0.016404     -0.852465
      9.70402      6.52578     11.66925        -0.004137     -0.024734     -0.247260
      7.45776      8.02329     14.38475         0.011868      0.094571     -0.042867
      3.14794     12.97840      3.24460         0.374081     -0.401859      0.416906
     12.69904     11.01830     11.66925         0.060910     -2.485723      1.143775
      8.01485     17.84530      1.62230        -0.351210      0.510131     -0.146805
     19.37095     12.97840      0.00000         0.432210     -0.613673      0.008836
      2.21648      5.02827     11.66925         0.179437      0.074806     -0.083133
     19.43782      6.52578     14.38475        -0.008540     -0.014448     -0.014011
      1.52565     17.84530      1.62230        -0.170228      0.347745     -0.557188
      5.21150      9.52079     11.66925        -0.063631     -0.008542      3.075951
      2.96523     11.01830     14.38475         0.040519      0.124672     -0.060098
      0.71897     12.51581     17.10025         0.456310     -1.501566      2.079532
      8.20651     14.01332     11.66925        -0.199119     -0.095036      2.470351
      5.96025     15.51083     14.38475         0.475354     -2.267682      1.577569
      3.71399     17.00833     17.10025         0.681563      0.231524     -1.539610
     11.20153     18.50584     11.66925         0.150917      0.125964      2.514122
      8.95526      0.53575     14.38475        -0.119773      0.031586     -0.082387
      6.70900      2.03326     17.10025        -0.162452     -1.064100      0.958162
     17.19156      8.02329     11.66925        -0.205082     -0.064731      3.292974
     14.94530      9.52079     14.38475         0.067660     -0.059740     -0.120648
     14.50405      4.86690      1.62230         0.193615     -0.771930     -0.084182
      0.71897     12.51581     11.66925        -0.320287     -0.060354      2.802751
     17.94031     14.01332     14.38475        -2.297615     -0.516990     -1.800727
      6.39255      6.48920      0.00000         0.829042      0.476128      2.675876
      3.71399     17.00833     11.66925        -1.718675     -2.637736     -0.639880
      1.46773     18.50584     14.38475        -0.018776      0.018740     -0.149692
      6.39255      0.00000      0.00000         0.645995     -0.321347     -0.302906
     15.69405     15.51082     11.66925        -0.598091      2.131280      0.964473
     13.44779     17.00833     14.38475         0.010705     -0.008729     -0.154979
     16.12635      3.24460      0.00000        -0.742067      1.263763     -0.848215
     18.68907      0.53575     11.66925         0.355308      0.103986     -0.377275
     16.44280      2.03326     14.38475         0.004006     -0.044045     -0.032567
     14.19654      3.53076     17.10025         0.252896     -0.750427      0.988904
      1.52564      4.86690      8.11150         0.660404     -0.333432      0.334464
     11.57590      6.90016     13.02700        -0.027994     -0.040686      0.076415
      9.32964      8.39767     15.74250        -0.335522      2.396198     -1.342587
     11.25944      8.11150      8.11150        -0.744703      1.272293      0.851094
      4.08836      5.40265     13.02700        -0.099285      0.008259      0.078597
      1.84210      6.90016     15.74250         0.369095      0.067650     -2.712732
      9.32965      8.39766     10.31150         0.264331     -0.760010     -0.993699
      7.08338      9.89517     13.02700        -0.017807     -0.101897      0.065774
      4.83712     11.39268     15.74250        -0.474387      2.441154     -1.389700
     16.12635      3.24460      6.48920        -0.175552      0.330823      0.550185
     10.07840     14.38770     13.02700        -0.408451      2.283779     -1.539004
      7.83213     15.88520     15.74250        -0.905285      2.198946     -1.365326
     18.31469      2.40763     10.31150         0.677988      0.235760      1.531883
     16.06843      3.90514     13.02700        -0.002980     -0.011813      0.135487
     13.82216      5.40265     15.74250         0.868587     -2.242239     -1.306595
      1.84211      6.90016     10.31150        -0.171840     -1.078346     -0.956183
     19.06344      8.39766     13.02700        -0.039520      0.071921      0.108576
     16.81718      9.89517     15.74250         0.214319      0.061221     -3.270150
     14.50404      8.11150      4.86690        -0.029913      0.967422     -0.128704
      2.59086     12.89019     13.02700         0.065879      0.115125      0.014510
     19.37095      0.00000      0.00000         0.723061     -0.490705      2.988995
      9.63715      9.73380      6.48920         0.209391     -0.797893      0.097137
      3.14795      3.24460      6.48920        -0.361652      0.520210      0.157945
      3.33961     18.88022     15.74250         0.192151     -2.252019     -0.894001
      1.52564     11.35610      8.11150         0.840339      0.502142     -2.667944
      8.58089      2.40763     13.02700         0.052360      0.008431      0.175566
      6.33462      3.90514     15.74250         0.666113     -2.249272     -1.005809
      8.01485      8.11150      4.86690         0.385584     -0.449586      0.450022
     14.57092     11.39268     13.02700        -0.007100     -0.010255      0.009222
     12.32465     12.89019     15.74250         2.138576      0.433473     -1.651573
     17.74865     17.84530      4.86690        -0.069355      0.020392      0.007997
     17.56594     15.88520     13.02700        -0.002467      0.118851      0.039165
     15.31967     17.38271     15.74250        -0.886106      2.282306     -1.322047
     14.50404     17.84530      8.11150         0.434464     -0.611449     -0.006246
      1.09335      0.91013     13.02700        -0.018422      0.061811      0.097116
     18.31469      2.40763     15.74250        -0.444603      2.377131     -0.981775
     15.31967     17.38271     10.31150         0.457180     -1.517921     -2.077846
     13.07341     18.88022     13.02700        -2.284962     -0.525910      1.805120
     10.82715      0.91013     15.74250        -0.128203      0.080337     -2.575378
     10.45278      2.78201     11.66925        -0.879652      2.275019      1.316968
      8.20651      4.27952     14.38475        -0.002557     -0.026159     -0.143552
      1.52565      4.86690      1.62230        -0.551260      0.314454      0.757716
     13.44779      7.27453     11.66925        -0.441561      2.385260      0.992583
     11.20152      8.77204     14.38475        -0.023765      0.041197     -0.205167
      8.95526     10.26955     17.10025        -0.820141     -0.150049     -2.119932
      5.96025      5.77702     11.66925        -0.119035      0.071132      2.591677
      3.71399      7.27453     14.38475         0.020053     -0.002086     -0.193959
      3.14794      6.48920      3.24460        -0.308445     -0.481069     -0.314950
      8.95527     10.26955     11.66925         0.878782     -2.275506      1.290675
      6.70901     11.76706     14.38475        -0.072700     -0.069346     -0.064785
      4.46274     13.26456     17.10025        -0.080981     -0.621835      0.599767
     11.95029     14.76207     11.66925         0.226151      0.086189      3.232930
      9.70402     16.25958     14.38475        -0.041734      0.039580     -0.059874
      7.45776     17.75709     17.10025        -0.119657      0.613125      0.782645
     17.94031      4.27952     11.66925         0.204298     -2.287001      0.914815
     15.69405      5.77702     14.38475        -0.043001     -0.011442     -0.133637
     11.25945      1.62230      1.62230         0.228025      0.575741      0.417247
      1.46773      8.77204     11.66925         0.652583     -2.238907      1.008608
     18.68907     10.26955     14.38475        -0.085409      0.059530     -0.107660
      9.63715      6.48920      3.24460        -0.434795      0.441948      0.429466
      4.46274     13.26456     11.66925        -0.315336      2.383060      1.333744
      2.21648     14.76207     14.38475         2.303621      0.364340     -1.656290
     12.88175      9.73380      3.24460         0.364091     -0.359533      0.544481
      7.45776     17.75709     11.66925         2.125347      0.431818      1.652149
      5.21150     19.25460     14.38475        -0.375301      2.249450      1.626462
      8.01485     11.35610      1.62230         0.178633     -0.124253     -0.010718
     16.44281     11.76705     11.66925         0.375317      0.056445      2.690537
     14.19654     13.26456     14.38475        -0.055075      0.062664     -0.079279
     19.37095      6.48920      0.00000        -0.057159     -0.027188      0.309155
     19.43782     16.25958     11.66925        -0.474195      2.425253      1.392917
     17.19156     17.75709     14.38475         0.022364      0.090024     -0.004809
     14.94529     19.25460     17.10025        -0.033464      0.655967      0.669457
      2.96524      1.28450     11.66925        -0.895435      2.229106      1.387822
      0.71897      2.78201     14.38475         0.093142     -0.029317     -0.102283
     17.94031      4.27952     17.10025        -0.170111      0.162443      1.352856
     14.50404      4.86690      8.11150         0.718275     -0.498894     -3.010534
     12.69903      1.28450     14.38475         0.028448      0.035894     -0.046333
     17.74864      8.11150      1.62230         0.502480     -0.295670     -0.078524
 -----------------------------------------------------------------------------------
    total drift:                                0.222197      0.035292     -0.431276


--------------------------------------------------------------------------------------------------------



  FREE ENERGIE OF THE ION-ELECTRON SYSTEM (eV)
  ---------------------------------------------------
  free  energy   TOTEN  =     -1123.67776500 eV

  energy  without entropy=    -1123.67277554  energy(sigma->0) =    -1123.67527027
 


--------------------------------------------------------------------------------------------------------


    POTLOK:  cpu time      3.0751: real time      3.0939


--------------------------------------------------------------------------------------------------------


     LOOP+:  cpu time   6421.2030: real time   6487.8712
    4ORBIT:  cpu time      0.0000: real time      0.0000

 total amount of memory used by VASP MPI-rank0   916483. kBytes
=======================================================================

   base      :      30000. kBytes
   nonlr-proj:      25179. kBytes
   fftplans  :      40892. kBytes
   grid      :      30643. kBytes
   one-center:        275. kBytes
   wavefun   :     789494. kBytes
 
  
  
 General timing and accounting informations for this job:
 ========================================================
  
                  Total CPU time used (sec):     6719.186
                            User time (sec):     6390.513
                          System time (sec):      328.673
                         Elapsed time (sec):     6794.610
  
                   Maximum memory used (kb):     1225272.
                   Average memory used (kb):          N/A
  
                          Minor page faults:       684552
                          Major page faults:         1279
                 Voluntary context switches:         4192
