  48  48   0   0
  0.2846442E+02  0.9177115E-09  0.1451029E-08  0.1081533E-08  0.5000000E-15
  1.000000000000000E-004
  CAR 
 Si and Ge interface calculation         
      7.80030883     -9.87888232  301      5.29922110      1.00000000
     -9.879  0.0000E+00  0.0000E+00  0.0000E+00  0.0000E+00
     -9.820  0.0000E+00  0.0000E+00  0.0000E+00  0.0000E+00
     -9.761  0.0000E+00  0.0000E+00  0.0000E+00  0.0000E+00
     -9.702  0.0000E+00  0.0000E+00  0.0000E+00  0.0000E+00
     -9.643  0.0000E+00  0.0000E+00  0.0000E+00  0.0000E+00
     -9.584  0.0000E+00  0.0000E+00  0.0000E+00  0.0000E+00
     -9.525  0.0000E+00  0.0000E+00  0.0000E+00  0.0000E+00
     -9.466  0.0000E+00  0.0000E+00  0.0000E+00  0.0000E+00
     -9.407  0.0000E+00  0.0000E+00  0.0000E+00  0.0000E+00
     -9.349  0.0000E+00  0.0000E+00  0.0000E+00  0.0000E+00
     -9.290  0.0000E+00  0.0000E+00  0.0000E+00  0.0000E+00
     -9.231  0.0000E+00  0.0000E+00  0.0000E+00  0.0000E+00
     -9.172  0.0000E+00  0.0000E+00  0.0000E+00  0.0000E+00
     -9.113  0.1743E-06  0.1711E-13  0.1027E-07  0.1008E-14
     -9.054  0.8461E+01  0.5578E+01  0.4986E+00  0.3287E+00
     -8.995  0.1674E+02  0.1003E+02  0.1485E+01  0.9197E+00
     -8.936  0.2554E+00  0.9847E+01  0.1500E+01  0.1500E+01
     -8.877  0.3040E-04  0.2158E-10  0.1500E+01  0.1500E+01
     -8.818  0.1697E+02  0.1535E+02  0.2500E+01  0.2405E+01
     -8.759  0.0000E+00  0.1620E+01  0.2500E+01  0.2500E+01
     -8.700  0.4829E-09  0.0000E+00  0.2500E+01  0.2500E+01
     -8.641  0.1632E+02  0.4737E+01  0.3462E+01  0.2779E+01
     -8.582  0.7296E+00  0.1223E+02  0.3505E+01  0.3500E+01
     -8.523  0.8406E+01  0.8483E+01  0.4000E+01  0.4000E+01
     -8.465  0.0000E+00  0.0000E+00  0.4000E+01  0.4000E+01
     -8.406  0.0000E+00  0.0000E+00  0.4000E+01  0.4000E+01
     -8.347  0.0000E+00  0.0000E+00  0.4000E+01  0.4000E+01
     -8.288  0.0000E+00  0.0000E+00  0.4000E+01  0.4000E+01
     -8.229  0.0000E+00  0.0000E+00  0.4000E+01  0.4000E+01
     -8.170  0.7850E-16  0.0000E+00  0.4000E+01  0.4000E+01
     -8.111  0.2077E+01  0.2603E-01  0.4122E+01  0.4002E+01
     -8.052  0.6408E+01  0.8458E+01  0.4500E+01  0.4500E+01
     -7.993  0.1663E+02  0.8150E+01  0.5480E+01  0.4980E+01
     -7.934  0.3426E+00  0.8819E+01  0.5500E+01  0.5500E+01
     -7.875  0.0000E+00  0.0000E+00  0.5500E+01  0.5500E+01
     -7.816  0.0000E+00  0.0000E+00  0.5500E+01  0.5500E+01
     -7.757  0.6249E-01  0.5327E-05  0.5504E+01  0.5500E+01
     -7.698  0.1691E+02  0.1696E+02  0.6500E+01  0.6500E+01
     -7.640  0.0000E+00  0.0000E+00  0.6500E+01  0.6500E+01
     -7.581  0.0000E+00  0.0000E+00  0.6500E+01  0.6500E+01
     -7.522  0.0000E+00  0.0000E+00  0.6500E+01  0.6500E+01
     -7.463  0.0000E+00  0.0000E+00  0.6500E+01  0.6500E+01
     -7.404  0.1453E-04  0.2818E-10  0.6500E+01  0.6500E+01
     -7.345  0.1693E+02  0.1333E+02  0.7498E+01  0.7285E+01
     -7.286  0.8135E+01  0.8761E+01  0.7977E+01  0.7802E+01
     -7.227  0.3582E+01  0.3407E+01  0.8188E+01  0.8003E+01
     -7.168  0.1404E+02  0.1692E+02  0.9016E+01  0.9000E+01
     -7.109  0.8220E+01  0.8479E+01  0.9500E+01  0.9500E+01
     -7.050  0.0000E+00  0.0000E+00  0.9500E+01  0.9500E+01
     -6.991  0.2145E-02  0.4136E-07  0.9500E+01  0.9500E+01
     -6.932  0.1697E+02  0.1679E+02  0.1050E+02  0.1049E+02
     -6.873  0.0000E+00  0.1818E+00  0.1050E+02  0.1050E+02
     -6.814  0.0000E+00  0.0000E+00  0.1050E+02  0.1050E+02
     -6.756  0.0000E+00  0.0000E+00  0.1050E+02  0.1050E+02
     -6.697  0.4082E-14  0.0000E+00  0.1050E+02  0.1050E+02
     -6.638  0.5240E+01  0.2288E+00  0.1081E+02  0.1051E+02
     -6.579  0.1173E+02  0.1674E+02  0.1150E+02  0.1150E+02
     -6.520  0.0000E+00  0.0000E+00  0.1150E+02  0.1150E+02
     -6.461  0.7612E+00  0.4141E-02  0.1154E+02  0.1150E+02
     -6.402  0.7722E+01  0.8049E+01  0.1200E+02  0.1197E+02
     -6.343  0.0000E+00  0.4312E+00  0.1200E+02  0.1200E+02
     -6.284  0.0000E+00  0.0000E+00  0.1200E+02  0.1200E+02
     -6.225  0.0000E+00  0.0000E+00  0.1200E+02  0.1200E+02
     -6.166  0.0000E+00  0.0000E+00  0.1200E+02  0.1200E+02
     -6.107  0.0000E+00  0.0000E+00  0.1200E+02  0.1200E+02
     -6.048  0.0000E+00  0.0000E+00  0.1200E+02  0.1200E+02
     -5.989  0.0000E+00  0.0000E+00  0.1200E+02  0.1200E+02
     -5.931  0.3040E-02  0.1706E-06  0.1200E+02  0.1200E+02
     -5.872  0.5273E+01  0.4251E+01  0.1231E+02  0.1225E+02
     -5.813  0.1449E+02  0.1222E+02  0.1316E+02  0.1297E+02
     -5.754  0.5687E+01  0.8978E+01  0.1350E+02  0.1350E+02
     -5.695  0.3597E-05  0.7523E-11  0.1350E+02  0.1350E+02
     -5.636  0.1684E+02  0.1120E+02  0.1449E+02  0.1416E+02
     -5.577  0.1284E+00  0.5773E+01  0.1450E+02  0.1450E+02
     -5.518  0.0000E+00  0.0000E+00  0.1450E+02  0.1450E+02
     -5.459  0.2521E+01  0.3250E-01  0.1465E+02  0.1450E+02
     -5.400  0.1707E+02  0.1618E+02  0.1565E+02  0.1546E+02
     -5.341  0.4294E+01  0.5076E+01  0.1591E+02  0.1575E+02
     -5.282  0.1287E+02  0.1465E+02  0.1667E+02  0.1662E+02
     -5.223  0.5653E+01  0.6158E+01  0.1700E+02  0.1698E+02
     -5.164  0.0000E+00  0.3308E+00  0.1700E+02  0.1700E+02
     -5.106  0.5082E-01  0.1692E-04  0.1700E+02  0.1700E+02
     -5.047  0.1169E+02  0.4984E+01  0.1769E+02  0.1729E+02
     -4.988  0.1043E+02  0.1218E+02  0.1831E+02  0.1801E+02
     -4.929  0.1034E+02  0.1479E+02  0.1892E+02  0.1888E+02
     -4.870  0.3272E+01  0.7571E+00  0.1911E+02  0.1893E+02
     -4.811  0.1766E+02  0.1520E+02  0.2015E+02  0.1982E+02
     -4.752  0.1640E+02  0.1614E+02  0.2112E+02  0.2077E+02
     -4.693  0.9207E+01  0.1346E+02  0.2166E+02  0.2157E+02
     -4.634  0.2117E+00  0.1682E+01  0.2167E+02  0.2167E+02
     -4.575  0.1872E+02  0.1033E+02  0.2277E+02  0.2228E+02
     -4.516  0.1234E+02  0.1772E+02  0.2350E+02  0.2332E+02
     -4.457  0.1439E+02  0.1255E+02  0.2435E+02  0.2406E+02
     -4.398  0.1648E+02  0.1291E+02  0.2532E+02  0.2482E+02
     -4.339  0.1573E+02  0.2219E+02  0.2625E+02  0.2613E+02
     -4.280  0.5042E+01  0.6321E+01  0.2655E+02  0.2650E+02
     -4.222  0.1637E+02  0.4960E+01  0.2751E+02  0.2679E+02
     -4.163  0.3344E+02  0.3745E+02  0.2948E+02  0.2900E+02
     -4.104  0.1736E+02  0.2524E+02  0.3050E+02  0.3049E+02
     -4.045  0.1415E+02  0.8067E+01  0.3134E+02  0.3096E+02
     -3.986  0.2238E+02  0.2499E+02  0.3266E+02  0.3244E+02
     -3.927  0.1412E+02  0.1496E+02  0.3349E+02  0.3332E+02
     -3.868  0.8785E+01  0.1010E+02  0.3401E+02  0.3391E+02
     -3.809  0.1783E+02  0.1456E+02  0.3506E+02  0.3477E+02
     -3.750  0.1710E+02  0.1858E+02  0.3606E+02  0.3587E+02
     -3.691  0.1538E+02  0.1352E+02  0.3697E+02  0.3666E+02
     -3.632  0.5087E+01  0.8130E+01  0.3727E+02  0.3714E+02
     -3.573  0.2159E+02  0.2168E+02  0.3854E+02  0.3842E+02
     -3.514  0.1556E+02  0.1437E+02  0.3946E+02  0.3927E+02
     -3.455  0.9158E+01  0.1211E+02  0.4000E+02  0.3998E+02
     -3.397  0.1022E+02  0.4947E+01  0.4060E+02  0.4027E+02
     -3.338  0.1380E+02  0.1185E+02  0.4142E+02  0.4097E+02
     -3.279  0.6736E+01  0.1220E+02  0.4181E+02  0.4169E+02
     -3.220  0.9116E+01  0.5117E+01  0.4235E+02  0.4199E+02
     -3.161  0.3662E+02  0.3573E+02  0.4451E+02  0.4409E+02
     -3.102  0.1655E+02  0.2176E+02  0.4548E+02  0.4538E+02
     -3.043  0.1028E+02  0.9245E+01  0.4609E+02  0.4592E+02
     -2.984  0.1203E+02  0.1296E+02  0.4680E+02  0.4668E+02
     -2.925  0.1870E+02  0.1653E+02  0.4790E+02  0.4766E+02
     -2.866  0.1639E+02  0.1350E+02  0.4887E+02  0.4845E+02
     -2.807  0.1526E+02  0.1959E+02  0.4977E+02  0.4961E+02
     -2.748  0.1034E+02  0.1076E+02  0.5038E+02  0.5024E+02
     -2.689  0.9961E+01  0.8474E+01  0.5096E+02  0.5074E+02
     -2.630  0.7939E+01  0.7723E+01  0.5143E+02  0.5120E+02
     -2.571  0.2381E+02  0.2760E+02  0.5283E+02  0.5282E+02
     -2.513  0.2984E+01  0.1584E+01  0.5301E+02  0.5292E+02
     -2.454  0.1637E+02  0.1515E+02  0.5397E+02  0.5381E+02
     -2.395  0.1031E+02  0.1086E+02  0.5458E+02  0.5445E+02
     -2.336  0.1378E+02  0.1269E+02  0.5539E+02  0.5520E+02
     -2.277  0.2161E+02  0.2039E+02  0.5667E+02  0.5640E+02
     -2.218  0.1320E+02  0.1207E+02  0.5745E+02  0.5711E+02
     -2.159  0.3263E+02  0.3542E+02  0.5937E+02  0.5920E+02
     -2.100  0.3804E+01  0.6261E+01  0.5959E+02  0.5957E+02
     -2.041  0.1267E+02  0.9196E+01  0.6034E+02  0.6011E+02
     -1.982  0.1128E+02  0.1265E+02  0.6100E+02  0.6085E+02
     -1.923  0.7102E+01  0.9376E+01  0.6142E+02  0.6141E+02
     -1.864  0.1475E+02  0.1056E+02  0.6229E+02  0.6203E+02
     -1.805  0.1583E+02  0.1472E+02  0.6323E+02  0.6290E+02
     -1.746  0.1835E+01  0.7402E+01  0.6333E+02  0.6333E+02
     -1.688  0.4185E+01  0.2435E+01  0.6358E+02  0.6348E+02
     -1.629  0.1790E+02  0.1763E+02  0.6463E+02  0.6452E+02
     -1.570  0.1297E+02  0.1284E+02  0.6540E+02  0.6527E+02
     -1.511  0.2036E+02  0.1968E+02  0.6660E+02  0.6643E+02
     -1.452  0.2012E+02  0.1896E+02  0.6779E+02  0.6755E+02
     -1.393  0.1415E+02  0.1346E+02  0.6862E+02  0.6834E+02
     -1.334  0.1975E+02  0.2067E+02  0.6978E+02  0.6956E+02
     -1.275  0.1626E+02  0.1566E+02  0.7074E+02  0.7048E+02
     -1.216  0.2474E+01  0.5947E+01  0.7089E+02  0.7084E+02
     -1.157  0.1007E+02  0.6598E+01  0.7148E+02  0.7122E+02
     -1.098  0.1214E+02  0.1259E+02  0.7220E+02  0.7197E+02
     -1.039  0.1293E+02  0.1477E+02  0.7296E+02  0.7284E+02
     -0.980  0.1481E+02  0.1454E+02  0.7383E+02  0.7369E+02
     -0.921  0.2525E+01  0.2669E+01  0.7398E+02  0.7385E+02
     -0.862  0.2545E+02  0.1946E+02  0.7548E+02  0.7500E+02
     -0.804  0.1492E+02  0.1934E+02  0.7636E+02  0.7614E+02
     -0.745  0.1048E+02  0.1222E+02  0.7698E+02  0.7686E+02
     -0.686  0.5297E+01  0.4468E+01  0.7729E+02  0.7712E+02
     -0.627  0.1231E+02  0.1353E+02  0.7801E+02  0.7792E+02
     -0.568  0.1280E+02  0.1264E+02  0.7877E+02  0.7866E+02
     -0.509  0.1841E+02  0.1669E+02  0.7985E+02  0.7965E+02
     -0.450  0.1471E+02  0.1544E+02  0.8072E+02  0.8056E+02
     -0.391  0.3258E+02  0.2825E+02  0.8264E+02  0.8222E+02
     -0.332  0.1135E+02  0.1485E+02  0.8331E+02  0.8310E+02
     -0.273  0.2268E+02  0.2084E+02  0.8465E+02  0.8433E+02
     -0.214  0.2152E+02  0.2417E+02  0.8591E+02  0.8575E+02
     -0.155  0.1521E+02  0.1281E+02  0.8681E+02  0.8651E+02
     -0.096  0.1684E+02  0.1884E+02  0.8780E+02  0.8762E+02
     -0.037  0.1338E+02  0.1640E+02  0.8859E+02  0.8858E+02
      0.021  0.1209E+02  0.8820E+01  0.8930E+02  0.8910E+02
      0.080  0.1245E+02  0.1288E+02  0.9004E+02  0.8986E+02
      0.139  0.1199E+02  0.9981E+01  0.9074E+02  0.9045E+02
      0.198  0.1500E+02  0.1641E+02  0.9163E+02  0.9142E+02
      0.257  0.2477E+02  0.2791E+02  0.9309E+02  0.9306E+02
      0.316  0.1285E+02  0.6747E+01  0.9384E+02  0.9346E+02
      0.375  0.1315E+02  0.1693E+02  0.9462E+02  0.9446E+02
      0.434  0.1242E+02  0.1096E+02  0.9535E+02  0.9510E+02
      0.493  0.1683E+02  0.1701E+02  0.9634E+02  0.9610E+02
      0.552  0.1783E+02  0.1927E+02  0.9739E+02  0.9724E+02
      0.611  0.2974E+02  0.2781E+02  0.9915E+02  0.9888E+02
      0.670  0.1014E+02  0.1251E+02  0.9974E+02  0.9962E+02
      0.729  0.1280E+02  0.7777E+01  0.1005E+03  0.1001E+03
      0.788  0.1518E+02  0.1563E+02  0.1014E+03  0.1010E+03
      0.846  0.9757E+01  0.1244E+02  0.1020E+03  0.1017E+03
      0.905  0.1770E+02  0.1905E+02  0.1030E+03  0.1029E+03
      0.964  0.1889E+02  0.1851E+02  0.1041E+03  0.1039E+03
      1.023  0.1742E+02  0.1683E+02  0.1052E+03  0.1049E+03
      1.082  0.1004E+02  0.1166E+02  0.1057E+03  0.1056E+03
      1.141  0.1663E+02  0.1336E+02  0.1067E+03  0.1064E+03
      1.200  0.1914E+02  0.2012E+02  0.1079E+03  0.1076E+03
      1.259  0.1084E+02  0.1143E+02  0.1085E+03  0.1083E+03
      1.318  0.2692E+02  0.2383E+02  0.1101E+03  0.1097E+03
      1.377  0.2921E+02  0.2708E+02  0.1118E+03  0.1113E+03
      1.436  0.3443E+01  0.1201E+02  0.1120E+03  0.1120E+03
      1.495  0.7108E+01  0.6054E+01  0.1124E+03  0.1123E+03
      1.554  0.1686E+02  0.1184E+02  0.1134E+03  0.1130E+03
      1.613  0.1828E+02  0.1852E+02  0.1145E+03  0.1141E+03
      1.672  0.1302E+02  0.1869E+02  0.1153E+03  0.1152E+03
      1.730  0.2241E+02  0.1686E+02  0.1166E+03  0.1162E+03
      1.789  0.1163E+02  0.1464E+02  0.1173E+03  0.1171E+03
      1.848  0.1330E+02  0.1346E+02  0.1180E+03  0.1179E+03
      1.907  0.9061E+01  0.1069E+02  0.1186E+03  0.1185E+03
      1.966  0.1456E+02  0.9231E+01  0.1194E+03  0.1190E+03
      2.025  0.2020E+02  0.2376E+02  0.1206E+03  0.1204E+03
      2.084  0.1856E+02  0.1786E+02  0.1217E+03  0.1215E+03
      2.143  0.1924E+02  0.2025E+02  0.1229E+03  0.1227E+03
      2.202  0.2106E+02  0.1577E+02  0.1241E+03  0.1236E+03
      2.261  0.1594E+02  0.1799E+02  0.1250E+03  0.1247E+03
      2.320  0.2482E+02  0.2304E+02  0.1265E+03  0.1260E+03
      2.379  0.3235E+02  0.3522E+02  0.1284E+03  0.1281E+03
      2.438  0.2319E+02  0.2233E+02  0.1298E+03  0.1294E+03
      2.497  0.1980E+02  0.1972E+02  0.1309E+03  0.1306E+03
      2.555  0.3890E+02  0.3316E+02  0.1332E+03  0.1326E+03
      2.614  0.3424E+02  0.3796E+02  0.1353E+03  0.1348E+03
      2.673  0.1889E+02  0.2551E+02  0.1364E+03  0.1363E+03
      2.732  0.2649E+02  0.2351E+02  0.1379E+03  0.1377E+03
      2.791  0.1790E+02  0.1909E+02  0.1390E+03  0.1388E+03
      2.850  0.2254E+02  0.1520E+02  0.1403E+03  0.1397E+03
      2.909  0.3508E+02  0.4105E+02  0.1424E+03  0.1421E+03
      2.968  0.2402E+02  0.2247E+02  0.1438E+03  0.1434E+03
      3.027  0.2617E+02  0.2434E+02  0.1453E+03  0.1449E+03
      3.086  0.1712E+02  0.1808E+02  0.1463E+03  0.1459E+03
      3.145  0.3119E+02  0.2542E+02  0.1482E+03  0.1474E+03
      3.204  0.3850E+02  0.4362E+02  0.1505E+03  0.1500E+03
      3.263  0.2051E+02  0.2453E+02  0.1517E+03  0.1515E+03
      3.322  0.3153E+02  0.2312E+02  0.1535E+03  0.1528E+03
      3.381  0.2870E+02  0.3018E+02  0.1552E+03  0.1546E+03
      3.439  0.1947E+02  0.2556E+02  0.1564E+03  0.1561E+03
      3.498  0.2967E+02  0.2276E+02  0.1581E+03  0.1574E+03
      3.557  0.3254E+02  0.3687E+02  0.1600E+03  0.1596E+03
      3.616  0.2226E+02  0.2715E+02  0.1613E+03  0.1612E+03
      3.675  0.1946E+02  0.1105E+02  0.1625E+03  0.1619E+03
      3.734  0.1763E+02  0.2729E+02  0.1635E+03  0.1635E+03
      3.793  0.2149E+02  0.1751E+02  0.1648E+03  0.1645E+03
      3.852  0.2840E+02  0.2244E+02  0.1665E+03  0.1658E+03
      3.911  0.2147E+02  0.3003E+02  0.1677E+03  0.1676E+03
      3.970  0.2529E+02  0.2265E+02  0.1692E+03  0.1689E+03
      4.029  0.1595E+02  0.1463E+02  0.1702E+03  0.1698E+03
      4.088  0.3316E+02  0.2389E+02  0.1721E+03  0.1712E+03
      4.147  0.1516E+02  0.2726E+02  0.1730E+03  0.1728E+03
      4.206  0.1020E+02  0.1040E+02  0.1736E+03  0.1734E+03
      4.264  0.9769E+01  0.8856E+01  0.1742E+03  0.1739E+03
      4.323  0.8923E+01  0.8237E+01  0.1747E+03  0.1744E+03
      4.382  0.2660E+02  0.2555E+02  0.1763E+03  0.1759E+03
      4.441  0.1428E+02  0.1097E+02  0.1771E+03  0.1766E+03
      4.500  0.2021E+02  0.2566E+02  0.1783E+03  0.1781E+03
      4.559  0.1073E+02  0.9231E+01  0.1789E+03  0.1786E+03
      4.618  0.1486E+02  0.1441E+02  0.1798E+03  0.1795E+03
      4.677  0.1590E+02  0.1355E+02  0.1808E+03  0.1803E+03
      4.736  0.2315E+02  0.2090E+02  0.1821E+03  0.1815E+03
      4.795  0.5900E+01  0.1521E+02  0.1825E+03  0.1824E+03
      4.854  0.1398E+02  0.7895E+01  0.1833E+03  0.1829E+03
      4.913  0.1890E+02  0.1456E+02  0.1844E+03  0.1837E+03
      4.972  0.1188E+02  0.1820E+02  0.1851E+03  0.1848E+03
      5.031  0.1782E+02  0.1525E+02  0.1862E+03  0.1857E+03
      5.089  0.2122E+02  0.1615E+02  0.1874E+03  0.1867E+03
      5.148  0.1231E+02  0.2132E+02  0.1881E+03  0.1879E+03
      5.207  0.2353E+02  0.1901E+02  0.1895E+03  0.1890E+03
      5.266  0.1910E+02  0.2040E+02  0.1906E+03  0.1902E+03
      5.325  0.1733E+02  0.2026E+02  0.1917E+03  0.1914E+03
      5.384  0.1944E+02  0.8784E+01  0.1928E+03  0.1920E+03
      5.443  0.2982E+02  0.3483E+02  0.1946E+03  0.1940E+03
      5.502  0.1280E+02  0.1929E+02  0.1953E+03  0.1951E+03
      5.561  0.2464E+02  0.1761E+02  0.1968E+03  0.1962E+03
      5.620  0.1205E+02  0.1872E+02  0.1975E+03  0.1973E+03
      5.679  0.2219E+02  0.1396E+02  0.1988E+03  0.1981E+03
      5.738  0.2343E+02  0.2878E+02  0.2002E+03  0.1998E+03
      5.797  0.3605E+02  0.3442E+02  0.2023E+03  0.2018E+03
      5.856  0.2835E+02  0.2808E+02  0.2040E+03  0.2035E+03
      5.915  0.2917E+02  0.2659E+02  0.2057E+03  0.2051E+03
      5.973  0.2650E+02  0.3024E+02  0.2072E+03  0.2068E+03
      6.032  0.2188E+02  0.2211E+02  0.2085E+03  0.2081E+03
      6.091  0.2638E+02  0.2745E+02  0.2101E+03  0.2098E+03
      6.150  0.2473E+02  0.2530E+02  0.2115E+03  0.2112E+03
      6.209  0.2472E+02  0.2101E+02  0.2130E+03  0.2125E+03
      6.268  0.3616E+02  0.3208E+02  0.2151E+03  0.2144E+03
      6.327  0.2920E+02  0.3512E+02  0.2169E+03  0.2164E+03
      6.386  0.1697E+02  0.1726E+02  0.2179E+03  0.2175E+03
      6.445  0.1507E+02  0.1504E+02  0.2187E+03  0.2183E+03
      6.504  0.3282E+02  0.2797E+02  0.2207E+03  0.2200E+03
      6.563  0.2938E+02  0.3003E+02  0.2224E+03  0.2218E+03
      6.622  0.3006E+02  0.3237E+02  0.2242E+03  0.2237E+03
      6.681  0.1990E+02  0.1957E+02  0.2254E+03  0.2248E+03
      6.740  0.3822E+02  0.3858E+02  0.2276E+03  0.2271E+03
      6.798  0.1367E+02  0.1877E+02  0.2284E+03  0.2282E+03
      6.857  0.2598E+02  0.1879E+02  0.2299E+03  0.2293E+03
      6.916  0.2055E+02  0.2755E+02  0.2312E+03  0.2309E+03
      6.975  0.1000E+02  0.9581E+01  0.2317E+03  0.2315E+03
      7.034  0.4335E+01  0.8461E+01  0.2320E+03  0.2320E+03
      7.093  0.0000E+00  0.0000E+00  0.2320E+03  0.2320E+03
      7.152  0.0000E+00  0.0000E+00  0.2320E+03  0.2320E+03
      7.211  0.0000E+00  0.0000E+00  0.2320E+03  0.2320E+03
      7.270  0.0000E+00  0.0000E+00  0.2320E+03  0.2320E+03
      7.329  0.0000E+00  0.0000E+00  0.2320E+03  0.2320E+03
      7.388  0.0000E+00  0.0000E+00  0.2320E+03  0.2320E+03
      7.447  0.0000E+00  0.0000E+00  0.2320E+03  0.2320E+03
      7.506  0.0000E+00  0.0000E+00  0.2320E+03  0.2320E+03
      7.565  0.0000E+00  0.0000E+00  0.2320E+03  0.2320E+03
      7.624  0.0000E+00  0.0000E+00  0.2320E+03  0.2320E+03
      7.682  0.0000E+00  0.0000E+00  0.2320E+03  0.2320E+03
      7.741  0.0000E+00  0.0000E+00  0.2320E+03  0.2320E+03
      7.800  0.0000E+00  0.0000E+00  0.2320E+03  0.2320E+03
