 120 120   0   0
  0.1318225E+02  0.1629300E-08  0.1629300E-08  0.7994749E-09  0.5000000E-15
  1.000000000000000E-004
  CAR 
 Si and Ge interface calculation         
      7.66636223    -14.86357344  301      4.26692646      1.00000000
    -14.864  0.0000E+00  0.0000E+00  0.0000E+00  0.0000E+00
    -14.788  0.0000E+00  0.0000E+00  0.0000E+00  0.0000E+00
    -14.713  0.0000E+00  0.0000E+00  0.0000E+00  0.0000E+00
    -14.638  0.0000E+00  0.0000E+00  0.0000E+00  0.0000E+00
    -14.563  0.0000E+00  0.0000E+00  0.0000E+00  0.0000E+00
    -14.488  0.0000E+00  0.0000E+00  0.0000E+00  0.0000E+00
    -14.413  0.0000E+00  0.0000E+00  0.0000E+00  0.0000E+00
    -14.338  0.0000E+00  0.0000E+00  0.0000E+00  0.0000E+00
    -14.263  0.0000E+00  0.0000E+00  0.0000E+00  0.0000E+00
    -14.188  0.0000E+00  0.0000E+00  0.0000E+00  0.0000E+00
    -14.113  0.0000E+00  0.0000E+00  0.0000E+00  0.0000E+00
    -14.037  0.0000E+00  0.0000E+00  0.0000E+00  0.0000E+00
    -13.962  0.0000E+00  0.0000E+00  0.0000E+00  0.0000E+00
    -13.887  0.1229E-10  0.6160E-15  0.9233E-12  0.4626E-16
    -13.812  0.2961E+01  0.2939E+01  0.2224E+00  0.2207E+00
    -13.737  0.1774E+02  0.1737E+02  0.1555E+01  0.1527E+01
    -13.662  0.4539E+01  0.1267E+01  0.1896E+01  0.1651E+01
    -13.587  0.1335E+02  0.1649E+02  0.2899E+01  0.2889E+01
    -13.512  0.1702E+02  0.1340E+02  0.4177E+01  0.3896E+01
    -13.437  0.1183E+02  0.1579E+02  0.5110E+01  0.5081E+01
    -13.362  0.1747E+02  0.1482E+02  0.6423E+01  0.6224E+01
    -13.286  0.6848E-05  0.1232E+01  0.6444E+01  0.6444E+01
    -13.211  0.8907E+01  0.6495E+01  0.7113E+01  0.6932E+01
    -13.136  0.2740E+02  0.2455E+02  0.9171E+01  0.8776E+01
    -13.061  0.1036E+02  0.1630E+02  0.1003E+02  0.1000E+02
    -12.986  0.5795E+01  0.5913E+01  0.1047E+02  0.1045E+02
    -12.911  0.1151E+02  0.1174E+02  0.1133E+02  0.1133E+02
    -12.836  0.8059E+01  0.5924E+01  0.1194E+02  0.1178E+02
    -12.761  0.2190E+02  0.1938E+02  0.1358E+02  0.1325E+02
    -12.686  0.1643E+02  0.2177E+02  0.1489E+02  0.1489E+02
    -12.611  0.2233E+02  0.2076E+02  0.1657E+02  0.1645E+02
    -12.535  0.1185E+02  0.1179E+02  0.1746E+02  0.1735E+02
    -12.460  0.4253E+01  0.5751E+01  0.1778E+02  0.1778E+02
    -12.385  0.1520E+02  0.1173E+02  0.1892E+02  0.1866E+02
    -12.310  0.1428E+02  0.1624E+02  0.2000E+02  0.1995E+02
    -12.235  0.1005E+01  0.6263E-01  0.2008E+02  0.2000E+02
    -12.160  0.2571E+02  0.2533E+02  0.2201E+02  0.2191E+02
    -12.085  0.1465E+02  0.1453E+02  0.2311E+02  0.2309E+02
    -12.010  0.6367E+01  0.1581E+01  0.2359E+02  0.2323E+02
    -11.935  0.1139E+02  0.1617E+02  0.2444E+02  0.2444E+02
    -11.860  0.1109E+02  0.6814E+01  0.2528E+02  0.2496E+02
    -11.784  0.4521E+00  0.5039E+01  0.2537E+02  0.2533E+02
    -11.709  0.1368E+02  0.1246E+02  0.2639E+02  0.2627E+02
    -11.634  0.9541E+01  0.1115E+02  0.2711E+02  0.2711E+02
    -11.559  0.1158E+02  0.9749E+01  0.2798E+02  0.2784E+02
    -11.484  0.6291E-07  0.2087E+01  0.2800E+02  0.2800E+02
    -11.409  0.2959E+01  0.2959E+01  0.2822E+02  0.2822E+02
    -11.334  0.5918E+01  0.5907E+01  0.2867E+02  0.2867E+02
    -11.259  0.3842E+01  0.1019E+01  0.2896E+02  0.2874E+02
    -11.184  0.7995E+01  0.1082E+02  0.2956E+02  0.2956E+02
    -11.109  0.2355E+02  0.2154E+02  0.3132E+02  0.3117E+02
    -11.033  0.2256E+02  0.1930E+02  0.3303E+02  0.3270E+02
    -10.958  0.1402E+01  0.5536E+01  0.3316E+02  0.3311E+02
    -10.883  0.1696E+02  0.1552E+02  0.3443E+02  0.3428E+02
    -10.808  0.2672E+02  0.2859E+02  0.3645E+02  0.3643E+02
    -10.733  0.1465E+02  0.1479E+02  0.3756E+02  0.3756E+02
    -10.658  0.5895E+01  0.5189E+01  0.3800E+02  0.3795E+02
    -10.583  0.1177E+02  0.1086E+02  0.3888E+02  0.3882E+02
    -10.508  0.1496E+02  0.1292E+02  0.4001E+02  0.3986E+02
    -10.433  0.1253E+02  0.9499E+01  0.4096E+02  0.4071E+02
    -10.358  0.1385E+02  0.1712E+02  0.4200E+02  0.4200E+02
    -10.282  0.9689E+01  0.6843E+01  0.4273E+02  0.4251E+02
    -10.207  0.2552E+01  0.4907E+01  0.4292E+02  0.4289E+02
    -10.132  0.1143E+02  0.1183E+02  0.4378E+02  0.4378E+02
    -10.057  0.5341E+01  0.2725E+01  0.4418E+02  0.4398E+02
     -9.982  0.5922E+01  0.9111E+01  0.4467E+02  0.4467E+02
     -9.907  0.1528E+02  0.1203E+02  0.4581E+02  0.4557E+02
     -9.832  0.8306E+01  0.1053E+02  0.4644E+02  0.4644E+02
     -9.757  0.1184E+02  0.1183E+02  0.4733E+02  0.4733E+02
     -9.682  0.1622E+02  0.1174E+02  0.4855E+02  0.4822E+02
     -9.607  0.1032E+02  0.1395E+02  0.4937E+02  0.4932E+02
     -9.531  0.1427E+02  0.1322E+02  0.5044E+02  0.5033E+02
     -9.456  0.3534E+02  0.3339E+02  0.5310E+02  0.5295E+02
     -9.381  0.8879E+01  0.1065E+02  0.5378E+02  0.5378E+02
     -9.306  0.1184E+02  0.7296E+01  0.5467E+02  0.5433E+02
     -9.231  0.1867E+02  0.1676E+02  0.5609E+02  0.5558E+02
     -9.156  0.2700E+02  0.3077E+02  0.5819E+02  0.5794E+02
     -9.081  0.2067E+02  0.2187E+02  0.5978E+02  0.5965E+02
     -9.006  0.1775E+02  0.1771E+02  0.6111E+02  0.6105E+02
     -8.931  0.1808E+02  0.1702E+02  0.6247E+02  0.6236E+02
     -8.856  0.3402E+02  0.3057E+02  0.6503E+02  0.6469E+02
     -8.780  0.2096E+02  0.2204E+02  0.6664E+02  0.6637E+02
     -8.705  0.1427E+02  0.1493E+02  0.6776E+02  0.6752E+02
     -8.630  0.1976E+02  0.1693E+02  0.6926E+02  0.6881E+02
     -8.555  0.2092E+02  0.2318E+02  0.7086E+02  0.7056E+02
     -8.480  0.2054E+02  0.2067E+02  0.7244E+02  0.7215E+02
     -8.405  0.1037E+02  0.1104E+02  0.7324E+02  0.7298E+02
     -8.330  0.2959E+02  0.3096E+02  0.7546E+02  0.7534E+02
     -8.255  0.1914E+02  0.1990E+02  0.7690E+02  0.7688E+02
     -8.180  0.1756E+02  0.1694E+02  0.7822E+02  0.7816E+02
     -8.105  0.1701E+02  0.1214E+02  0.7950E+02  0.7908E+02
     -8.029  0.1080E+02  0.1439E+02  0.8036E+02  0.8017E+02
     -7.954  0.8917E+01  0.9244E+01  0.8106E+02  0.8088E+02
     -7.879  0.1182E+02  0.1488E+02  0.8200E+02  0.8200E+02
     -7.804  0.5918E+01  0.5861E+01  0.8244E+02  0.8244E+02
     -7.729  0.1404E+01  0.1876E+00  0.8255E+02  0.8246E+02
     -7.654  0.1043E+02  0.1165E+02  0.8333E+02  0.8333E+02
     -7.579  0.0000E+00  0.0000E+00  0.8333E+02  0.8333E+02
     -7.504  0.2985E+01  0.1033E+01  0.8356E+02  0.8341E+02
     -7.429  0.8507E+01  0.1080E+02  0.8422E+02  0.8422E+02
     -7.354  0.3472E+00  0.6941E-02  0.8425E+02  0.8422E+02
     -7.278  0.5509E+01  0.5606E+01  0.8466E+02  0.8464E+02
     -7.203  0.2221E+01  0.9651E+00  0.8483E+02  0.8472E+02
     -7.128  0.5779E+01  0.5742E+01  0.8528E+02  0.8515E+02
     -7.053  0.9730E+01  0.7593E+01  0.8603E+02  0.8574E+02
     -6.978  0.1117E+02  0.1429E+02  0.8688E+02  0.8681E+02
     -6.903  0.9180E+01  0.7018E+01  0.8758E+02  0.8735E+02
     -6.828  0.5676E+01  0.8302E+01  0.8803E+02  0.8800E+02
     -6.753  0.6033E+01  0.5867E+01  0.8849E+02  0.8845E+02
     -6.678  0.1139E+02  0.1104E+02  0.8934E+02  0.8928E+02
     -6.603  0.7723E+01  0.6838E+01  0.8993E+02  0.8979E+02
     -6.527  0.9247E+01  0.9301E+01  0.9064E+02  0.9049E+02
     -6.452  0.1719E+02  0.1703E+02  0.9196E+02  0.9177E+02
     -6.377  0.1796E+02  0.1864E+02  0.9332E+02  0.9321E+02
     -6.302  0.2323E+02  0.1860E+02  0.9506E+02  0.9463E+02
     -6.227  0.3724E+02  0.3865E+02  0.9792E+02  0.9753E+02
     -6.152  0.1879E+02  0.2107E+02  0.9939E+02  0.9918E+02
     -6.077  0.3095E+02  0.3089E+02  0.1017E+03  0.1015E+03
     -6.002  0.2574E+02  0.2453E+02  0.1037E+03  0.1034E+03
     -5.927  0.2659E+02  0.2526E+02  0.1057E+03  0.1053E+03
     -5.852  0.1217E+02  0.1637E+02  0.1067E+03  0.1065E+03
     -5.776  0.2841E+02  0.2554E+02  0.1088E+03  0.1085E+03
     -5.701  0.2978E+02  0.2951E+02  0.1111E+03  0.1107E+03
     -5.626  0.2460E+02  0.2687E+02  0.1130E+03  0.1128E+03
     -5.551  0.1749E+02  0.1802E+02  0.1143E+03  0.1142E+03
     -5.476  0.3164E+02  0.3007E+02  0.1167E+03  0.1165E+03
     -5.401  0.3544E+02  0.3368E+02  0.1194E+03  0.1190E+03
     -5.326  0.2061E+02  0.2279E+02  0.1210E+03  0.1207E+03
     -5.251  0.2962E+02  0.2825E+02  0.1232E+03  0.1229E+03
     -5.176  0.2390E+02  0.2595E+02  0.1251E+03  0.1249E+03
     -5.101  0.2505E+02  0.2529E+02  0.1270E+03  0.1268E+03
     -5.026  0.3529E+02  0.3481E+02  0.1297E+03  0.1294E+03
     -4.950  0.3059E+02  0.2989E+02  0.1320E+03  0.1317E+03
     -4.875  0.2706E+02  0.2843E+02  0.1341E+03  0.1338E+03
     -4.800  0.3442E+02  0.3315E+02  0.1367E+03  0.1364E+03
     -4.725  0.3163E+02  0.3155E+02  0.1392E+03  0.1388E+03
     -4.650  0.2929E+02  0.3196E+02  0.1414E+03  0.1412E+03
     -4.575  0.2697E+02  0.2403E+02  0.1434E+03  0.1431E+03
     -4.500  0.2474E+02  0.2327E+02  0.1453E+03  0.1448E+03
     -4.425  0.3140E+02  0.3551E+02  0.1477E+03  0.1475E+03
     -4.350  0.2437E+02  0.2301E+02  0.1496E+03  0.1493E+03
     -4.275  0.3734E+02  0.3615E+02  0.1524E+03  0.1520E+03
     -4.199  0.4357E+02  0.4510E+02  0.1557E+03  0.1554E+03
     -4.124  0.2827E+02  0.2838E+02  0.1578E+03  0.1576E+03
     -4.049  0.3232E+02  0.3058E+02  0.1603E+03  0.1599E+03
     -3.974  0.3112E+02  0.3276E+02  0.1627E+03  0.1624E+03
     -3.899  0.2305E+02  0.2392E+02  0.1644E+03  0.1642E+03
     -3.824  0.2218E+02  0.2288E+02  0.1661E+03  0.1659E+03
     -3.749  0.1992E+02  0.1894E+02  0.1676E+03  0.1674E+03
     -3.674  0.3937E+02  0.3805E+02  0.1705E+03  0.1703E+03
     -3.599  0.2684E+02  0.2382E+02  0.1726E+03  0.1721E+03
     -3.524  0.3322E+02  0.3414E+02  0.1752E+03  0.1747E+03
     -3.448  0.1853E+02  0.2346E+02  0.1766E+03  0.1765E+03
     -3.373  0.2500E+02  0.2331E+02  0.1785E+03  0.1783E+03
     -3.298  0.3541E+02  0.3469E+02  0.1811E+03  0.1809E+03
     -3.223  0.3517E+02  0.3193E+02  0.1838E+03  0.1834E+03
     -3.148  0.2770E+02  0.2820E+02  0.1859E+03  0.1855E+03
     -3.073  0.3446E+02  0.3729E+02  0.1886E+03  0.1883E+03
     -2.998  0.2815E+02  0.2685E+02  0.1907E+03  0.1903E+03
     -2.923  0.3253E+02  0.3399E+02  0.1932E+03  0.1929E+03
     -2.848  0.3045E+02  0.3050E+02  0.1955E+03  0.1952E+03
     -2.773  0.1758E+02  0.2034E+02  0.1969E+03  0.1968E+03
     -2.697  0.2046E+02  0.2031E+02  0.1984E+03  0.1983E+03
     -2.622  0.1804E+02  0.1661E+02  0.1998E+03  0.1996E+03
     -2.547  0.1870E+02  0.1683E+02  0.2012E+03  0.2009E+03
     -2.472  0.2169E+02  0.2499E+02  0.2029E+03  0.2028E+03
     -2.397  0.2049E+02  0.1846E+02  0.2045E+03  0.2042E+03
     -2.322  0.3723E+02  0.3834E+02  0.2073E+03  0.2070E+03
     -2.247  0.3196E+02  0.3092E+02  0.2097E+03  0.2094E+03
     -2.172  0.3622E+02  0.3685E+02  0.2124E+03  0.2122E+03
     -2.097  0.3592E+02  0.3471E+02  0.2152E+03  0.2148E+03
     -2.022  0.3511E+02  0.3593E+02  0.2178E+03  0.2176E+03
     -1.946  0.3322E+02  0.3186E+02  0.2203E+03  0.2201E+03
     -1.871  0.3693E+02  0.3613E+02  0.2231E+03  0.2228E+03
     -1.796  0.3221E+02  0.3155E+02  0.2256E+03  0.2252E+03
     -1.721  0.2753E+02  0.2925E+02  0.2278E+03  0.2274E+03
     -1.646  0.3284E+02  0.3244E+02  0.2303E+03  0.2299E+03
     -1.571  0.3215E+02  0.3227E+02  0.2327E+03  0.2323E+03
     -1.496  0.4226E+02  0.4137E+02  0.2359E+03  0.2355E+03
     -1.421  0.4075E+02  0.4190E+02  0.2390E+03  0.2387E+03
     -1.346  0.3513E+02  0.3672E+02  0.2417E+03  0.2415E+03
     -1.271  0.4972E+02  0.4652E+02  0.2455E+03  0.2450E+03
     -1.195  0.3837E+02  0.3866E+02  0.2484E+03  0.2480E+03
     -1.120  0.4068E+02  0.4296E+02  0.2515E+03  0.2512E+03
     -1.045  0.3336E+02  0.3174E+02  0.2540E+03  0.2536E+03
     -0.970  0.4970E+02  0.5045E+02  0.2578E+03  0.2574E+03
     -0.895  0.3415E+02  0.3357E+02  0.2604E+03  0.2600E+03
     -0.820  0.3754E+02  0.3736E+02  0.2632E+03  0.2629E+03
     -0.745  0.3858E+02  0.3677E+02  0.2661E+03  0.2657E+03
     -0.670  0.4487E+02  0.4858E+02  0.2696E+03  0.2694E+03
     -0.595  0.4383E+02  0.4277E+02  0.2729E+03  0.2726E+03
     -0.520  0.3736E+02  0.3608E+02  0.2758E+03  0.2754E+03
     -0.444  0.5107E+02  0.5096E+02  0.2797E+03  0.2792E+03
     -0.369  0.3287E+02  0.3603E+02  0.2822E+03  0.2820E+03
     -0.294  0.3333E+02  0.3102E+02  0.2847E+03  0.2843E+03
     -0.219  0.3207E+02  0.3177E+02  0.2871E+03  0.2868E+03
     -0.144  0.3279E+02  0.3135E+02  0.2896E+03  0.2892E+03
     -0.069  0.2995E+02  0.3142E+02  0.2919E+03  0.2916E+03
      0.006  0.3128E+02  0.3020E+02  0.2942E+03  0.2939E+03
      0.081  0.3253E+02  0.3369E+02  0.2967E+03  0.2965E+03
      0.156  0.3270E+02  0.2950E+02  0.2992E+03  0.2987E+03
      0.231  0.3496E+02  0.3599E+02  0.3018E+03  0.3015E+03
      0.307  0.3446E+02  0.3561E+02  0.3044E+03  0.3042E+03
      0.382  0.3004E+02  0.2987E+02  0.3067E+03  0.3065E+03
      0.457  0.4516E+02  0.4088E+02  0.3101E+03  0.3096E+03
      0.532  0.4414E+02  0.4703E+02  0.3135E+03  0.3132E+03
      0.607  0.3176E+02  0.3114E+02  0.3159E+03  0.3156E+03
      0.682  0.3314E+02  0.3300E+02  0.3184E+03  0.3181E+03
      0.757  0.3234E+02  0.3370E+02  0.3209E+03  0.3206E+03
      0.832  0.3240E+02  0.3226E+02  0.3234E+03  0.3230E+03
      0.907  0.3715E+02  0.3217E+02  0.3262E+03  0.3255E+03
      0.982  0.3924E+02  0.3976E+02  0.3291E+03  0.3286E+03
      1.058  0.3891E+02  0.4060E+02  0.3321E+03  0.3318E+03
      1.133  0.4992E+02  0.4858E+02  0.3359E+03  0.3354E+03
      1.208  0.4122E+02  0.4192E+02  0.3390E+03  0.3387E+03
      1.283  0.3773E+02  0.3360E+02  0.3419E+03  0.3413E+03
      1.358  0.4313E+02  0.4262E+02  0.3452E+03  0.3445E+03
      1.433  0.3498E+02  0.4133E+02  0.3478E+03  0.3476E+03
      1.508  0.3509E+02  0.2902E+02  0.3504E+03  0.3498E+03
      1.583  0.4080E+02  0.4148E+02  0.3536E+03  0.3530E+03
      1.658  0.4059E+02  0.4170E+02  0.3567E+03  0.3562E+03
      1.733  0.4736E+02  0.4473E+02  0.3603E+03  0.3596E+03
      1.809  0.3970E+02  0.4406E+02  0.3633E+03  0.3630E+03
      1.884  0.4861E+02  0.4603E+02  0.3670E+03  0.3665E+03
      1.959  0.3364E+02  0.3339E+02  0.3696E+03  0.3691E+03
      2.034  0.5079E+02  0.5002E+02  0.3734E+03  0.3728E+03
      2.109  0.4288E+02  0.3964E+02  0.3767E+03  0.3758E+03
      2.184  0.4107E+02  0.4612E+02  0.3799E+03  0.3793E+03
      2.259  0.4461E+02  0.4471E+02  0.3833E+03  0.3827E+03
      2.334  0.4030E+02  0.3777E+02  0.3863E+03  0.3857E+03
      2.409  0.3898E+02  0.3779E+02  0.3893E+03  0.3885E+03
      2.484  0.5832E+02  0.5826E+02  0.3937E+03  0.3930E+03
      2.560  0.5518E+02  0.5650E+02  0.3979E+03  0.3972E+03
      2.635  0.3905E+02  0.3809E+02  0.4009E+03  0.4002E+03
      2.710  0.4653E+02  0.4808E+02  0.4045E+03  0.4038E+03
      2.785  0.4820E+02  0.4554E+02  0.4081E+03  0.4073E+03
      2.860  0.4670E+02  0.4682E+02  0.4116E+03  0.4109E+03
      2.935  0.5550E+02  0.5875E+02  0.4159E+03  0.4153E+03
      3.010  0.4675E+02  0.4568E+02  0.4194E+03  0.4188E+03
      3.085  0.4321E+02  0.4483E+02  0.4227E+03  0.4223E+03
      3.160  0.5283E+02  0.5361E+02  0.4267E+03  0.4264E+03
      3.235  0.4880E+02  0.4201E+02  0.4304E+03  0.4296E+03
      3.311  0.5133E+02  0.5281E+02  0.4343E+03  0.4337E+03
      3.386  0.5075E+02  0.5252E+02  0.4381E+03  0.4377E+03
      3.461  0.4779E+02  0.4558E+02  0.4417E+03  0.4412E+03
      3.536  0.4514E+02  0.4481E+02  0.4451E+03  0.4446E+03
      3.611  0.3922E+02  0.3780E+02  0.4481E+03  0.4474E+03
      3.686  0.4131E+02  0.4015E+02  0.4512E+03  0.4505E+03
      3.761  0.4844E+02  0.4853E+02  0.4549E+03  0.4542E+03
      3.836  0.4796E+02  0.4490E+02  0.4586E+03  0.4576E+03
      3.911  0.4619E+02  0.4608E+02  0.4621E+03  0.4611E+03
      3.986  0.5650E+02  0.5672E+02  0.4665E+03  0.4654E+03
      4.062  0.4022E+02  0.4123E+02  0.4695E+03  0.4685E+03
      4.137  0.4735E+02  0.5106E+02  0.4732E+03  0.4723E+03
      4.212  0.5745E+02  0.5080E+02  0.4775E+03  0.4762E+03
      4.287  0.4908E+02  0.4993E+02  0.4813E+03  0.4801E+03
      4.362  0.4651E+02  0.4959E+02  0.4849E+03  0.4838E+03
      4.437  0.5186E+02  0.4784E+02  0.4888E+03  0.4875E+03
      4.512  0.3646E+02  0.4531E+02  0.4916E+03  0.4909E+03
      4.587  0.6707E+02  0.6172E+02  0.4967E+03  0.4955E+03
      4.662  0.3687E+02  0.4087E+02  0.4995E+03  0.4986E+03
      4.737  0.3332E+02  0.3235E+02  0.5020E+03  0.5011E+03
      4.813  0.3855E+02  0.4158E+02  0.5050E+03  0.5042E+03
      4.888  0.3761E+02  0.4091E+02  0.5079E+03  0.5074E+03
      4.963  0.4693E+02  0.4146E+02  0.5114E+03  0.5105E+03
      5.038  0.5227E+02  0.4911E+02  0.5154E+03  0.5143E+03
      5.113  0.3332E+02  0.3735E+02  0.5180E+03  0.5171E+03
      5.188  0.2810E+02  0.3560E+02  0.5201E+03  0.5198E+03
      5.263  0.4394E+02  0.3560E+02  0.5235E+03  0.5225E+03
      5.338  0.4057E+02  0.4023E+02  0.5266E+03  0.5256E+03
      5.413  0.3997E+02  0.4223E+02  0.5296E+03  0.5288E+03
      5.488  0.5262E+02  0.5280E+02  0.5336E+03  0.5328E+03
      5.564  0.4129E+02  0.4202E+02  0.5368E+03  0.5360E+03
      5.639  0.3747E+02  0.3774E+02  0.5397E+03  0.5388E+03
      5.714  0.4842E+02  0.4802E+02  0.5433E+03  0.5425E+03
      5.789  0.4144E+02  0.4552E+02  0.5465E+03  0.5459E+03
      5.864  0.4159E+02  0.3822E+02  0.5497E+03  0.5489E+03
      5.939  0.2411E+02  0.2832E+02  0.5516E+03  0.5510E+03
      6.014  0.3529E+02  0.3544E+02  0.5542E+03  0.5537E+03
      6.089  0.3050E+02  0.2581E+02  0.5566E+03  0.5557E+03
      6.164  0.3371E+02  0.3880E+02  0.5592E+03  0.5586E+03
      6.239  0.4865E+02  0.4375E+02  0.5628E+03  0.5620E+03
      6.315  0.3521E+02  0.4080E+02  0.5655E+03  0.5651E+03
      6.390  0.4016E+02  0.3829E+02  0.5685E+03  0.5680E+03
      6.465  0.4075E+02  0.4038E+02  0.5717E+03  0.5711E+03
      6.540  0.3852E+02  0.3868E+02  0.5746E+03  0.5740E+03
      6.615  0.1741E+02  0.2175E+02  0.5759E+03  0.5757E+03
      6.690  0.1412E+01  0.4063E+01  0.5760E+03  0.5760E+03
      6.765  0.0000E+00  0.0000E+00  0.5760E+03  0.5760E+03
      6.840  0.0000E+00  0.0000E+00  0.5760E+03  0.5760E+03
      6.915  0.0000E+00  0.0000E+00  0.5760E+03  0.5760E+03
      6.990  0.0000E+00  0.0000E+00  0.5760E+03  0.5760E+03
      7.066  0.0000E+00  0.0000E+00  0.5760E+03  0.5760E+03
      7.141  0.0000E+00  0.0000E+00  0.5760E+03  0.5760E+03
      7.216  0.0000E+00  0.0000E+00  0.5760E+03  0.5760E+03
      7.291  0.0000E+00  0.0000E+00  0.5760E+03  0.5760E+03
      7.366  0.0000E+00  0.0000E+00  0.5760E+03  0.5760E+03
      7.441  0.0000E+00  0.0000E+00  0.5760E+03  0.5760E+03
      7.516  0.0000E+00  0.0000E+00  0.5760E+03  0.5760E+03
      7.591  0.0000E+00  0.0000E+00  0.5760E+03  0.5760E+03
      7.666  0.0000E+00  0.0000E+00  0.5760E+03  0.5760E+03
