 264 264   0   0
  0.2770664E+02  0.1946760E-08  0.1946760E-08  0.1930025E-08  0.5000000E-15
  1.000000000000000E-004
  CAR 
 Si and Ge interface calculation         
      6.65271779     -8.88353897  301      4.06359001      1.00000000
     -8.884  0.0000E+00  0.0000E+00  0.0000E+00  0.0000E+00
     -8.832  0.0000E+00  0.0000E+00  0.0000E+00  0.0000E+00
     -8.780  0.0000E+00  0.0000E+00  0.0000E+00  0.0000E+00
     -8.728  0.0000E+00  0.0000E+00  0.0000E+00  0.0000E+00
     -8.676  0.0000E+00  0.0000E+00  0.0000E+00  0.0000E+00
     -8.625  0.0000E+00  0.0000E+00  0.0000E+00  0.0000E+00
     -8.573  0.0000E+00  0.0000E+00  0.0000E+00  0.0000E+00
     -8.521  0.0000E+00  0.0000E+00  0.0000E+00  0.0000E+00
     -8.469  0.0000E+00  0.0000E+00  0.0000E+00  0.0000E+00
     -8.417  0.0000E+00  0.0000E+00  0.0000E+00  0.0000E+00
     -8.366  0.0000E+00  0.0000E+00  0.0000E+00  0.0000E+00
     -8.314  0.0000E+00  0.0000E+00  0.0000E+00  0.0000E+00
     -8.262  0.0000E+00  0.0000E+00  0.0000E+00  0.0000E+00
     -8.210  0.1492E-04  0.4115E-05  0.7725E-06  0.2131E-06
     -8.159  0.9627E+01  0.9580E+01  0.4986E+00  0.4961E+00
     -8.107  0.1867E+02  0.1831E+02  0.1466E+01  0.1444E+01
     -8.055  0.1976E+02  0.2001E+02  0.2489E+01  0.2481E+01
     -8.003  0.1933E+02  0.1933E+02  0.3490E+01  0.3482E+01
     -7.951  0.3470E+01  0.2816E+01  0.3670E+01  0.3627E+01
     -7.900  0.1603E+02  0.1683E+02  0.4500E+01  0.4499E+01
     -7.848  0.1767E+02  0.1647E+02  0.5415E+01  0.5352E+01
     -7.796  0.2890E+02  0.2806E+02  0.6912E+01  0.6805E+01
     -7.744  0.2250E+02  0.2407E+02  0.8077E+01  0.8052E+01
     -7.692  0.3394E+02  0.3317E+02  0.9835E+01  0.9769E+01
     -7.641  0.1283E+02  0.1407E+02  0.1050E+02  0.1050E+02
     -7.589  0.1876E-01  0.4119E-01  0.1050E+02  0.1050E+02
     -7.537  0.8060E+00  0.5020E+00  0.1054E+02  0.1053E+02
     -7.485  0.1845E+02  0.1707E+02  0.1150E+02  0.1141E+02
     -7.433  0.5086E+02  0.5086E+02  0.1413E+02  0.1404E+02
     -7.382  0.1679E+02  0.1847E+02  0.1500E+02  0.1500E+02
     -7.330  0.2000E+02  0.1947E+02  0.1604E+02  0.1601E+02
     -7.278  0.2028E+02  0.2020E+02  0.1709E+02  0.1705E+02
     -7.226  0.4913E+02  0.4841E+02  0.1963E+02  0.1956E+02
     -7.175  0.7538E+01  0.8685E+01  0.2002E+02  0.2001E+02
     -7.123  0.3792E+02  0.3777E+02  0.2199E+02  0.2197E+02
     -7.071  0.3452E+02  0.3290E+02  0.2377E+02  0.2367E+02
     -7.019  0.4580E+02  0.4450E+02  0.2614E+02  0.2598E+02
     -6.967  0.3791E+02  0.4028E+02  0.2811E+02  0.2806E+02
     -6.916  0.3643E+02  0.3687E+02  0.2999E+02  0.2997E+02
     -6.864  0.3088E+02  0.2916E+02  0.3159E+02  0.3148E+02
     -6.812  0.4619E+02  0.4589E+02  0.3399E+02  0.3386E+02
     -6.760  0.3032E+02  0.3200E+02  0.3556E+02  0.3551E+02
     -6.708  0.5441E+02  0.5232E+02  0.3837E+02  0.3822E+02
     -6.657  0.5580E+02  0.5628E+02  0.4126E+02  0.4114E+02
     -6.605  0.5503E+02  0.5384E+02  0.4411E+02  0.4393E+02
     -6.553  0.4610E+02  0.4969E+02  0.4650E+02  0.4650E+02
     -6.501  0.3682E+02  0.3583E+02  0.4841E+02  0.4835E+02
     -6.450  0.3618E+02  0.3526E+02  0.5028E+02  0.5018E+02
     -6.398  0.4033E+02  0.4044E+02  0.5237E+02  0.5228E+02
     -6.346  0.4864E+02  0.4884E+02  0.5489E+02  0.5480E+02
     -6.294  0.2195E+02  0.2115E+02  0.5603E+02  0.5590E+02
     -6.242  0.5595E+02  0.5645E+02  0.5892E+02  0.5882E+02
     -6.191  0.4950E+02  0.4963E+02  0.6149E+02  0.6139E+02
     -6.139  0.7678E+02  0.7351E+02  0.6546E+02  0.6520E+02
     -6.087  0.7923E+02  0.8063E+02  0.6957E+02  0.6938E+02
     -6.035  0.8340E+02  0.8430E+02  0.7388E+02  0.7374E+02
     -5.983  0.8159E+02  0.8348E+02  0.7811E+02  0.7806E+02
     -5.932  0.4513E+02  0.4405E+02  0.8045E+02  0.8035E+02
     -5.880  0.6035E+02  0.5950E+02  0.8357E+02  0.8343E+02
     -5.828  0.6311E+02  0.6101E+02  0.8684E+02  0.8659E+02
     -5.776  0.8788E+02  0.8855E+02  0.9139E+02  0.9117E+02
     -5.725  0.6193E+02  0.6367E+02  0.9460E+02  0.9447E+02
     -5.673  0.8084E+02  0.7831E+02  0.9879E+02  0.9853E+02
     -5.621  0.8458E+02  0.8562E+02  0.1032E+03  0.1030E+03
     -5.569  0.7899E+02  0.7873E+02  0.1073E+03  0.1070E+03
     -5.517  0.7592E+02  0.7589E+02  0.1112E+03  0.1110E+03
     -5.466  0.6910E+02  0.6936E+02  0.1148E+03  0.1146E+03
     -5.414  0.6989E+02  0.7160E+02  0.1184E+03  0.1183E+03
     -5.362  0.5913E+02  0.5892E+02  0.1214E+03  0.1213E+03
     -5.310  0.9094E+02  0.9084E+02  0.1262E+03  0.1260E+03
     -5.258  0.7020E+02  0.6766E+02  0.1298E+03  0.1295E+03
     -5.207  0.7693E+02  0.7746E+02  0.1338E+03  0.1335E+03
     -5.155  0.6981E+02  0.7172E+02  0.1374E+03  0.1373E+03
     -5.103  0.6006E+02  0.5915E+02  0.1405E+03  0.1403E+03
     -5.051  0.8110E+02  0.7890E+02  0.1447E+03  0.1444E+03
     -4.999  0.8178E+02  0.8394E+02  0.1489E+03  0.1487E+03
     -4.948  0.6445E+02  0.6464E+02  0.1523E+03  0.1521E+03
     -4.896  0.5569E+02  0.5517E+02  0.1552E+03  0.1550E+03
     -4.844  0.8758E+02  0.8703E+02  0.1597E+03  0.1595E+03
     -4.792  0.1111E+03  0.1084E+03  0.1655E+03  0.1651E+03
     -4.741  0.1166E+03  0.1182E+03  0.1715E+03  0.1712E+03
     -4.689  0.1024E+03  0.1029E+03  0.1768E+03  0.1765E+03
     -4.637  0.1040E+03  0.1021E+03  0.1822E+03  0.1818E+03
     -4.585  0.1050E+03  0.1054E+03  0.1876E+03  0.1873E+03
     -4.533  0.9965E+02  0.1002E+03  0.1928E+03  0.1925E+03
     -4.482  0.1140E+03  0.1117E+03  0.1987E+03  0.1982E+03
     -4.430  0.8846E+02  0.9151E+02  0.2033E+03  0.2030E+03
     -4.378  0.9380E+02  0.9560E+02  0.2081E+03  0.2079E+03
     -4.326  0.7431E+02  0.7307E+02  0.2120E+03  0.2117E+03
     -4.274  0.7424E+02  0.7258E+02  0.2158E+03  0.2155E+03
     -4.223  0.6780E+02  0.6757E+02  0.2193E+03  0.2190E+03
     -4.171  0.8250E+02  0.8178E+02  0.2236E+03  0.2232E+03
     -4.119  0.8273E+02  0.8629E+02  0.2279E+03  0.2277E+03
     -4.067  0.5557E+02  0.5570E+02  0.2308E+03  0.2306E+03
     -4.016  0.7114E+02  0.7137E+02  0.2344E+03  0.2343E+03
     -3.964  0.5744E+02  0.5649E+02  0.2374E+03  0.2372E+03
     -3.912  0.8282E+02  0.8199E+02  0.2417E+03  0.2414E+03
     -3.860  0.6814E+02  0.6854E+02  0.2452E+03  0.2450E+03
     -3.808  0.6271E+02  0.6390E+02  0.2485E+03  0.2483E+03
     -3.757  0.7171E+02  0.7111E+02  0.2522E+03  0.2520E+03
     -3.705  0.5488E+02  0.5486E+02  0.2550E+03  0.2548E+03
     -3.653  0.8243E+02  0.8075E+02  0.2593E+03  0.2590E+03
     -3.601  0.7340E+02  0.7575E+02  0.2631E+03  0.2629E+03
     -3.549  0.3728E+02  0.3996E+02  0.2650E+03  0.2650E+03
     -3.498  0.5570E+02  0.4968E+02  0.2679E+03  0.2676E+03
     -3.446  0.8583E+02  0.9044E+02  0.2724E+03  0.2722E+03
     -3.394  0.6749E+02  0.6229E+02  0.2759E+03  0.2755E+03
     -3.342  0.8412E+02  0.8619E+02  0.2802E+03  0.2799E+03
     -3.290  0.6188E+02  0.6208E+02  0.2834E+03  0.2832E+03
     -3.239  0.8828E+02  0.9018E+02  0.2880E+03  0.2878E+03
     -3.187  0.8552E+02  0.8198E+02  0.2924E+03  0.2921E+03
     -3.135  0.7688E+02  0.7817E+02  0.2964E+03  0.2961E+03
     -3.083  0.7047E+02  0.7133E+02  0.3001E+03  0.2998E+03
     -3.032  0.7835E+02  0.7893E+02  0.3041E+03  0.3039E+03
     -2.980  0.5566E+02  0.5474E+02  0.3070E+03  0.3067E+03
     -2.928  0.7648E+02  0.7370E+02  0.3110E+03  0.3106E+03
     -2.876  0.1152E+03  0.1168E+03  0.3169E+03  0.3166E+03
     -2.824  0.8444E+02  0.8750E+02  0.3213E+03  0.3211E+03
     -2.773  0.7985E+02  0.7728E+02  0.3254E+03  0.3251E+03
     -2.721  0.1079E+03  0.1093E+03  0.3310E+03  0.3308E+03
     -2.669  0.1013E+03  0.9975E+02  0.3363E+03  0.3360E+03
     -2.617  0.8764E+02  0.8816E+02  0.3408E+03  0.3405E+03
     -2.565  0.1133E+03  0.1107E+03  0.3467E+03  0.3463E+03
     -2.514  0.1332E+03  0.1340E+03  0.3536E+03  0.3532E+03
     -2.462  0.1163E+03  0.1185E+03  0.3596E+03  0.3593E+03
     -2.410  0.7909E+02  0.8070E+02  0.3637E+03  0.3635E+03
     -2.358  0.9179E+02  0.9016E+02  0.3684E+03  0.3682E+03
     -2.307  0.9860E+02  0.9744E+02  0.3735E+03  0.3732E+03
     -2.255  0.1075E+03  0.1090E+03  0.3791E+03  0.3789E+03
     -2.203  0.6727E+02  0.6839E+02  0.3826E+03  0.3824E+03
     -2.151  0.3321E+02  0.3458E+02  0.3843E+03  0.3842E+03
     -2.099  0.6172E+02  0.6023E+02  0.3875E+03  0.3873E+03
     -2.048  0.5825E+02  0.5609E+02  0.3905E+03  0.3902E+03
     -1.996  0.9024E+02  0.9119E+02  0.3952E+03  0.3950E+03
     -1.944  0.9034E+02  0.9019E+02  0.3999E+03  0.3996E+03
     -1.892  0.1072E+03  0.1078E+03  0.4054E+03  0.4052E+03
     -1.840  0.5516E+02  0.5505E+02  0.4083E+03  0.4081E+03
     -1.789  0.8635E+02  0.8733E+02  0.4128E+03  0.4126E+03
     -1.737  0.9759E+02  0.9393E+02  0.4178E+03  0.4174E+03
     -1.685  0.1035E+03  0.1056E+03  0.4232E+03  0.4229E+03
     -1.633  0.7348E+02  0.7424E+02  0.4270E+03  0.4268E+03
     -1.581  0.8478E+02  0.8310E+02  0.4314E+03  0.4311E+03
     -1.530  0.8852E+02  0.9117E+02  0.4360E+03  0.4358E+03
     -1.478  0.6781E+02  0.6604E+02  0.4395E+03  0.4392E+03
     -1.426  0.4235E+02  0.4637E+02  0.4417E+03  0.4416E+03
     -1.374  0.5971E+02  0.5604E+02  0.4448E+03  0.4445E+03
     -1.323  0.6790E+02  0.7063E+02  0.4483E+03  0.4482E+03
     -1.271  0.5628E+02  0.5582E+02  0.4512E+03  0.4511E+03
     -1.219  0.5595E+02  0.5555E+02  0.4541E+03  0.4539E+03
     -1.167  0.4191E+02  0.4155E+02  0.4562E+03  0.4561E+03
     -1.115  0.5489E+02  0.5460E+02  0.4591E+03  0.4589E+03
     -1.064  0.5653E+02  0.5697E+02  0.4620E+03  0.4619E+03
     -1.012  0.6734E+02  0.6531E+02  0.4655E+03  0.4652E+03
     -0.960  0.2798E+02  0.3201E+02  0.4670E+03  0.4669E+03
     -0.908  0.4026E+02  0.3689E+02  0.4690E+03  0.4688E+03
     -0.856  0.5780E+02  0.5883E+02  0.4720E+03  0.4719E+03
     -0.805  0.7565E+02  0.7424E+02  0.4760E+03  0.4757E+03
     -0.753  0.5866E+02  0.6083E+02  0.4790E+03  0.4788E+03
     -0.701  0.5673E+02  0.5167E+02  0.4819E+03  0.4815E+03
     -0.649  0.7220E+02  0.7497E+02  0.4857E+03  0.4854E+03
     -0.598  0.3566E+02  0.3943E+02  0.4875E+03  0.4874E+03
     -0.546  0.2996E+02  0.2965E+02  0.4891E+03  0.4890E+03
     -0.494  0.1007E+02  0.9389E+01  0.4896E+03  0.4895E+03
     -0.442  0.4143E+02  0.4170E+02  0.4917E+03  0.4916E+03
     -0.390  0.4153E+02  0.4058E+02  0.4939E+03  0.4937E+03
     -0.339  0.5108E+02  0.4975E+02  0.4965E+03  0.4963E+03
     -0.287  0.9192E+02  0.9334E+02  0.5013E+03  0.5011E+03
     -0.235  0.6073E+02  0.5990E+02  0.5044E+03  0.5042E+03
     -0.183  0.8793E+02  0.8764E+02  0.5090E+03  0.5088E+03
     -0.131  0.1033E+03  0.1008E+03  0.5143E+03  0.5140E+03
     -0.080  0.1124E+03  0.1135E+03  0.5202E+03  0.5199E+03
     -0.028  0.1379E+03  0.1364E+03  0.5273E+03  0.5269E+03
      0.024  0.9485E+02  0.9706E+02  0.5322E+03  0.5320E+03
      0.076  0.1659E+03  0.1614E+03  0.5408E+03  0.5403E+03
      0.127  0.1310E+03  0.1363E+03  0.5476E+03  0.5474E+03
      0.179  0.7538E+02  0.7563E+02  0.5515E+03  0.5513E+03
      0.231  0.8301E+02  0.8051E+02  0.5558E+03  0.5555E+03
      0.283  0.9342E+02  0.9566E+02  0.5606E+03  0.5604E+03
      0.335  0.6928E+02  0.7070E+02  0.5642E+03  0.5641E+03
      0.386  0.1043E+03  0.9857E+02  0.5696E+03  0.5692E+03
      0.438  0.9583E+02  0.1009E+03  0.5746E+03  0.5744E+03
      0.490  0.6949E+02  0.7085E+02  0.5782E+03  0.5781E+03
      0.542  0.1183E+03  0.1153E+03  0.5843E+03  0.5841E+03
      0.594  0.1421E+03  0.1412E+03  0.5917E+03  0.5914E+03
      0.645  0.1440E+03  0.1421E+03  0.5991E+03  0.5987E+03
      0.697  0.1367E+03  0.1389E+03  0.6062E+03  0.6059E+03
      0.749  0.1201E+03  0.1211E+03  0.6124E+03  0.6122E+03
      0.801  0.1166E+03  0.1154E+03  0.6185E+03  0.6182E+03
      0.853  0.1122E+03  0.1134E+03  0.6243E+03  0.6240E+03
      0.904  0.9440E+02  0.9420E+02  0.6292E+03  0.6289E+03
      0.956  0.9659E+02  0.9559E+02  0.6342E+03  0.6339E+03
      1.008  0.1163E+03  0.1174E+03  0.6402E+03  0.6399E+03
      1.060  0.1731E+03  0.1695E+03  0.6491E+03  0.6487E+03
      1.111  0.1290E+03  0.1322E+03  0.6558E+03  0.6556E+03
      1.163  0.1598E+03  0.1548E+03  0.6641E+03  0.6636E+03
      1.215  0.1543E+03  0.1540E+03  0.6721E+03  0.6716E+03
      1.267  0.1750E+03  0.1778E+03  0.6812E+03  0.6808E+03
      1.319  0.1756E+03  0.1724E+03  0.6903E+03  0.6897E+03
      1.370  0.1983E+03  0.2009E+03  0.7005E+03  0.7001E+03
      1.422  0.1576E+03  0.1608E+03  0.7087E+03  0.7084E+03
      1.474  0.1457E+03  0.1420E+03  0.7162E+03  0.7158E+03
      1.526  0.2137E+03  0.2106E+03  0.7273E+03  0.7267E+03
      1.578  0.2052E+03  0.2053E+03  0.7379E+03  0.7373E+03
      1.629  0.1908E+03  0.1905E+03  0.7478E+03  0.7472E+03
      1.681  0.1468E+03  0.1485E+03  0.7554E+03  0.7549E+03
      1.733  0.2011E+03  0.1998E+03  0.7658E+03  0.7652E+03
      1.785  0.1700E+03  0.1721E+03  0.7746E+03  0.7741E+03
      1.836  0.1944E+03  0.1917E+03  0.7847E+03  0.7841E+03
      1.888  0.1604E+03  0.1617E+03  0.7930E+03  0.7924E+03
      1.940  0.1972E+03  0.1949E+03  0.8032E+03  0.8025E+03
      1.992  0.1815E+03  0.1846E+03  0.8126E+03  0.8121E+03
      2.044  0.1678E+03  0.1672E+03  0.8213E+03  0.8208E+03
      2.095  0.1805E+03  0.1818E+03  0.8306E+03  0.8302E+03
      2.147  0.1860E+03  0.1831E+03  0.8403E+03  0.8397E+03
      2.199  0.1885E+03  0.1907E+03  0.8500E+03  0.8495E+03
      2.251  0.1555E+03  0.1539E+03  0.8581E+03  0.8575E+03
      2.303  0.1736E+03  0.1735E+03  0.8671E+03  0.8665E+03
      2.354  0.1669E+03  0.1675E+03  0.8757E+03  0.8752E+03
      2.406  0.2010E+03  0.2014E+03  0.8861E+03  0.8856E+03
      2.458  0.1515E+03  0.1537E+03  0.8940E+03  0.8936E+03
      2.510  0.1464E+03  0.1456E+03  0.9016E+03  0.9011E+03
      2.562  0.1572E+03  0.1552E+03  0.9097E+03  0.9091E+03
      2.613  0.1445E+03  0.1460E+03  0.9172E+03  0.9167E+03
      2.665  0.1012E+03  0.1030E+03  0.9224E+03  0.9220E+03
      2.717  0.1503E+03  0.1462E+03  0.9302E+03  0.9296E+03
      2.769  0.1365E+03  0.1396E+03  0.9373E+03  0.9368E+03
      2.820  0.1531E+03  0.1502E+03  0.9452E+03  0.9446E+03
      2.872  0.1440E+03  0.1440E+03  0.9527E+03  0.9521E+03
      2.924  0.1242E+03  0.1267E+03  0.9591E+03  0.9586E+03
      2.976  0.1042E+03  0.1032E+03  0.9645E+03  0.9640E+03
      3.028  0.1417E+03  0.1388E+03  0.9718E+03  0.9712E+03
      3.079  0.1285E+03  0.1334E+03  0.9785E+03  0.9781E+03
      3.131  0.1218E+03  0.1211E+03  0.9848E+03  0.9843E+03
      3.183  0.1106E+03  0.1049E+03  0.9905E+03  0.9898E+03
      3.235  0.1067E+03  0.1091E+03  0.9960E+03  0.9954E+03
      3.287  0.1175E+03  0.1160E+03  0.1002E+04  0.1001E+04
      3.338  0.1058E+03  0.1098E+03  0.1008E+04  0.1007E+04
      3.390  0.6414E+02  0.6641E+02  0.1011E+04  0.1011E+04
      3.442  0.9831E+02  0.9878E+02  0.1016E+04  0.1016E+04
      3.494  0.8140E+02  0.8149E+02  0.1020E+04  0.1020E+04
      3.545  0.7324E+02  0.7517E+02  0.1024E+04  0.1024E+04
      3.597  0.8858E+02  0.8174E+02  0.1029E+04  0.1028E+04
      3.649  0.6111E+02  0.6944E+02  0.1032E+04  0.1032E+04
      3.701  0.4850E+02  0.4507E+02  0.1034E+04  0.1034E+04
      3.753  0.6670E+02  0.6525E+02  0.1038E+04  0.1037E+04
      3.804  0.4285E+02  0.4305E+02  0.1040E+04  0.1040E+04
      3.856  0.5810E+02  0.6469E+02  0.1043E+04  0.1043E+04
      3.908  0.2974E+02  0.2727E+02  0.1045E+04  0.1044E+04
      3.960  0.5369E+02  0.4872E+02  0.1047E+04  0.1047E+04
      4.012  0.7174E+02  0.7291E+02  0.1051E+04  0.1051E+04
      4.063  0.9888E+02  0.8422E+02  0.1056E+04  0.1055E+04
      4.115  0.9231E+02  0.1017E+03  0.1061E+04  0.1060E+04
      4.167  0.1110E+03  0.1039E+03  0.1067E+04  0.1066E+04
      4.219  0.1017E+03  0.1032E+03  0.1072E+04  0.1071E+04
      4.270  0.9318E+02  0.9482E+02  0.1077E+04  0.1076E+04
      4.322  0.9657E+02  0.9765E+02  0.1082E+04  0.1081E+04
      4.374  0.1107E+03  0.1105E+03  0.1087E+04  0.1087E+04
      4.426  0.1138E+03  0.1163E+03  0.1093E+04  0.1093E+04
      4.478  0.1153E+03  0.1172E+03  0.1099E+04  0.1099E+04
      4.529  0.1001E+03  0.9997E+02  0.1105E+04  0.1104E+04
      4.581  0.1119E+03  0.1088E+03  0.1110E+04  0.1110E+04
      4.633  0.1136E+03  0.1079E+03  0.1116E+04  0.1115E+04
      4.685  0.1092E+03  0.1158E+03  0.1122E+04  0.1121E+04
      4.737  0.1157E+03  0.1172E+03  0.1128E+04  0.1127E+04
      4.788  0.1196E+03  0.1186E+03  0.1134E+04  0.1133E+04
      4.840  0.1240E+03  0.1204E+03  0.1140E+04  0.1140E+04
      4.892  0.1195E+03  0.1274E+03  0.1147E+04  0.1146E+04
      4.944  0.9563E+02  0.9174E+02  0.1152E+04  0.1151E+04
      4.996  0.1185E+03  0.1213E+03  0.1158E+04  0.1157E+04
      5.047  0.1245E+03  0.1211E+03  0.1164E+04  0.1163E+04
      5.099  0.1329E+03  0.1343E+03  0.1171E+04  0.1170E+04
      5.151  0.1025E+03  0.1074E+03  0.1176E+04  0.1176E+04
      5.203  0.9961E+02  0.9497E+02  0.1182E+04  0.1181E+04
      5.254  0.1023E+03  0.1040E+03  0.1187E+04  0.1186E+04
      5.306  0.1080E+03  0.1081E+03  0.1192E+04  0.1192E+04
      5.358  0.1205E+03  0.1230E+03  0.1199E+04  0.1198E+04
      5.410  0.1418E+03  0.1359E+03  0.1206E+04  0.1205E+04
      5.462  0.1574E+03  0.1586E+03  0.1214E+04  0.1214E+04
      5.513  0.1369E+03  0.1396E+03  0.1221E+04  0.1221E+04
      5.565  0.1550E+03  0.1502E+03  0.1229E+04  0.1229E+04
      5.617  0.1401E+03  0.1444E+03  0.1237E+04  0.1236E+04
      5.669  0.1219E+03  0.1215E+03  0.1243E+04  0.1242E+04
      5.721  0.1259E+03  0.1293E+03  0.1249E+04  0.1249E+04
      5.772  0.1126E+03  0.1116E+03  0.1255E+04  0.1255E+04
      5.824  0.1394E+03  0.1363E+03  0.1262E+04  0.1262E+04
      5.876  0.1309E+03  0.1357E+03  0.1269E+04  0.1269E+04
      5.928  0.4811E+02  0.4933E+02  0.1272E+04  0.1271E+04
      5.979  0.5552E+01  0.1103E+02  0.1272E+04  0.1272E+04
      6.031  0.0000E+00  0.0000E+00  0.1272E+04  0.1272E+04
      6.083  0.0000E+00  0.0000E+00  0.1272E+04  0.1272E+04
      6.135  0.0000E+00  0.0000E+00  0.1272E+04  0.1272E+04
      6.187  0.0000E+00  0.0000E+00  0.1272E+04  0.1272E+04
      6.238  0.0000E+00  0.0000E+00  0.1272E+04  0.1272E+04
      6.290  0.0000E+00  0.0000E+00  0.1272E+04  0.1272E+04
      6.342  0.0000E+00  0.0000E+00  0.1272E+04  0.1272E+04
      6.394  0.0000E+00  0.0000E+00  0.1272E+04  0.1272E+04
      6.446  0.0000E+00  0.0000E+00  0.1272E+04  0.1272E+04
      6.497  0.0000E+00  0.0000E+00  0.1272E+04  0.1272E+04
      6.549  0.0000E+00  0.0000E+00  0.1272E+04  0.1272E+04
      6.601  0.0000E+00  0.0000E+00  0.1272E+04  0.1272E+04
      6.653  0.0000E+00  0.0000E+00  0.1272E+04  0.1272E+04
