       N       E                     dE             d eps       ncg     rms          rms(c)
DAV:   1     0.464561766065E+04    0.46456E+04   -0.44330E+05 20352   0.167E+03
DAV:   2    -0.603424084136E+03   -0.52490E+04   -0.50681E+04 23992   0.203E+02
DAV:   3    -0.113548112784E+04   -0.53206E+03   -0.51459E+03 25928   0.587E+01
DAV:   4    -0.115790143788E+04   -0.22420E+02   -0.21934E+02 24920   0.129E+01
DAV:   5    -0.115893734445E+04   -0.10359E+01   -0.10258E+01 28640   0.272E+00    0.478E+01
DAV:   6    -0.112750064448E+04    0.31437E+02   -0.12139E+02 31336   0.136E+01    0.219E+01
DAV:   7    -0.112605964342E+04    0.14410E+01   -0.70726E+01 26024   0.116E+01    0.158E+01
DAV:   8    -0.112326712065E+04    0.27925E+01   -0.15807E+01 24344   0.517E+00    0.333E+00
DAV:   9    -0.112333890111E+04   -0.71780E-01   -0.42992E+00 25480   0.236E+00    0.236E+00
DAV:  10    -0.112319234311E+04    0.14656E+00   -0.13481E+00 25016   0.144E+00    0.152E+00
DAV:  11    -0.112318214782E+04    0.10195E-01   -0.27104E-01 23848   0.585E-01    0.105E+00
DAV:  12    -0.112318482163E+04   -0.26738E-02   -0.68694E-02 24552   0.325E-01    0.730E-01
DAV:  13    -0.112318082171E+04    0.39999E-02   -0.37080E-02 24720   0.246E-01    0.388E-01
DAV:  14    -0.112318021242E+04    0.60930E-03   -0.12182E-02 24640   0.143E-01    0.188E-01
DAV:  15    -0.112317985796E+04    0.35445E-03   -0.44706E-03 24224   0.908E-02    0.104E-01
DAV:  16    -0.112317979689E+04    0.61072E-04   -0.17293E-03 23528   0.473E-02    0.657E-02
DAV:  17    -0.112317980498E+04   -0.80836E-05   -0.41521E-04 23344   0.219E-02    0.524E-02
DAV:  18    -0.112317981269E+04   -0.77158E-05   -0.89709E-05 23416   0.113E-02    0.235E-02
DAV:  19    -0.112317981047E+04    0.22197E-05   -0.33408E-05 24864   0.814E-03    0.143E-02
DAV:  20    -0.112317980673E+04    0.37386E-05   -0.12893E-05 24864   0.515E-03    0.101E-02
DAV:  21    -0.112317980784E+04   -0.11069E-05   -0.72333E-06 24032   0.260E-03    0.496E-03
DAV:  22    -0.112317980834E+04   -0.49719E-06   -0.16601E-06 23304   0.132E-03    0.268E-03
DAV:  23    -0.112317980882E+04   -0.47823E-06   -0.30851E-07 15120   0.570E-04    0.181E-03
DAV:  24    -0.112317980923E+04   -0.41325E-06   -0.14892E-07 13224   0.418E-04    0.114E-03
DAV:  25    -0.112317980939E+04   -0.15933E-06   -0.72585E-08 12080   0.277E-04    0.877E-04
DAV:  26    -0.112317980942E+04   -0.31963E-07   -0.37394E-08 11776   0.209E-04
   1 F= -.11231798E+04 E0= -.11231775E+04  d E =-.460106E-02  mag=     1.0000
