 168 168   0   0
  0.2780971E+02  0.1131560E-08  0.1600268E-08  0.2580094E-08  0.5000000E-15
  1.000000000000000E-004
  CAR 
 Si and Ge interface calculation         
      6.35078825     -9.85384732  301      3.36483980      1.00000000
     -9.854  0.0000E+00  0.0000E+00  0.0000E+00  0.0000E+00
     -9.800  0.0000E+00  0.0000E+00  0.0000E+00  0.0000E+00
     -9.746  0.0000E+00  0.0000E+00  0.0000E+00  0.0000E+00
     -9.692  0.0000E+00  0.0000E+00  0.0000E+00  0.0000E+00
     -9.638  0.0000E+00  0.0000E+00  0.0000E+00  0.0000E+00
     -9.584  0.0000E+00  0.0000E+00  0.0000E+00  0.0000E+00
     -9.530  0.0000E+00  0.0000E+00  0.0000E+00  0.0000E+00
     -9.476  0.0000E+00  0.0000E+00  0.0000E+00  0.0000E+00
     -9.422  0.0000E+00  0.0000E+00  0.0000E+00  0.0000E+00
     -9.368  0.0000E+00  0.0000E+00  0.0000E+00  0.0000E+00
     -9.314  0.0000E+00  0.0000E+00  0.0000E+00  0.0000E+00
     -9.260  0.0000E+00  0.0000E+00  0.0000E+00  0.0000E+00
     -9.206  0.0000E+00  0.0000E+00  0.0000E+00  0.0000E+00
     -9.152  0.3601E-05  0.4385E-07  0.1945E-06  0.2368E-08
     -9.098  0.6154E+01  0.6020E+01  0.3324E+00  0.3252E+00
     -9.044  0.1702E-01  0.1514E+00  0.3333E+00  0.3333E+00
     -8.990  0.2034E+02  0.1641E+02  0.1432E+01  0.1220E+01
     -8.936  0.4349E+01  0.8273E+01  0.1667E+01  0.1667E+01
     -8.882  0.2212E+02  0.1689E+02  0.2862E+01  0.2579E+01
     -8.828  0.2742E+01  0.7811E+01  0.3010E+01  0.3001E+01
     -8.774  0.6489E+01  0.6196E+01  0.3360E+01  0.3336E+01
     -8.720  0.1185E+02  0.1230E+02  0.4001E+01  0.4000E+01
     -8.666  0.2135E+02  0.1781E+02  0.5154E+01  0.4962E+01
     -8.611  0.4032E+02  0.4368E+02  0.7332E+01  0.7321E+01
     -8.557  0.1957E+02  0.9486E+01  0.8389E+01  0.7833E+01
     -8.503  0.3588E+02  0.4253E+02  0.1033E+02  0.1013E+02
     -8.449  0.6298E+01  0.9924E+01  0.1067E+02  0.1067E+02
     -8.395  0.4345E+02  0.3938E+02  0.1301E+02  0.1279E+02
     -8.341  0.2925E+02  0.3057E+02  0.1459E+02  0.1445E+02
     -8.287  0.2622E+02  0.2102E+02  0.1601E+02  0.1558E+02
     -8.233  0.1885E+02  0.2634E+02  0.1703E+02  0.1700E+02
     -8.179  0.4685E+02  0.4438E+02  0.1956E+02  0.1940E+02
     -8.125  0.8696E+01  0.7916E+01  0.2003E+02  0.1983E+02
     -8.071  0.3914E+02  0.3763E+02  0.2214E+02  0.2186E+02
     -8.017  0.2298E+02  0.2760E+02  0.2338E+02  0.2335E+02
     -7.963  0.1446E+02  0.1028E+02  0.2416E+02  0.2391E+02
     -7.909  0.1546E+02  0.2024E+02  0.2500E+02  0.2500E+02
     -7.855  0.3357E+02  0.2865E+02  0.2681E+02  0.2655E+02
     -7.801  0.4047E+02  0.4527E+02  0.2900E+02  0.2899E+02
     -7.747  0.7173E+01  0.6502E+01  0.2939E+02  0.2934E+02
     -7.693  0.1060E+02  0.7950E+01  0.2996E+02  0.2977E+02
     -7.639  0.1126E+02  0.1138E+02  0.3057E+02  0.3039E+02
     -7.585  0.7196E+02  0.6648E+02  0.3445E+02  0.3398E+02
     -7.531  0.3174E+02  0.3625E+02  0.3617E+02  0.3594E+02
     -7.477  0.4677E+02  0.4730E+02  0.3870E+02  0.3849E+02
     -7.423  0.2414E+02  0.2790E+02  0.4000E+02  0.4000E+02
     -7.369  0.1193E+02  0.1028E+02  0.4064E+02  0.4055E+02
     -7.315  0.1797E+02  0.1709E+02  0.4161E+02  0.4148E+02
     -7.261  0.5483E+02  0.5322E+02  0.4458E+02  0.4435E+02
     -7.207  0.3307E+02  0.3250E+02  0.4636E+02  0.4611E+02
     -7.153  0.6966E+02  0.6715E+02  0.5013E+02  0.4974E+02
     -7.099  0.3455E+02  0.4023E+02  0.5199E+02  0.5191E+02
     -7.045  0.2541E+02  0.2063E+02  0.5336E+02  0.5302E+02
     -6.991  0.6060E+02  0.6326E+02  0.5664E+02  0.5644E+02
     -6.937  0.2771E+02  0.2526E+02  0.5813E+02  0.5780E+02
     -6.883  0.5282E+02  0.5763E+02  0.6099E+02  0.6092E+02
     -6.829  0.2680E+02  0.2061E+02  0.6244E+02  0.6203E+02
     -6.775  0.6053E+02  0.5953E+02  0.6570E+02  0.6525E+02
     -6.721  0.4750E+02  0.5330E+02  0.6827E+02  0.6812E+02
     -6.667  0.5606E+02  0.4914E+02  0.7130E+02  0.7078E+02
     -6.613  0.4997E+02  0.5930E+02  0.7400E+02  0.7398E+02
     -6.559  0.1111E+02  0.7638E+01  0.7460E+02  0.7439E+02
     -6.505  0.2983E+02  0.3041E+02  0.7621E+02  0.7604E+02
     -6.451  0.3891E+02  0.4047E+02  0.7831E+02  0.7822E+02
     -6.397  0.5454E+02  0.5134E+02  0.8126E+02  0.8100E+02
     -6.343  0.4249E+02  0.4467E+02  0.8355E+02  0.8341E+02
     -6.289  0.6362E+02  0.5996E+02  0.8699E+02  0.8665E+02
     -6.235  0.6801E+02  0.7074E+02  0.9066E+02  0.9047E+02
     -6.181  0.7388E+02  0.7295E+02  0.9465E+02  0.9441E+02
     -6.127  0.5129E+02  0.5193E+02  0.9742E+02  0.9721E+02
     -6.073  0.2704E+02  0.2867E+02  0.9888E+02  0.9876E+02
     -6.019  0.1578E+02  0.1690E+02  0.9974E+02  0.9968E+02
     -5.965  0.4025E+02  0.3747E+02  0.1019E+03  0.1017E+03
     -5.911  0.4749E+02  0.4574E+02  0.1045E+03  0.1042E+03
     -5.857  0.1767E+02  0.2218E+02  0.1054E+03  0.1054E+03
     -5.803  0.4833E+02  0.4611E+02  0.1080E+03  0.1079E+03
     -5.749  0.4583E+02  0.4579E+02  0.1105E+03  0.1103E+03
     -5.695  0.4598E+02  0.4723E+02  0.1130E+03  0.1129E+03
     -5.641  0.1396E+02  0.1320E+02  0.1138E+03  0.1136E+03
     -5.587  0.3780E+02  0.3786E+02  0.1158E+03  0.1156E+03
     -5.533  0.3950E+02  0.3694E+02  0.1179E+03  0.1176E+03
     -5.479  0.6498E+02  0.6633E+02  0.1214E+03  0.1212E+03
     -5.425  0.6226E+02  0.6141E+02  0.1248E+03  0.1245E+03
     -5.371  0.4319E+02  0.4072E+02  0.1271E+03  0.1267E+03
     -5.317  0.4347E+02  0.4679E+02  0.1295E+03  0.1293E+03
     -5.263  0.7152E+02  0.6900E+02  0.1333E+03  0.1330E+03
     -5.209  0.7602E+02  0.7493E+02  0.1375E+03  0.1370E+03
     -5.155  0.4267E+02  0.4522E+02  0.1398E+03  0.1395E+03
     -5.100  0.5356E+02  0.5363E+02  0.1427E+03  0.1424E+03
     -5.046  0.4706E+02  0.4752E+02  0.1452E+03  0.1449E+03
     -4.992  0.4944E+02  0.5052E+02  0.1479E+03  0.1477E+03
     -4.938  0.4891E+02  0.4498E+02  0.1505E+03  0.1501E+03
     -4.884  0.7499E+02  0.7383E+02  0.1546E+03  0.1541E+03
     -4.830  0.6522E+02  0.6874E+02  0.1581E+03  0.1578E+03
     -4.776  0.1691E+02  0.1854E+02  0.1590E+03  0.1588E+03
     -4.722  0.5630E+02  0.5894E+02  0.1620E+03  0.1620E+03
     -4.668  0.2477E+02  0.2502E+02  0.1634E+03  0.1633E+03
     -4.614  0.7446E+02  0.6506E+02  0.1674E+03  0.1669E+03
     -4.560  0.6799E+02  0.7315E+02  0.1711E+03  0.1708E+03
     -4.506  0.3649E+02  0.4015E+02  0.1730E+03  0.1730E+03
     -4.452  0.5972E+02  0.5673E+02  0.1763E+03  0.1760E+03
     -4.398  0.6410E+02  0.6540E+02  0.1797E+03  0.1796E+03
     -4.344  0.3895E+02  0.3682E+02  0.1818E+03  0.1816E+03
     -4.290  0.5563E+02  0.5846E+02  0.1848E+03  0.1847E+03
     -4.236  0.3910E+02  0.3366E+02  0.1869E+03  0.1865E+03
     -4.182  0.3722E+02  0.4143E+02  0.1890E+03  0.1888E+03
     -4.128  0.5313E+02  0.4920E+02  0.1918E+03  0.1914E+03
     -4.074  0.6575E+02  0.6129E+02  0.1954E+03  0.1947E+03
     -4.020  0.4313E+02  0.4914E+02  0.1977E+03  0.1974E+03
     -3.966  0.4302E+02  0.4729E+02  0.2000E+03  0.2000E+03
     -3.912  0.8035E+02  0.7130E+02  0.2044E+03  0.2038E+03
     -3.858  0.5387E+02  0.6165E+02  0.2073E+03  0.2071E+03
     -3.804  0.1385E+02  0.1221E+02  0.2080E+03  0.2078E+03
     -3.750  0.7153E+02  0.6850E+02  0.2119E+03  0.2115E+03
     -3.696  0.4995E+02  0.5400E+02  0.2146E+03  0.2144E+03
     -3.642  0.7266E+02  0.6449E+02  0.2185E+03  0.2179E+03
     -3.588  0.5797E+02  0.6102E+02  0.2216E+03  0.2212E+03
     -3.534  0.2569E+02  0.3359E+02  0.2230E+03  0.2230E+03
     -3.480  0.4660E+02  0.3775E+02  0.2256E+03  0.2250E+03
     -3.426  0.4884E+02  0.5227E+02  0.2282E+03  0.2279E+03
     -3.372  0.5260E+02  0.5355E+02  0.2310E+03  0.2308E+03
     -3.318  0.2442E+02  0.2917E+02  0.2323E+03  0.2323E+03
     -3.264  0.6571E+02  0.6249E+02  0.2359E+03  0.2357E+03
     -3.210  0.3114E+02  0.2987E+02  0.2376E+03  0.2373E+03
     -3.156  0.4020E+02  0.4123E+02  0.2398E+03  0.2396E+03
     -3.102  0.3556E+02  0.3330E+02  0.2417E+03  0.2413E+03
     -3.048  0.3853E+02  0.3860E+02  0.2438E+03  0.2434E+03
     -2.994  0.7629E+02  0.7452E+02  0.2479E+03  0.2475E+03
     -2.940  0.7376E+02  0.7540E+02  0.2519E+03  0.2515E+03
     -2.886  0.1631E+02  0.1811E+02  0.2527E+03  0.2525E+03
     -2.832  0.5410E+02  0.5788E+02  0.2557E+03  0.2556E+03
     -2.778  0.4460E+02  0.3752E+02  0.2581E+03  0.2577E+03
     -2.724  0.3161E+02  0.3771E+02  0.2598E+03  0.2597E+03
     -2.670  0.5149E+02  0.4469E+02  0.2626E+03  0.2621E+03
     -2.616  0.6643E+02  0.6385E+02  0.2661E+03  0.2656E+03
     -2.562  0.6893E+02  0.7655E+02  0.2699E+03  0.2697E+03
     -2.508  0.3659E+02  0.3781E+02  0.2718E+03  0.2717E+03
     -2.454  0.6629E+02  0.6341E+02  0.2754E+03  0.2752E+03
     -2.400  0.4201E+02  0.4630E+02  0.2777E+03  0.2777E+03
     -2.346  0.3720E+02  0.3255E+02  0.2797E+03  0.2794E+03
     -2.292  0.4000E+02  0.4323E+02  0.2819E+03  0.2818E+03
     -2.238  0.6416E+02  0.6076E+02  0.2853E+03  0.2850E+03
     -2.184  0.1847E+02  0.2351E+02  0.2863E+03  0.2863E+03
     -2.130  0.2463E+02  0.2451E+02  0.2877E+03  0.2876E+03
     -2.076  0.3424E+02  0.3105E+02  0.2895E+03  0.2893E+03
     -2.022  0.3121E+02  0.3244E+02  0.2912E+03  0.2911E+03
     -1.968  0.2842E+02  0.2579E+02  0.2927E+03  0.2925E+03
     -1.914  0.3082E+02  0.3039E+02  0.2944E+03  0.2941E+03
     -1.860  0.4014E+02  0.4229E+02  0.2966E+03  0.2964E+03
     -1.806  0.3388E+02  0.3645E+02  0.2984E+03  0.2984E+03
     -1.752  0.7017E+02  0.6466E+02  0.3022E+03  0.3018E+03
     -1.698  0.4381E+01  0.9586E+01  0.3024E+03  0.3024E+03
     -1.643  0.5150E+02  0.4828E+02  0.3052E+03  0.3050E+03
     -1.589  0.2132E+02  0.2198E+02  0.3064E+03  0.3062E+03
     -1.535  0.3063E+02  0.3270E+02  0.3080E+03  0.3079E+03
     -1.481  0.4323E+02  0.4421E+02  0.3103E+03  0.3103E+03
     -1.427  0.3067E+02  0.3120E+02  0.3120E+03  0.3120E+03
     -1.373  0.8688E+01  0.7135E+01  0.3125E+03  0.3124E+03
     -1.319  0.2714E+02  0.2578E+02  0.3139E+03  0.3138E+03
     -1.265  0.1194E+01  0.4151E+01  0.3140E+03  0.3140E+03
     -1.211  0.6962E+01  0.4096E+01  0.3144E+03  0.3142E+03
     -1.157  0.3538E+02  0.3398E+02  0.3163E+03  0.3161E+03
     -1.103  0.1122E+02  0.1284E+02  0.3169E+03  0.3168E+03
     -1.049  0.1787E+02  0.1735E+02  0.3179E+03  0.3177E+03
     -0.995  0.4275E+01  0.6266E+01  0.3181E+03  0.3180E+03
     -0.941  0.4264E+02  0.3625E+02  0.3204E+03  0.3200E+03
     -0.887  0.1742E+02  0.2498E+02  0.3213E+03  0.3213E+03
     -0.833  0.1761E+02  0.1499E+02  0.3223E+03  0.3221E+03
     -0.779  0.2520E+02  0.2704E+02  0.3236E+03  0.3236E+03
     -0.725  0.4156E+02  0.3236E+02  0.3259E+03  0.3254E+03
     -0.671  0.3990E+02  0.4681E+02  0.3280E+03  0.3279E+03
     -0.617  0.3823E+02  0.3341E+02  0.3301E+03  0.3297E+03
     -0.563  0.7927E+02  0.8110E+02  0.3344E+03  0.3341E+03
     -0.509  0.5829E+02  0.6073E+02  0.3375E+03  0.3373E+03
     -0.455  0.8802E+02  0.8920E+02  0.3423E+03  0.3422E+03
     -0.401  0.3766E+02  0.3968E+02  0.3443E+03  0.3443E+03
     -0.347  0.7891E+02  0.6246E+02  0.3486E+03  0.3477E+03
     -0.293  0.7778E+02  0.8859E+02  0.3528E+03  0.3525E+03
     -0.239  0.8214E+02  0.7864E+02  0.3572E+03  0.3567E+03
     -0.185  0.6050E+02  0.6406E+02  0.3605E+03  0.3602E+03
     -0.131  0.5113E+02  0.5017E+02  0.3633E+03  0.3629E+03
     -0.077  0.8625E+02  0.8547E+02  0.3679E+03  0.3675E+03
     -0.023  0.4552E+02  0.4779E+02  0.3704E+03  0.3701E+03
      0.031  0.1103E+03  0.1051E+03  0.3763E+03  0.3758E+03
      0.085  0.7137E+02  0.7647E+02  0.3802E+03  0.3799E+03
      0.139  0.7729E+02  0.7773E+02  0.3844E+03  0.3841E+03
      0.193  0.8066E+02  0.7936E+02  0.3887E+03  0.3884E+03
      0.247  0.1072E+03  0.1012E+03  0.3945E+03  0.3938E+03
      0.301  0.7173E+02  0.7598E+02  0.3984E+03  0.3979E+03
      0.355  0.1174E+03  0.1125E+03  0.4047E+03  0.4040E+03
      0.409  0.1065E+03  0.1077E+03  0.4105E+03  0.4098E+03
      0.463  0.7667E+02  0.8168E+02  0.4146E+03  0.4143E+03
      0.517  0.1365E+03  0.1356E+03  0.4220E+03  0.4216E+03
      0.571  0.1281E+03  0.1212E+03  0.4289E+03  0.4281E+03
      0.625  0.1335E+03  0.1336E+03  0.4361E+03  0.4353E+03
      0.679  0.1700E+03  0.1668E+03  0.4453E+03  0.4444E+03
      0.733  0.1048E+03  0.1167E+03  0.4510E+03  0.4507E+03
      0.787  0.9115E+02  0.8382E+02  0.4559E+03  0.4552E+03
      0.841  0.1113E+03  0.1099E+03  0.4619E+03  0.4611E+03
      0.895  0.1105E+03  0.1171E+03  0.4679E+03  0.4674E+03
      0.949  0.7836E+02  0.7690E+02  0.4721E+03  0.4716E+03
      1.003  0.7394E+02  0.8151E+02  0.4761E+03  0.4760E+03
      1.057  0.1255E+03  0.1189E+03  0.4829E+03  0.4824E+03
      1.111  0.1079E+03  0.1068E+03  0.4887E+03  0.4882E+03
      1.165  0.1129E+03  0.1040E+03  0.4948E+03  0.4938E+03
      1.219  0.1176E+03  0.1163E+03  0.5012E+03  0.5001E+03
      1.273  0.1538E+03  0.1555E+03  0.5095E+03  0.5085E+03
      1.327  0.9910E+02  0.1121E+03  0.5148E+03  0.5145E+03
      1.381  0.1065E+03  0.1050E+03  0.5206E+03  0.5202E+03
      1.435  0.1208E+03  0.1147E+03  0.5271E+03  0.5264E+03
      1.489  0.1149E+03  0.1151E+03  0.5333E+03  0.5326E+03
      1.543  0.1082E+03  0.1085E+03  0.5392E+03  0.5385E+03
      1.597  0.1241E+03  0.1216E+03  0.5459E+03  0.5451E+03
      1.651  0.9521E+02  0.9912E+02  0.5510E+03  0.5504E+03
      1.705  0.1089E+03  0.1099E+03  0.5569E+03  0.5563E+03
      1.759  0.1278E+03  0.1228E+03  0.5638E+03  0.5630E+03
      1.813  0.8546E+02  0.9537E+02  0.5684E+03  0.5681E+03
      1.868  0.9464E+02  0.8780E+02  0.5735E+03  0.5729E+03
      1.922  0.9067E+02  0.8923E+02  0.5784E+03  0.5777E+03
      1.976  0.9467E+02  0.1008E+03  0.5835E+03  0.5831E+03
      2.030  0.1037E+03  0.1048E+03  0.5891E+03  0.5888E+03
      2.084  0.8220E+02  0.8145E+02  0.5936E+03  0.5932E+03
      2.138  0.7242E+02  0.6542E+02  0.5975E+03  0.5967E+03
      2.192  0.9874E+02  0.1066E+03  0.6028E+03  0.6025E+03
      2.246  0.1108E+03  0.1069E+03  0.6088E+03  0.6083E+03
      2.300  0.5783E+02  0.5265E+02  0.6119E+03  0.6111E+03
      2.354  0.6849E+02  0.7520E+02  0.6156E+03  0.6152E+03
      2.408  0.7152E+02  0.7247E+02  0.6195E+03  0.6191E+03
      2.462  0.7214E+02  0.6425E+02  0.6234E+03  0.6226E+03
      2.516  0.9013E+02  0.9881E+02  0.6283E+03  0.6279E+03
      2.570  0.6576E+02  0.6068E+02  0.6318E+03  0.6312E+03
      2.624  0.4143E+02  0.4657E+02  0.6340E+03  0.6337E+03
      2.678  0.8198E+02  0.8332E+02  0.6385E+03  0.6382E+03
      2.732  0.7179E+02  0.7231E+02  0.6424E+03  0.6421E+03
      2.786  0.7277E+02  0.7007E+02  0.6463E+03  0.6459E+03
      2.840  0.4833E+02  0.4671E+02  0.6489E+03  0.6484E+03
      2.894  0.4434E+02  0.4957E+02  0.6513E+03  0.6511E+03
      2.948  0.6385E+02  0.5831E+02  0.6547E+03  0.6542E+03
      3.002  0.3033E+02  0.3765E+02  0.6564E+03  0.6563E+03
      3.056  0.4249E+02  0.4340E+02  0.6587E+03  0.6586E+03
      3.110  0.4425E+02  0.3817E+02  0.6611E+03  0.6607E+03
      3.164  0.5703E+02  0.4780E+02  0.6641E+03  0.6633E+03
      3.218  0.3476E+02  0.4403E+02  0.6660E+03  0.6656E+03
      3.272  0.5531E+02  0.5345E+02  0.6690E+03  0.6685E+03
      3.326  0.1717E+02  0.1705E+02  0.6699E+03  0.6694E+03
      3.380  0.4501E+02  0.4126E+02  0.6724E+03  0.6717E+03
      3.434  0.3320E+02  0.2718E+02  0.6742E+03  0.6731E+03
      3.488  0.6950E+01  0.2215E+02  0.6745E+03  0.6743E+03
      3.542  0.4002E+02  0.3785E+02  0.6767E+03  0.6764E+03
      3.596  0.3974E+02  0.3509E+02  0.6788E+03  0.6783E+03
      3.650  0.3331E+02  0.3522E+02  0.6806E+03  0.6802E+03
      3.704  0.3136E+02  0.3991E+02  0.6823E+03  0.6823E+03
      3.758  0.1841E+02  0.1848E+02  0.6833E+03  0.6833E+03
      3.812  0.2551E+02  0.1464E+02  0.6847E+03  0.6841E+03
      3.866  0.2386E+02  0.3475E+02  0.6860E+03  0.6860E+03
      3.920  0.1221E+02  0.1106E+02  0.6867E+03  0.6866E+03
      3.974  0.1250E+02  0.1364E+02  0.6873E+03  0.6873E+03
      4.028  0.2858E+02  0.2479E+02  0.6889E+03  0.6887E+03
      4.082  0.2297E+02  0.1805E+02  0.6901E+03  0.6896E+03
      4.136  0.5011E+02  0.5157E+02  0.6928E+03  0.6924E+03
      4.190  0.3220E+02  0.3443E+02  0.6946E+03  0.6943E+03
      4.244  0.3089E+02  0.2843E+02  0.6962E+03  0.6958E+03
      4.298  0.3861E+02  0.4387E+02  0.6983E+03  0.6982E+03
      4.352  0.4785E+02  0.4791E+02  0.7009E+03  0.7008E+03
      4.406  0.5333E+02  0.5013E+02  0.7038E+03  0.7035E+03
      4.460  0.6397E+02  0.6477E+02  0.7072E+03  0.7070E+03
      4.514  0.8467E+02  0.8144E+02  0.7118E+03  0.7114E+03
      4.568  0.5148E+02  0.5201E+02  0.7146E+03  0.7142E+03
      4.622  0.6628E+02  0.6903E+02  0.7182E+03  0.7179E+03
      4.676  0.7903E+02  0.7768E+02  0.7224E+03  0.7221E+03
      4.730  0.8454E+02  0.8749E+02  0.7270E+03  0.7269E+03
      4.784  0.7600E+02  0.7497E+02  0.7311E+03  0.7309E+03
      4.838  0.8914E+02  0.8588E+02  0.7359E+03  0.7355E+03
      4.892  0.7693E+02  0.7625E+02  0.7401E+03  0.7397E+03
      4.946  0.1212E+03  0.1237E+03  0.7466E+03  0.7463E+03
      5.000  0.1006E+03  0.9869E+02  0.7521E+03  0.7517E+03
      5.054  0.1053E+03  0.1050E+03  0.7578E+03  0.7573E+03
      5.108  0.8662E+02  0.8345E+02  0.7624E+03  0.7619E+03
      5.162  0.1104E+03  0.1100E+03  0.7684E+03  0.7678E+03
      5.216  0.1017E+03  0.1009E+03  0.7739E+03  0.7732E+03
      5.270  0.8974E+02  0.8775E+02  0.7787E+03  0.7780E+03
      5.324  0.1157E+03  0.1232E+03  0.7850E+03  0.7846E+03
      5.379  0.1117E+03  0.1149E+03  0.7910E+03  0.7908E+03
      5.433  0.1236E+03  0.1213E+03  0.7977E+03  0.7974E+03
      5.487  0.8820E+02  0.8794E+02  0.8025E+03  0.8021E+03
      5.541  0.3973E+02  0.4212E+02  0.8046E+03  0.8044E+03
      5.595  0.4940E+02  0.4287E+02  0.8073E+03  0.8067E+03
      5.649  0.1346E+02  0.2337E+02  0.8080E+03  0.8080E+03
      5.703  0.0000E+00  0.0000E+00  0.8080E+03  0.8080E+03
      5.757  0.0000E+00  0.0000E+00  0.8080E+03  0.8080E+03
      5.811  0.0000E+00  0.0000E+00  0.8080E+03  0.8080E+03
      5.865  0.0000E+00  0.0000E+00  0.8080E+03  0.8080E+03
      5.919  0.0000E+00  0.0000E+00  0.8080E+03  0.8080E+03
      5.973  0.0000E+00  0.0000E+00  0.8080E+03  0.8080E+03
      6.027  0.0000E+00  0.0000E+00  0.8080E+03  0.8080E+03
      6.081  0.0000E+00  0.0000E+00  0.8080E+03  0.8080E+03
      6.135  0.0000E+00  0.0000E+00  0.8080E+03  0.8080E+03
      6.189  0.0000E+00  0.0000E+00  0.8080E+03  0.8080E+03
      6.243  0.0000E+00  0.0000E+00  0.8080E+03  0.8080E+03
      6.297  0.0000E+00  0.0000E+00  0.8080E+03  0.8080E+03
      6.351  0.0000E+00  0.0000E+00  0.8080E+03  0.8080E+03
