 228 228   0   0
  0.2256881E+02  0.1697340E-08  0.1697340E-08  0.1786100E-08  0.5000000E-15
  1.000000000000000E-004
  CAR 
 Si and Ge interface calculation         
      7.16027902     -8.86654389  301      4.30142964      1.00000000
     -8.867  0.0000E+00  0.0000E+00  0.0000E+00  0.0000E+00
     -8.813  0.0000E+00  0.0000E+00  0.0000E+00  0.0000E+00
     -8.760  0.0000E+00  0.0000E+00  0.0000E+00  0.0000E+00
     -8.706  0.0000E+00  0.0000E+00  0.0000E+00  0.0000E+00
     -8.653  0.0000E+00  0.0000E+00  0.0000E+00  0.0000E+00
     -8.599  0.0000E+00  0.0000E+00  0.0000E+00  0.0000E+00
     -8.546  0.0000E+00  0.0000E+00  0.0000E+00  0.0000E+00
     -8.493  0.0000E+00  0.0000E+00  0.0000E+00  0.0000E+00
     -8.439  0.0000E+00  0.0000E+00  0.0000E+00  0.0000E+00
     -8.386  0.0000E+00  0.0000E+00  0.0000E+00  0.0000E+00
     -8.332  0.0000E+00  0.0000E+00  0.0000E+00  0.0000E+00
     -8.279  0.0000E+00  0.0000E+00  0.0000E+00  0.0000E+00
     -8.225  0.0000E+00  0.0000E+00  0.0000E+00  0.0000E+00
     -8.172  0.3574E-05  0.6115E-06  0.1909E-06  0.3267E-07
     -8.119  0.9030E+01  0.8747E+01  0.4824E+00  0.4673E+00
     -8.065  0.3297E+00  0.6127E+00  0.5000E+00  0.5000E+00
     -8.012  0.3607E+02  0.3494E+02  0.2427E+01  0.2366E+01
     -7.958  0.7348E+01  0.7830E+01  0.2819E+01  0.2785E+01
     -7.905  0.1699E+02  0.1646E+02  0.3727E+01  0.3664E+01
     -7.852  0.1447E+02  0.1564E+02  0.4500E+01  0.4500E+01
     -7.798  0.9981E-03  0.5074E-02  0.4500E+01  0.4500E+01
     -7.745  0.9817E+01  0.8327E+01  0.5024E+01  0.4945E+01
     -7.691  0.1425E+02  0.1534E+02  0.5785E+01  0.5764E+01
     -7.638  0.3461E+02  0.3116E+02  0.7635E+01  0.7429E+01
     -7.584  0.8116E+02  0.8279E+02  0.1197E+02  0.1185E+02
     -7.531  0.2940E+02  0.3124E+02  0.1354E+02  0.1352E+02
     -7.478  0.8806E+01  0.9059E+01  0.1401E+02  0.1400E+02
     -7.424  0.1724E+02  0.1667E+02  0.1493E+02  0.1489E+02
     -7.371  0.6998E+01  0.7029E+01  0.1531E+02  0.1527E+02
     -7.317  0.1847E+02  0.1878E+02  0.1629E+02  0.1627E+02
     -7.264  0.5960E+02  0.5911E+02  0.1948E+02  0.1943E+02
     -7.210  0.3286E+02  0.3094E+02  0.2123E+02  0.2108E+02
     -7.157  0.7929E+02  0.7918E+02  0.2547E+02  0.2531E+02
     -7.104  0.5646E+02  0.5723E+02  0.2849E+02  0.2837E+02
     -7.050  0.5466E+02  0.5140E+02  0.3141E+02  0.3112E+02
     -6.997  0.3404E+02  0.3877E+02  0.3322E+02  0.3319E+02
     -6.943  0.9888E+01  0.1041E+02  0.3375E+02  0.3375E+02
     -6.890  0.5867E+02  0.5399E+02  0.3689E+02  0.3663E+02
     -6.836  0.7058E+02  0.6929E+02  0.4066E+02  0.4033E+02
     -6.783  0.6656E+02  0.7100E+02  0.4421E+02  0.4412E+02
     -6.730  0.3257E+02  0.3056E+02  0.4595E+02  0.4576E+02
     -6.676  0.8002E+02  0.7972E+02  0.5023E+02  0.5002E+02
     -6.623  0.4526E+02  0.4796E+02  0.5264E+02  0.5258E+02
     -6.569  0.4963E+02  0.4563E+02  0.5530E+02  0.5502E+02
     -6.516  0.6128E+02  0.6145E+02  0.5857E+02  0.5830E+02
     -6.463  0.8494E+02  0.7936E+02  0.6311E+02  0.6254E+02
     -6.409  0.9284E+02  0.9919E+02  0.6807E+02  0.6784E+02
     -6.356  0.8236E+02  0.8451E+02  0.7247E+02  0.7235E+02
     -6.302  0.1003E+03  0.9880E+02  0.7783E+02  0.7763E+02
     -6.249  0.8501E+02  0.8696E+02  0.8237E+02  0.8228E+02
     -6.195  0.7833E+02  0.7551E+02  0.8655E+02  0.8631E+02
     -6.142  0.7051E+02  0.7081E+02  0.9032E+02  0.9009E+02
     -6.089  0.3854E+02  0.4109E+02  0.9238E+02  0.9229E+02
     -6.035  0.6797E+02  0.6521E+02  0.9601E+02  0.9577E+02
     -5.982  0.9370E+02  0.9197E+02  0.1010E+03  0.1007E+03
     -5.928  0.6406E+02  0.6708E+02  0.1044E+03  0.1043E+03
     -5.875  0.4958E+02  0.4936E+02  0.1071E+03  0.1069E+03
     -5.821  0.6948E+02  0.6887E+02  0.1108E+03  0.1106E+03
     -5.768  0.7467E+02  0.7374E+02  0.1148E+03  0.1145E+03
     -5.715  0.8102E+02  0.8129E+02  0.1191E+03  0.1189E+03
     -5.661  0.8963E+02  0.9027E+02  0.1239E+03  0.1237E+03
     -5.608  0.5026E+02  0.5281E+02  0.1266E+03  0.1265E+03
     -5.554  0.9973E+02  0.9234E+02  0.1319E+03  0.1314E+03
     -5.501  0.1126E+03  0.1174E+03  0.1379E+03  0.1377E+03
     -5.447  0.7873E+02  0.7879E+02  0.1421E+03  0.1419E+03
     -5.394  0.4882E+02  0.5067E+02  0.1447E+03  0.1446E+03
     -5.341  0.4867E+02  0.4921E+02  0.1473E+03  0.1473E+03
     -5.287  0.9152E+02  0.8841E+02  0.1522E+03  0.1520E+03
     -5.234  0.8915E+02  0.8666E+02  0.1570E+03  0.1566E+03
     -5.180  0.9109E+02  0.9047E+02  0.1619E+03  0.1614E+03
     -5.127  0.5948E+02  0.6232E+02  0.1650E+03  0.1648E+03
     -5.074  0.7453E+02  0.7548E+02  0.1690E+03  0.1688E+03
     -5.020  0.5768E+02  0.5777E+02  0.1721E+03  0.1719E+03
     -4.967  0.7076E+02  0.6927E+02  0.1759E+03  0.1756E+03
     -4.913  0.6908E+02  0.6635E+02  0.1796E+03  0.1791E+03
     -4.860  0.5754E+02  0.6330E+02  0.1827E+03  0.1825E+03
     -4.806  0.6643E+02  0.6339E+02  0.1862E+03  0.1859E+03
     -4.753  0.5308E+02  0.5578E+02  0.1890E+03  0.1889E+03
     -4.700  0.5230E+02  0.5115E+02  0.1918E+03  0.1916E+03
     -4.646  0.5277E+02  0.5434E+02  0.1947E+03  0.1945E+03
     -4.593  0.5138E+02  0.5100E+02  0.1974E+03  0.1972E+03
     -4.539  0.6330E+02  0.6200E+02  0.2008E+03  0.2006E+03
     -4.486  0.6960E+02  0.6875E+02  0.2045E+03  0.2042E+03
     -4.432  0.5843E+02  0.6125E+02  0.2076E+03  0.2075E+03
     -4.379  0.6093E+02  0.5290E+02  0.2109E+03  0.2103E+03
     -4.326  0.6011E+02  0.6607E+02  0.2141E+03  0.2139E+03
     -4.272  0.1715E+02  0.2126E+02  0.2150E+03  0.2150E+03
     -4.219  0.3892E+02  0.3314E+02  0.2171E+03  0.2168E+03
     -4.165  0.5744E+02  0.5670E+02  0.2201E+03  0.2198E+03
     -4.112  0.2247E+02  0.2532E+02  0.2213E+03  0.2211E+03
     -4.058  0.3093E+02  0.3465E+02  0.2230E+03  0.2230E+03
     -4.005  0.3661E+02  0.2835E+02  0.2250E+03  0.2245E+03
     -3.952  0.6297E+02  0.6472E+02  0.2283E+03  0.2280E+03
     -3.898  0.4164E+02  0.4761E+02  0.2305E+03  0.2305E+03
     -3.845  0.3247E+02  0.3006E+02  0.2323E+03  0.2321E+03
     -3.791  0.3880E+02  0.3677E+02  0.2344E+03  0.2341E+03
     -3.738  0.4211E+02  0.4475E+02  0.2366E+03  0.2365E+03
     -3.685  0.2131E+02  0.2314E+02  0.2377E+03  0.2377E+03
     -3.631  0.3690E+02  0.3376E+02  0.2397E+03  0.2395E+03
     -3.578  0.4850E+02  0.4979E+02  0.2423E+03  0.2422E+03
     -3.524  0.1763E+02  0.1716E+02  0.2432E+03  0.2431E+03
     -3.471  0.7442E+02  0.6700E+02  0.2472E+03  0.2467E+03
     -3.417  0.1101E+03  0.1120E+03  0.2531E+03  0.2527E+03
     -3.364  0.8970E+02  0.8897E+02  0.2579E+03  0.2574E+03
     -3.311  0.5550E+02  0.5917E+02  0.2609E+03  0.2606E+03
     -3.257  0.9771E+02  0.9685E+02  0.2661E+03  0.2657E+03
     -3.204  0.6517E+02  0.6247E+02  0.2696E+03  0.2691E+03
     -3.150  0.9215E+02  0.9165E+02  0.2745E+03  0.2740E+03
     -3.097  0.7289E+02  0.7865E+02  0.2784E+03  0.2782E+03
     -3.043  0.9106E+02  0.8762E+02  0.2832E+03  0.2829E+03
     -2.990  0.7168E+02  0.7413E+02  0.2871E+03  0.2868E+03
     -2.937  0.5774E+02  0.5614E+02  0.2902E+03  0.2898E+03
     -2.883  0.9226E+02  0.9407E+02  0.2951E+03  0.2948E+03
     -2.830  0.5436E+02  0.5605E+02  0.2980E+03  0.2978E+03
     -2.776  0.7576E+02  0.7117E+02  0.3020E+03  0.3016E+03
     -2.723  0.6565E+02  0.6761E+02  0.3055E+03  0.3053E+03
     -2.670  0.7175E+02  0.7434E+02  0.3094E+03  0.3092E+03
     -2.616  0.7467E+02  0.7224E+02  0.3134E+03  0.3131E+03
     -2.563  0.6177E+02  0.6533E+02  0.3167E+03  0.3166E+03
     -2.509  0.5700E+02  0.5214E+02  0.3197E+03  0.3194E+03
     -2.456  0.7688E+02  0.7962E+02  0.3238E+03  0.3236E+03
     -2.402  0.6245E+02  0.6369E+02  0.3272E+03  0.3270E+03
     -2.349  0.7414E+02  0.7195E+02  0.3311E+03  0.3309E+03
     -2.296  0.1094E+03  0.1104E+03  0.3370E+03  0.3368E+03
     -2.242  0.7195E+02  0.6766E+02  0.3408E+03  0.3404E+03
     -2.189  0.9519E+02  0.9824E+02  0.3459E+03  0.3456E+03
     -2.135  0.5411E+02  0.5858E+02  0.3488E+03  0.3488E+03
     -2.082  0.6053E+02  0.5600E+02  0.3520E+03  0.3517E+03
     -2.028  0.5633E+02  0.5805E+02  0.3550E+03  0.3548E+03
     -1.975  0.5548E+02  0.5440E+02  0.3580E+03  0.3578E+03
     -1.922  0.6795E+02  0.6356E+02  0.3616E+03  0.3611E+03
     -1.868  0.9619E+02  0.9968E+02  0.3668E+03  0.3665E+03
     -1.815  0.3826E+02  0.4084E+02  0.3688E+03  0.3687E+03
     -1.761  0.3926E+02  0.4046E+02  0.3709E+03  0.3708E+03
     -1.708  0.3069E+02  0.3138E+02  0.3725E+03  0.3725E+03
     -1.654  0.8128E+02  0.7929E+02  0.3769E+03  0.3767E+03
     -1.601  0.3367E+02  0.3427E+02  0.3787E+03  0.3786E+03
     -1.548  0.5041E+02  0.4883E+02  0.3814E+03  0.3812E+03
     -1.494  0.3746E+02  0.3985E+02  0.3834E+03  0.3833E+03
     -1.441  0.3760E+02  0.3502E+02  0.3854E+03  0.3852E+03
     -1.387  0.3748E+02  0.3811E+02  0.3874E+03  0.3872E+03
     -1.334  0.2254E+02  0.2321E+02  0.3886E+03  0.3884E+03
     -1.281  0.4607E+02  0.4547E+02  0.3910E+03  0.3909E+03
     -1.227  0.3699E+02  0.3826E+02  0.3930E+03  0.3929E+03
     -1.174  0.9341E+02  0.9398E+02  0.3980E+03  0.3979E+03
     -1.120  0.4420E+02  0.4201E+02  0.4004E+03  0.4002E+03
     -1.067  0.3272E+02  0.3344E+02  0.4021E+03  0.4020E+03
     -1.013  0.4016E+02  0.4274E+02  0.4043E+03  0.4043E+03
     -0.960  0.2786E+02  0.2731E+02  0.4058E+03  0.4057E+03
     -0.907  0.6373E+02  0.6042E+02  0.4092E+03  0.4089E+03
     -0.853  0.2046E+02  0.2458E+02  0.4103E+03  0.4103E+03
     -0.800  0.4047E+02  0.3829E+02  0.4124E+03  0.4123E+03
     -0.746  0.2637E+02  0.2766E+02  0.4138E+03  0.4138E+03
     -0.693  0.2340E+02  0.2295E+02  0.4151E+03  0.4150E+03
     -0.639  0.5034E+02  0.5157E+02  0.4178E+03  0.4178E+03
     -0.586  0.2408E+02  0.2208E+02  0.4191E+03  0.4189E+03
     -0.533  0.1061E+02  0.1139E+02  0.4196E+03  0.4195E+03
     -0.479  0.3580E+02  0.3628E+02  0.4215E+03  0.4215E+03
     -0.426  0.2610E+02  0.2383E+02  0.4229E+03  0.4228E+03
     -0.372  0.4227E+02  0.3931E+02  0.4252E+03  0.4249E+03
     -0.319  0.2474E+02  0.3075E+02  0.4265E+03  0.4265E+03
     -0.265  0.3420E+02  0.3044E+02  0.4283E+03  0.4281E+03
     -0.212  0.4432E+02  0.4500E+02  0.4307E+03  0.4305E+03
     -0.159  0.5956E+02  0.5957E+02  0.4339E+03  0.4337E+03
     -0.105  0.3860E+02  0.4028E+02  0.4359E+03  0.4359E+03
     -0.052  0.4316E+02  0.3643E+02  0.4382E+03  0.4378E+03
      0.002  0.7128E+02  0.7767E+02  0.4421E+03  0.4420E+03
      0.055  0.9437E+02  0.8981E+02  0.4471E+03  0.4468E+03
      0.108  0.1078E+03  0.1100E+03  0.4529E+03  0.4526E+03
      0.162  0.5851E+02  0.5781E+02  0.4560E+03  0.4557E+03
      0.215  0.1200E+03  0.1128E+03  0.4624E+03  0.4617E+03
      0.269  0.1404E+03  0.1441E+03  0.4699E+03  0.4694E+03
      0.322  0.1271E+03  0.1235E+03  0.4767E+03  0.4760E+03
      0.376  0.1042E+03  0.1078E+03  0.4822E+03  0.4818E+03
      0.429  0.1374E+03  0.1385E+03  0.4896E+03  0.4892E+03
      0.482  0.6551E+02  0.6745E+02  0.4931E+03  0.4928E+03
      0.536  0.1512E+03  0.1427E+03  0.5012E+03  0.5004E+03
      0.589  0.1559E+03  0.1582E+03  0.5095E+03  0.5089E+03
      0.643  0.1386E+03  0.1357E+03  0.5169E+03  0.5161E+03
      0.696  0.1390E+03  0.1434E+03  0.5243E+03  0.5238E+03
      0.750  0.1499E+03  0.1493E+03  0.5323E+03  0.5318E+03
      0.803  0.1140E+03  0.1157E+03  0.5384E+03  0.5379E+03
      0.856  0.1275E+03  0.1293E+03  0.5452E+03  0.5449E+03
      0.910  0.1575E+03  0.1536E+03  0.5536E+03  0.5531E+03
      0.963  0.1289E+03  0.1301E+03  0.5605E+03  0.5600E+03
      1.017  0.1126E+03  0.1146E+03  0.5666E+03  0.5661E+03
      1.070  0.1008E+03  0.1001E+03  0.5719E+03  0.5715E+03
      1.124  0.1350E+03  0.1358E+03  0.5791E+03  0.5787E+03
      1.177  0.1376E+03  0.1398E+03  0.5865E+03  0.5862E+03
      1.230  0.1408E+03  0.1417E+03  0.5940E+03  0.5938E+03
      1.284  0.1730E+03  0.1689E+03  0.6033E+03  0.6028E+03
      1.337  0.1555E+03  0.1603E+03  0.6116E+03  0.6114E+03
      1.391  0.1240E+03  0.1210E+03  0.6182E+03  0.6178E+03
      1.444  0.1168E+03  0.1165E+03  0.6244E+03  0.6240E+03
      1.497  0.1202E+03  0.1203E+03  0.6309E+03  0.6305E+03
      1.551  0.1604E+03  0.1609E+03  0.6394E+03  0.6391E+03
      1.604  0.1662E+03  0.1600E+03  0.6483E+03  0.6476E+03
      1.658  0.1560E+03  0.1612E+03  0.6566E+03  0.6562E+03
      1.711  0.1197E+03  0.1221E+03  0.6630E+03  0.6627E+03
      1.765  0.1169E+03  0.1142E+03  0.6693E+03  0.6688E+03
      1.818  0.1775E+03  0.1775E+03  0.6788E+03  0.6783E+03
      1.871  0.1134E+03  0.1123E+03  0.6848E+03  0.6843E+03
      1.925  0.1133E+03  0.1138E+03  0.6909E+03  0.6904E+03
      1.978  0.1320E+03  0.1326E+03  0.6979E+03  0.6975E+03
      2.032  0.1100E+03  0.1118E+03  0.7038E+03  0.7035E+03
      2.085  0.9433E+02  0.9394E+02  0.7088E+03  0.7085E+03
      2.139  0.1278E+03  0.1191E+03  0.7157E+03  0.7148E+03
      2.192  0.1946E+03  0.1998E+03  0.7260E+03  0.7255E+03
      2.245  0.1262E+03  0.1285E+03  0.7328E+03  0.7324E+03
      2.299  0.1305E+03  0.1304E+03  0.7398E+03  0.7393E+03
      2.352  0.1221E+03  0.1202E+03  0.7463E+03  0.7458E+03
      2.406  0.1392E+03  0.1365E+03  0.7537E+03  0.7531E+03
      2.459  0.1403E+03  0.1413E+03  0.7612E+03  0.7606E+03
      2.513  0.1019E+03  0.1027E+03  0.7667E+03  0.7661E+03
      2.566  0.1176E+03  0.1145E+03  0.7729E+03  0.7722E+03
      2.619  0.1415E+03  0.1471E+03  0.7805E+03  0.7801E+03
      2.673  0.9363E+02  0.9202E+02  0.7855E+03  0.7850E+03
      2.726  0.1237E+03  0.1210E+03  0.7921E+03  0.7915E+03
      2.780  0.1041E+03  0.1026E+03  0.7977E+03  0.7969E+03
      2.833  0.1267E+03  0.1266E+03  0.8044E+03  0.8037E+03
      2.886  0.1526E+03  0.1594E+03  0.8126E+03  0.8122E+03
      2.940  0.1180E+03  0.1203E+03  0.8189E+03  0.8186E+03
      2.993  0.1203E+03  0.1126E+03  0.8253E+03  0.8247E+03
      3.047  0.7649E+02  0.7962E+02  0.8294E+03  0.8289E+03
      3.100  0.1169E+03  0.1163E+03  0.8357E+03  0.8351E+03
      3.154  0.7015E+02  0.7050E+02  0.8394E+03  0.8389E+03
      3.207  0.8052E+02  0.8447E+02  0.8437E+03  0.8434E+03
      3.260  0.4714E+02  0.4615E+02  0.8462E+03  0.8459E+03
      3.314  0.9331E+02  0.9078E+02  0.8512E+03  0.8507E+03
      3.367  0.9538E+02  0.8968E+02  0.8563E+03  0.8555E+03
      3.421  0.9743E+02  0.1026E+03  0.8615E+03  0.8610E+03
      3.474  0.9774E+02  0.9270E+02  0.8667E+03  0.8659E+03
      3.528  0.5825E+02  0.6594E+02  0.8698E+03  0.8695E+03
      3.581  0.9085E+02  0.8970E+02  0.8747E+03  0.8743E+03
      3.634  0.3841E+02  0.4202E+02  0.8768E+03  0.8765E+03
      3.688  0.3471E+02  0.3530E+02  0.8786E+03  0.8784E+03
      3.741  0.8278E+02  0.7834E+02  0.8830E+03  0.8826E+03
      3.795  0.6611E+02  0.6698E+02  0.8866E+03  0.8862E+03
      3.848  0.5673E+02  0.5990E+02  0.8896E+03  0.8894E+03
      3.901  0.3048E+02  0.2845E+02  0.8912E+03  0.8909E+03
      3.955  0.4732E+02  0.4530E+02  0.8937E+03  0.8933E+03
      4.008  0.7224E+02  0.7298E+02  0.8976E+03  0.8972E+03
      4.062  0.3155E+02  0.3518E+02  0.8993E+03  0.8991E+03
      4.115  0.2158E+02  0.1592E+02  0.9004E+03  0.8999E+03
      4.169  0.4123E+02  0.4497E+02  0.9026E+03  0.9023E+03
      4.222  0.5398E+02  0.5030E+02  0.9055E+03  0.9050E+03
      4.275  0.8917E+02  0.8434E+02  0.9103E+03  0.9095E+03
      4.329  0.4111E+02  0.4595E+02  0.9125E+03  0.9120E+03
      4.382  0.8166E+02  0.7419E+02  0.9169E+03  0.9159E+03
      4.436  0.6143E+02  0.6397E+02  0.9201E+03  0.9194E+03
      4.489  0.5067E+02  0.5778E+02  0.9228E+03  0.9224E+03
      4.543  0.5776E+02  0.5523E+02  0.9259E+03  0.9254E+03
      4.596  0.6797E+02  0.6750E+02  0.9296E+03  0.9290E+03
      4.649  0.6610E+02  0.6232E+02  0.9331E+03  0.9323E+03
      4.703  0.6282E+02  0.6854E+02  0.9364E+03  0.9360E+03
      4.756  0.9062E+02  0.8850E+02  0.9413E+03  0.9407E+03
      4.810  0.6462E+02  0.6349E+02  0.9447E+03  0.9441E+03
      4.863  0.9007E+02  0.8215E+02  0.9496E+03  0.9485E+03
      4.917  0.7968E+02  0.8764E+02  0.9538E+03  0.9532E+03
      4.970  0.7454E+02  0.7297E+02  0.9578E+03  0.9571E+03
      5.023  0.9415E+02  0.8990E+02  0.9628E+03  0.9619E+03
      5.077  0.7773E+02  0.7944E+02  0.9670E+03  0.9661E+03
      5.130  0.1097E+03  0.1043E+03  0.9728E+03  0.9717E+03
      5.184  0.1058E+03  0.1122E+03  0.9785E+03  0.9777E+03
      5.237  0.7544E+02  0.7743E+02  0.9825E+03  0.9818E+03
      5.290  0.8145E+02  0.7614E+02  0.9869E+03  0.9859E+03
      5.344  0.7611E+02  0.8137E+02  0.9909E+03  0.9902E+03
      5.397  0.9911E+02  0.1015E+03  0.9962E+03  0.9957E+03
      5.451  0.7084E+02  0.7130E+02  0.1000E+04  0.9995E+03
      5.504  0.1388E+03  0.1373E+03  0.1007E+04  0.1007E+04
      5.558  0.1039E+03  0.1001E+03  0.1013E+04  0.1012E+04
      5.611  0.8791E+02  0.9408E+02  0.1018E+04  0.1017E+04
      5.664  0.1261E+03  0.1247E+03  0.1024E+04  0.1024E+04
      5.718  0.9776E+02  0.9389E+02  0.1030E+04  0.1029E+04
      5.771  0.8128E+02  0.8795E+02  0.1034E+04  0.1034E+04
      5.825  0.1256E+03  0.1241E+03  0.1041E+04  0.1040E+04
      5.878  0.1071E+03  0.1034E+03  0.1046E+04  0.1046E+04
      5.932  0.1229E+03  0.1227E+03  0.1053E+04  0.1052E+04
      5.985  0.1220E+03  0.1198E+03  0.1059E+04  0.1059E+04
      6.038  0.1072E+03  0.1108E+03  0.1065E+04  0.1065E+04
      6.092  0.1152E+03  0.1168E+03  0.1071E+04  0.1071E+04
      6.145  0.6462E+02  0.6563E+02  0.1075E+04  0.1074E+04
      6.199  0.1112E+03  0.1129E+03  0.1081E+04  0.1080E+04
      6.252  0.9027E+02  0.8964E+02  0.1086E+04  0.1085E+04
      6.306  0.7084E+02  0.7225E+02  0.1089E+04  0.1089E+04
      6.359  0.8319E+02  0.7651E+02  0.1094E+04  0.1093E+04
      6.412  0.3626E+02  0.4712E+02  0.1096E+04  0.1096E+04
      6.466  0.4655E+01  0.7311E+01  0.1096E+04  0.1096E+04
      6.519  0.0000E+00  0.0000E+00  0.1096E+04  0.1096E+04
      6.573  0.0000E+00  0.0000E+00  0.1096E+04  0.1096E+04
      6.626  0.0000E+00  0.0000E+00  0.1096E+04  0.1096E+04
      6.679  0.0000E+00  0.0000E+00  0.1096E+04  0.1096E+04
      6.733  0.0000E+00  0.0000E+00  0.1096E+04  0.1096E+04
      6.786  0.0000E+00  0.0000E+00  0.1096E+04  0.1096E+04
      6.840  0.0000E+00  0.0000E+00  0.1096E+04  0.1096E+04
      6.893  0.0000E+00  0.0000E+00  0.1096E+04  0.1096E+04
      6.947  0.0000E+00  0.0000E+00  0.1096E+04  0.1096E+04
      7.000  0.0000E+00  0.0000E+00  0.1096E+04  0.1096E+04
      7.053  0.0000E+00  0.0000E+00  0.1096E+04  0.1096E+04
      7.107  0.0000E+00  0.0000E+00  0.1096E+04  0.1096E+04
      7.160  0.0000E+00  0.0000E+00  0.1096E+04  0.1096E+04
