       N       E                     dE             d eps       ncg     rms          rms(c)
DAV:   1     0.380808589306E+04    0.38081E+04   -0.40386E+05 17536   0.172E+03
DAV:   2    -0.641059891582E+03   -0.44491E+04   -0.42946E+04 20472   0.213E+02
DAV:   3    -0.106664559684E+04   -0.42559E+03   -0.41149E+03 21720   0.582E+01
DAV:   4    -0.108297146254E+04   -0.16326E+02   -0.16019E+02 20712   0.119E+01
DAV:   5    -0.108361927296E+04   -0.64781E+00   -0.64353E+00 23720   0.229E+00    0.423E+01
DAV:   6    -0.106494977523E+04    0.18669E+02   -0.42794E+01 21616   0.939E+00    0.189E+01
DAV:   7    -0.106443321016E+04    0.51657E+00   -0.30852E+01 20880   0.757E+00    0.978E+00
DAV:   8    -0.106360914293E+04    0.82407E+00   -0.66885E+00 20512   0.385E+00    0.238E+00
DAV:   9    -0.106360459157E+04    0.45514E-02   -0.14284E+00 21240   0.122E+00    0.132E+00
DAV:  10    -0.106358769133E+04    0.16900E-01   -0.20223E-01 20944   0.596E-01    0.752E-01
DAV:  11    -0.106358772269E+04   -0.31360E-04   -0.63713E-02 21472   0.359E-01    0.392E-01
DAV:  12    -0.106358479719E+04    0.29255E-02   -0.19714E-02 21608   0.214E-01    0.194E-01
DAV:  13    -0.106358491871E+04   -0.12152E-03   -0.35128E-03 19664   0.685E-02    0.127E-01
DAV:  14    -0.106358497610E+04   -0.57385E-04   -0.71228E-04 19976   0.327E-02    0.510E-02
DAV:  15    -0.106358499002E+04   -0.13923E-04   -0.25402E-04 20120   0.180E-02    0.387E-02
DAV:  16    -0.106358499585E+04   -0.58296E-05   -0.58627E-05 19968   0.975E-03    0.219E-02
DAV:  17    -0.106358499737E+04   -0.15233E-05   -0.14201E-05 20128   0.424E-03    0.901E-03
DAV:  18    -0.106358499919E+04   -0.18146E-05   -0.28490E-06 19240   0.216E-03    0.614E-03
DAV:  19    -0.106358500117E+04   -0.19854E-05   -0.69858E-07 20072   0.105E-03    0.327E-03
DAV:  20    -0.106358500248E+04   -0.13110E-05   -0.24971E-07 11880   0.639E-04    0.138E-03
DAV:  21    -0.106358500299E+04   -0.50449E-06   -0.10920E-07 10352   0.415E-04    0.679E-04
DAV:  22    -0.106358500322E+04   -0.23057E-06   -0.45577E-08 10224   0.231E-04    0.372E-04
DAV:  23    -0.106358500329E+04   -0.73258E-07   -0.14664E-08 10096   0.149E-04
   1 F= -.10635850E+04 E0= -.10635835E+04  d E =-.299027E-02  mag=     1.0000
