 120 120   0   0
  0.1220453E+02  0.1330318E-08  0.1629300E-08  0.7401785E-09  0.5000000E-15
  1.000000000000000E-004
  CAR 
 Si and Ge interface calculation         
      8.65332944    -14.43150387  301      5.07178846      1.00000000
    -14.432  0.0000E+00  0.0000E+00  0.0000E+00  0.0000E+00
    -14.355  0.0000E+00  0.0000E+00  0.0000E+00  0.0000E+00
    -14.278  0.0000E+00  0.0000E+00  0.0000E+00  0.0000E+00
    -14.201  0.0000E+00  0.0000E+00  0.0000E+00  0.0000E+00
    -14.124  0.0000E+00  0.0000E+00  0.0000E+00  0.0000E+00
    -14.047  0.0000E+00  0.0000E+00  0.0000E+00  0.0000E+00
    -13.970  0.0000E+00  0.0000E+00  0.0000E+00  0.0000E+00
    -13.893  0.0000E+00  0.0000E+00  0.0000E+00  0.0000E+00
    -13.816  0.0000E+00  0.0000E+00  0.0000E+00  0.0000E+00
    -13.739  0.0000E+00  0.0000E+00  0.0000E+00  0.0000E+00
    -13.662  0.0000E+00  0.0000E+00  0.0000E+00  0.0000E+00
    -13.585  0.0000E+00  0.0000E+00  0.0000E+00  0.0000E+00
    -13.508  0.0000E+00  0.0000E+00  0.0000E+00  0.0000E+00
    -13.431  0.3127E-11  0.6012E-15  0.2406E-12  0.4626E-16
    -13.354  0.4331E+01  0.4308E+01  0.3333E+00  0.3315E+00
    -13.277  0.1776E+02  0.1461E+02  0.1700E+01  0.1458E+01
    -13.200  0.6192E+01  0.7429E+01  0.2176E+01  0.2030E+01
    -13.123  0.1017E+02  0.9750E+01  0.2959E+01  0.2780E+01
    -13.046  0.1724E+02  0.1896E+02  0.4333E+01  0.4333E+01
    -12.969  0.1223E+02  0.1028E+02  0.5275E+01  0.5124E+01
    -12.893  0.1707E+02  0.1869E+02  0.6647E+01  0.6574E+01
    -12.816  0.1281E+02  0.1118E+02  0.7652E+01  0.7527E+01
    -12.739  0.4415E+01  0.4778E+01  0.8006E+01  0.8000E+01
    -12.662  0.1292E+02  0.1284E+02  0.9001E+01  0.8988E+01
    -12.585  0.8591E+01  0.7692E+01  0.9662E+01  0.9592E+01
    -12.508  0.2381E+02  0.2215E+02  0.1150E+02  0.1137E+02
    -12.431  0.1085E+02  0.1247E+02  0.1233E+02  0.1233E+02
    -12.354  0.9921E+01  0.5313E+01  0.1310E+02  0.1274E+02
    -12.277  0.1543E+02  0.1928E+02  0.1433E+02  0.1428E+02
    -12.200  0.1201E+02  0.6954E+01  0.1526E+02  0.1487E+02
    -12.123  0.3973E+01  0.1039E+02  0.1571E+02  0.1567E+02
    -12.046  0.1371E+02  0.1310E+02  0.1677E+02  0.1668E+02
    -11.969  0.2461E+02  0.2466E+02  0.1866E+02  0.1857E+02
    -11.892  0.1232E+01  0.6087E-01  0.1876E+02  0.1867E+02
    -11.815  0.7434E+01  0.8603E+01  0.1933E+02  0.1933E+02
    -11.738  0.3330E+02  0.2793E+02  0.2190E+02  0.2148E+02
    -11.661  0.5526E+01  0.9375E+01  0.2243E+02  0.2234E+02
    -11.584  0.2047E+02  0.2159E+02  0.2400E+02  0.2400E+02
    -11.507  0.4338E+01  0.4332E+01  0.2433E+02  0.2433E+02
    -11.430  0.1691E+02  0.1444E+02  0.2564E+02  0.2544E+02
    -11.354  0.4150E+01  0.6748E+01  0.2600E+02  0.2600E+02
    -11.277  0.3814E+01  0.1919E+01  0.2629E+02  0.2615E+02
    -11.200  0.4074E+00  0.2471E+01  0.2636E+02  0.2634E+02
    -11.123  0.1259E+02  0.1294E+02  0.2733E+02  0.2733E+02
    -11.046  0.8664E+01  0.8663E+01  0.2800E+02  0.2800E+02
    -10.969  0.4108E-10  0.1034E-13  0.2800E+02  0.2800E+02
    -10.892  0.1191E+02  0.8740E+01  0.2892E+02  0.2867E+02
    -10.815  0.1133E+02  0.1405E+02  0.2987E+02  0.2975E+02
    -10.738  0.1663E+01  0.3190E+01  0.3000E+02  0.3000E+02
    -10.661  0.1300E+02  0.1299E+02  0.3100E+02  0.3100E+02
    -10.584  0.2165E+02  0.2158E+02  0.3267E+02  0.3266E+02
    -10.507  0.7427E+01  0.4441E+01  0.3324E+02  0.3301E+02
    -10.430  0.1709E+02  0.1770E+02  0.3465E+02  0.3439E+02
    -10.353  0.1424E+02  0.1573E+02  0.3582E+02  0.3569E+02
    -10.276  0.1429E+02  0.1264E+02  0.3692E+02  0.3666E+02
    -10.199  0.8076E+01  0.7786E+01  0.3762E+02  0.3741E+02
    -10.122  0.2166E+02  0.2484E+02  0.3933E+02  0.3933E+02
    -10.045  0.8776E+00  0.9107E-01  0.3940E+02  0.3934E+02
     -9.968  0.1338E+02  0.1038E+02  0.4043E+02  0.4014E+02
     -9.891  0.3506E+02  0.3529E+02  0.4318E+02  0.4286E+02
     -9.815  0.4331E+01  0.1054E+02  0.4367E+02  0.4367E+02
     -9.738  0.8529E-05  0.1136E-07  0.4367E+02  0.4367E+02
     -9.661  0.8664E+01  0.8664E+01  0.4433E+02  0.4433E+02
     -9.584  0.8384E+01  0.7303E+01  0.4498E+02  0.4490E+02
     -9.507  0.7214E+01  0.3616E+01  0.4556E+02  0.4523E+02
     -9.430  0.1636E+02  0.1560E+02  0.4694E+02  0.4643E+02
     -9.353  0.7832E+01  0.1587E+02  0.4767E+02  0.4766E+02
     -9.276  0.4321E+01  0.4332E+01  0.4800E+02  0.4800E+02
     -9.199  0.1596E+02  0.1325E+02  0.4923E+02  0.4902E+02
     -9.122  0.2287E+02  0.2441E+02  0.5099E+02  0.5090E+02
     -9.045  0.1299E+02  0.1248E+02  0.5200E+02  0.5191E+02
     -8.968  0.2589E+02  0.2063E+02  0.5399E+02  0.5359E+02
     -8.891  0.2497E+02  0.2575E+02  0.5596E+02  0.5557E+02
     -8.814  0.1894E+02  0.2303E+02  0.5747E+02  0.5734E+02
     -8.737  0.2310E+01  0.4226E+01  0.5767E+02  0.5767E+02
     -8.660  0.3067E+02  0.2773E+02  0.6003E+02  0.5980E+02
     -8.583  0.1120E+02  0.1227E+02  0.6089E+02  0.6075E+02
     -8.506  0.4656E+02  0.4642E+02  0.6448E+02  0.6433E+02
     -8.429  0.2188E+02  0.2138E+02  0.6616E+02  0.6602E+02
     -8.352  0.1800E+02  0.1695E+02  0.6758E+02  0.6732E+02
     -8.276  0.1688E+02  0.1655E+02  0.6890E+02  0.6861E+02
     -8.199  0.1396E+02  0.1750E+02  0.7000E+02  0.7000E+02
     -8.122  0.2112E+02  0.1416E+02  0.7163E+02  0.7109E+02
     -8.045  0.2136E+02  0.2802E+02  0.7333E+02  0.7333E+02
     -7.968  0.7624E+01  0.3870E+01  0.7392E+02  0.7363E+02
     -7.891  0.1795E+02  0.1983E+02  0.7533E+02  0.7517E+02
     -7.814  0.1086E+02  0.1093E+02  0.7619E+02  0.7603E+02
     -7.737  0.1444E+02  0.1663E+02  0.7736E+02  0.7732E+02
     -7.660  0.1947E+02  0.1507E+02  0.7886E+02  0.7850E+02
     -7.583  0.2238E+02  0.2498E+02  0.8062E+02  0.8047E+02
     -7.506  0.9255E+00  0.1731E+01  0.8074E+02  0.8067E+02
     -7.429  0.1207E+02  0.1287E+02  0.8167E+02  0.8166E+02
     -7.352  0.1013E+02  0.8744E+01  0.8245E+02  0.8234E+02
     -7.275  0.2677E+01  0.4102E+01  0.8267E+02  0.8267E+02
     -7.198  0.4238E+01  0.3471E+01  0.8299E+02  0.8293E+02
     -7.121  0.0000E+00  0.4901E+00  0.8300E+02  0.8300E+02
     -7.044  0.1470E-03  0.4268E-06  0.8300E+02  0.8300E+02
     -6.967  0.1300E+02  0.1300E+02  0.8400E+02  0.8400E+02
     -6.890  0.6920E-04  0.5349E-06  0.8400E+02  0.8400E+02
     -6.814  0.4985E+01  0.4384E+01  0.8438E+02  0.8434E+02
     -6.737  0.1234E+02  0.1294E+02  0.8533E+02  0.8533E+02
     -6.660  0.1484E+01  0.2329E+00  0.8545E+02  0.8535E+02
     -6.583  0.8938E+01  0.8454E+01  0.8614E+02  0.8600E+02
     -6.506  0.8287E+01  0.8668E+01  0.8677E+02  0.8668E+02
     -6.429  0.1595E+02  0.1713E+02  0.8800E+02  0.8800E+02
     -6.352  0.1225E+02  0.1083E+02  0.8894E+02  0.8883E+02
     -6.275  0.1495E+02  0.1508E+02  0.9015E+02  0.8999E+02
     -6.198  0.9803E+01  0.9833E+01  0.9092E+02  0.9079E+02
     -6.121  0.1255E+02  0.1455E+02  0.9193E+02  0.9191E+02
     -6.044  0.9593E+01  0.9731E+01  0.9267E+02  0.9267E+02
     -5.967  0.1825E+02  0.1491E+02  0.9408E+02  0.9381E+02
     -5.890  0.2795E+02  0.2756E+02  0.9625E+02  0.9599E+02
     -5.813  0.1673E+02  0.1814E+02  0.9756E+02  0.9739E+02
     -5.736  0.2240E+02  0.2199E+02  0.9931E+02  0.9909E+02
     -5.659  0.2874E+02  0.2758E+02  0.1016E+03  0.1013E+03
     -5.582  0.2452E+02  0.2458E+02  0.1035E+03  0.1033E+03
     -5.505  0.1449E+02  0.1199E+02  0.1046E+03  0.1043E+03
     -5.428  0.1957E+02  0.2268E+02  0.1061E+03  0.1060E+03
     -5.351  0.2545E+02  0.2428E+02  0.1081E+03  0.1079E+03
     -5.275  0.2546E+02  0.2454E+02  0.1101E+03  0.1098E+03
     -5.198  0.2918E+02  0.3092E+02  0.1123E+03  0.1122E+03
     -5.121  0.3277E+02  0.2995E+02  0.1149E+03  0.1146E+03
     -5.044  0.3223E+02  0.3189E+02  0.1174E+03  0.1171E+03
     -4.967  0.1918E+02  0.2015E+02  0.1189E+03  0.1186E+03
     -4.890  0.3483E+02  0.3634E+02  0.1217E+03  0.1215E+03
     -4.813  0.2798E+02  0.2611E+02  0.1239E+03  0.1236E+03
     -4.736  0.2563E+02  0.2603E+02  0.1259E+03  0.1256E+03
     -4.659  0.2384E+02  0.2513E+02  0.1277E+03  0.1277E+03
     -4.582  0.3138E+02  0.2884E+02  0.1302E+03  0.1299E+03
     -4.505  0.3394E+02  0.3479E+02  0.1328E+03  0.1326E+03
     -4.428  0.2252E+02  0.2201E+02  0.1346E+03  0.1344E+03
     -4.351  0.1913E+02  0.2154E+02  0.1362E+03  0.1360E+03
     -4.274  0.3701E+02  0.3571E+02  0.1390E+03  0.1388E+03
     -4.197  0.2464E+02  0.2463E+02  0.1410E+03  0.1407E+03
     -4.120  0.3269E+02  0.3083E+02  0.1435E+03  0.1432E+03
     -4.043  0.2791E+02  0.2912E+02  0.1457E+03  0.1454E+03
     -3.966  0.2817E+02  0.3126E+02  0.1480E+03  0.1479E+03
     -3.889  0.3167E+02  0.2863E+02  0.1504E+03  0.1501E+03
     -3.812  0.2730E+02  0.2897E+02  0.1525E+03  0.1524E+03
     -3.736  0.3205E+02  0.2632E+02  0.1550E+03  0.1545E+03
     -3.659  0.1323E+02  0.1848E+02  0.1561E+03  0.1559E+03
     -3.582  0.3408E+02  0.3465E+02  0.1587E+03  0.1586E+03
     -3.505  0.2923E+02  0.2945E+02  0.1610E+03  0.1608E+03
     -3.428  0.2933E+02  0.3076E+02  0.1633E+03  0.1632E+03
     -3.351  0.2966E+02  0.2561E+02  0.1656E+03  0.1652E+03
     -3.274  0.2594E+02  0.2603E+02  0.1677E+03  0.1674E+03
     -3.197  0.2634E+02  0.2774E+02  0.1698E+03  0.1695E+03
     -3.120  0.2181E+02  0.2408E+02  0.1715E+03  0.1714E+03
     -3.043  0.3218E+02  0.2905E+02  0.1740E+03  0.1737E+03
     -2.966  0.2723E+02  0.2649E+02  0.1761E+03  0.1758E+03
     -2.889  0.1979E+02  0.2208E+02  0.1778E+03  0.1775E+03
     -2.812  0.2717E+02  0.2651E+02  0.1799E+03  0.1796E+03
     -2.735  0.1578E+02  0.1749E+02  0.1812E+03  0.1809E+03
     -2.658  0.2764E+02  0.2634E+02  0.1833E+03  0.1830E+03
     -2.581  0.2261E+02  0.2485E+02  0.1851E+03  0.1850E+03
     -2.504  0.3009E+02  0.2710E+02  0.1874E+03  0.1871E+03
     -2.427  0.2679E+02  0.2508E+02  0.1896E+03  0.1891E+03
     -2.350  0.2755E+02  0.3356E+02  0.1918E+03  0.1917E+03
     -2.273  0.2371E+02  0.2107E+02  0.1936E+03  0.1934E+03
     -2.197  0.2510E+02  0.2593E+02  0.1955E+03  0.1955E+03
     -2.120  0.1898E+02  0.1757E+02  0.1970E+03  0.1969E+03
     -2.043  0.2215E+02  0.2132E+02  0.1987E+03  0.1985E+03
     -1.966  0.3518E+02  0.3499E+02  0.2014E+03  0.2012E+03
     -1.889  0.3127E+02  0.2903E+02  0.2038E+03  0.2035E+03
     -1.812  0.4697E+02  0.4516E+02  0.2075E+03  0.2070E+03
     -1.735  0.3386E+02  0.3436E+02  0.2101E+03  0.2097E+03
     -1.658  0.2551E+02  0.2632E+02  0.2122E+03  0.2118E+03
     -1.581  0.3662E+02  0.3754E+02  0.2151E+03  0.2147E+03
     -1.504  0.2484E+02  0.2685E+02  0.2171E+03  0.2169E+03
     -1.427  0.3498E+02  0.3555E+02  0.2199E+03  0.2196E+03
     -1.350  0.4116E+02  0.3791E+02  0.2230E+03  0.2226E+03
     -1.273  0.3277E+02  0.3411E+02  0.2256E+03  0.2253E+03
     -1.196  0.3421E+02  0.3215E+02  0.2283E+03  0.2278E+03
     -1.119  0.2891E+02  0.3141E+02  0.2306E+03  0.2302E+03
     -1.042  0.4122E+02  0.3816E+02  0.2339E+03  0.2332E+03
     -0.965  0.3179E+02  0.3781E+02  0.2364E+03  0.2361E+03
     -0.888  0.4960E+02  0.4797E+02  0.2402E+03  0.2399E+03
     -0.811  0.2960E+02  0.2622E+02  0.2425E+03  0.2421E+03
     -0.735  0.3734E+02  0.3692E+02  0.2455E+03  0.2451E+03
     -0.658  0.4306E+02  0.4200E+02  0.2488E+03  0.2484E+03
     -0.581  0.3675E+02  0.3972E+02  0.2517E+03  0.2515E+03
     -0.504  0.4639E+02  0.4753E+02  0.2553E+03  0.2551E+03
     -0.427  0.3679E+02  0.3321E+02  0.2582E+03  0.2577E+03
     -0.350  0.3453E+02  0.3526E+02  0.2609E+03  0.2605E+03
     -0.273  0.4629E+02  0.4810E+02  0.2645E+03  0.2643E+03
     -0.196  0.2881E+02  0.2388E+02  0.2667E+03  0.2662E+03
     -0.119  0.3782E+02  0.4161E+02  0.2698E+03  0.2694E+03
     -0.042  0.2953E+02  0.3079E+02  0.2721E+03  0.2719E+03
      0.035  0.3295E+02  0.3167E+02  0.2747E+03  0.2743E+03
      0.112  0.3281E+02  0.3264E+02  0.2773E+03  0.2769E+03
      0.189  0.3065E+02  0.3297E+02  0.2797E+03  0.2795E+03
      0.266  0.3328E+02  0.3233E+02  0.2823E+03  0.2820E+03
      0.343  0.3390E+02  0.3203E+02  0.2849E+03  0.2845E+03
      0.420  0.3615E+02  0.3447E+02  0.2878E+03  0.2872E+03
      0.497  0.4037E+02  0.4199E+02  0.2909E+03  0.2906E+03
      0.574  0.4436E+02  0.4251E+02  0.2944E+03  0.2939E+03
      0.651  0.3805E+02  0.4119E+02  0.2974E+03  0.2972E+03
      0.728  0.5174E+02  0.4981E+02  0.3014E+03  0.3011E+03
      0.804  0.3296E+02  0.3094E+02  0.3040E+03  0.3036E+03
      0.881  0.3935E+02  0.4088E+02  0.3071E+03  0.3067E+03
      0.958  0.3542E+02  0.3464E+02  0.3099E+03  0.3095E+03
      1.035  0.4484E+02  0.4253E+02  0.3135E+03  0.3128E+03
      1.112  0.3857E+02  0.4413E+02  0.3166E+03  0.3163E+03
      1.189  0.3140E+02  0.2892E+02  0.3190E+03  0.3187E+03
      1.266  0.3968E+02  0.3894E+02  0.3221E+03  0.3217E+03
      1.343  0.3886E+02  0.3916E+02  0.3251E+03  0.3249E+03
      1.420  0.3129E+02  0.3057E+02  0.3276E+03  0.3272E+03
      1.497  0.3292E+02  0.2926E+02  0.3301E+03  0.3297E+03
      1.574  0.3726E+02  0.3858E+02  0.3330E+03  0.3327E+03
      1.651  0.3623E+02  0.3211E+02  0.3359E+03  0.3352E+03
      1.728  0.3684E+02  0.3828E+02  0.3389E+03  0.3383E+03
      1.805  0.4127E+02  0.4296E+02  0.3421E+03  0.3417E+03
      1.882  0.3923E+02  0.3728E+02  0.3452E+03  0.3447E+03
      1.959  0.2668E+02  0.2992E+02  0.3473E+03  0.3471E+03
      2.036  0.4465E+02  0.3757E+02  0.3508E+03  0.3501E+03
      2.113  0.3996E+02  0.3827E+02  0.3539E+03  0.3530E+03
      2.190  0.3558E+02  0.4075E+02  0.3567E+03  0.3562E+03
      2.267  0.4124E+02  0.3910E+02  0.3600E+03  0.3593E+03
      2.343  0.4693E+02  0.5060E+02  0.3637E+03  0.3632E+03
      2.420  0.4525E+02  0.4766E+02  0.3672E+03  0.3669E+03
      2.497  0.3431E+02  0.2885E+02  0.3698E+03  0.3692E+03
      2.574  0.4129E+02  0.4396E+02  0.3730E+03  0.3726E+03
      2.651  0.3967E+02  0.3770E+02  0.3761E+03  0.3757E+03
      2.728  0.5555E+02  0.5260E+02  0.3804E+03  0.3798E+03
      2.805  0.4436E+02  0.4396E+02  0.3839E+03  0.3834E+03
      2.882  0.3446E+02  0.3266E+02  0.3866E+03  0.3860E+03
      2.959  0.4381E+02  0.4358E+02  0.3900E+03  0.3894E+03
      3.036  0.4424E+02  0.4587E+02  0.3935E+03  0.3930E+03
      3.113  0.4087E+02  0.3780E+02  0.3967E+03  0.3959E+03
      3.190  0.4577E+02  0.4668E+02  0.4003E+03  0.3996E+03
      3.267  0.3970E+02  0.4409E+02  0.4034E+03  0.4030E+03
      3.344  0.4860E+02  0.4673E+02  0.4072E+03  0.4067E+03
      3.421  0.4733E+02  0.4354E+02  0.4109E+03  0.4102E+03
      3.498  0.4071E+02  0.4088E+02  0.4141E+03  0.4135E+03
      3.575  0.3427E+02  0.3943E+02  0.4168E+03  0.4166E+03
      3.652  0.4568E+02  0.3570E+02  0.4204E+03  0.4194E+03
      3.729  0.4491E+02  0.4977E+02  0.4239E+03  0.4233E+03
      3.806  0.4743E+02  0.4771E+02  0.4276E+03  0.4269E+03
      3.882  0.4535E+02  0.4437E+02  0.4312E+03  0.4304E+03
      3.959  0.4430E+02  0.5121E+02  0.4346E+03  0.4344E+03
      4.036  0.2901E+02  0.2485E+02  0.4369E+03  0.4364E+03
      4.113  0.3656E+02  0.3501E+02  0.4397E+03  0.4391E+03
      4.190  0.3887E+02  0.3603E+02  0.4427E+03  0.4420E+03
      4.267  0.4517E+02  0.4370E+02  0.4462E+03  0.4454E+03
      4.344  0.3690E+02  0.3771E+02  0.4492E+03  0.4483E+03
      4.421  0.3715E+02  0.3988E+02  0.4521E+03  0.4515E+03
      4.498  0.4498E+02  0.4396E+02  0.4556E+03  0.4549E+03
      4.575  0.4080E+02  0.4440E+02  0.4588E+03  0.4584E+03
      4.652  0.4239E+02  0.3728E+02  0.4621E+03  0.4613E+03
      4.729  0.5016E+02  0.4167E+02  0.4660E+03  0.4646E+03
      4.806  0.4598E+02  0.5111E+02  0.4697E+03  0.4686E+03
      4.883  0.4176E+02  0.4328E+02  0.4730E+03  0.4720E+03
      4.960  0.3594E+02  0.4209E+02  0.4759E+03  0.4754E+03
      5.037  0.3608E+02  0.2821E+02  0.4788E+03  0.4776E+03
      5.114  0.4400E+02  0.4707E+02  0.4822E+03  0.4813E+03
      5.191  0.4578E+02  0.4813E+02  0.4858E+03  0.4851E+03
      5.268  0.4816E+02  0.4233E+02  0.4895E+03  0.4884E+03
      5.345  0.3870E+02  0.4025E+02  0.4925E+03  0.4916E+03
      5.421  0.4417E+02  0.4293E+02  0.4960E+03  0.4950E+03
      5.498  0.3742E+02  0.3830E+02  0.4990E+03  0.4980E+03
      5.575  0.3254E+02  0.3664E+02  0.5015E+03  0.5009E+03
      5.652  0.4557E+02  0.4038E+02  0.5051E+03  0.5040E+03
      5.729  0.4071E+02  0.4394E+02  0.5083E+03  0.5075E+03
      5.806  0.3291E+02  0.3215E+02  0.5108E+03  0.5101E+03
      5.883  0.3784E+02  0.3989E+02  0.5138E+03  0.5132E+03
      5.960  0.3547E+02  0.3596E+02  0.5166E+03  0.5160E+03
      6.037  0.3903E+02  0.3628E+02  0.5197E+03  0.5188E+03
      6.114  0.3332E+02  0.3138E+02  0.5223E+03  0.5212E+03
      6.191  0.4044E+02  0.3824E+02  0.5255E+03  0.5242E+03
      6.268  0.3337E+02  0.3912E+02  0.5282E+03  0.5273E+03
      6.345  0.3345E+02  0.3857E+02  0.5308E+03  0.5304E+03
      6.422  0.3912E+02  0.3755E+02  0.5338E+03  0.5333E+03
      6.499  0.4576E+02  0.3874E+02  0.5374E+03  0.5364E+03
      6.576  0.3736E+02  0.3822E+02  0.5403E+03  0.5394E+03
      6.653  0.3811E+02  0.3893E+02  0.5433E+03  0.5425E+03
      6.730  0.3810E+02  0.3608E+02  0.5463E+03  0.5453E+03
      6.807  0.3807E+02  0.4542E+02  0.5493E+03  0.5488E+03
      6.883  0.2861E+02  0.2298E+02  0.5516E+03  0.5507E+03
      6.960  0.4188E+02  0.4266E+02  0.5548E+03  0.5540E+03
      7.037  0.3435E+02  0.4062E+02  0.5576E+03  0.5572E+03
      7.114  0.3375E+02  0.3115E+02  0.5602E+03  0.5597E+03
      7.191  0.3743E+02  0.3577E+02  0.5631E+03  0.5624E+03
      7.268  0.5250E+02  0.4946E+02  0.5672E+03  0.5663E+03
      7.345  0.2938E+02  0.3012E+02  0.5695E+03  0.5688E+03
      7.422  0.3305E+02  0.3583E+02  0.5721E+03  0.5715E+03
      7.499  0.3471E+02  0.3814E+02  0.5748E+03  0.5745E+03
      7.576  0.1446E+02  0.1769E+02  0.5759E+03  0.5759E+03
      7.653  0.6548E+00  0.1083E+01  0.5760E+03  0.5760E+03
      7.730  0.0000E+00  0.0000E+00  0.5760E+03  0.5760E+03
      7.807  0.0000E+00  0.0000E+00  0.5760E+03  0.5760E+03
      7.884  0.0000E+00  0.0000E+00  0.5760E+03  0.5760E+03
      7.961  0.0000E+00  0.0000E+00  0.5760E+03  0.5760E+03
      8.038  0.0000E+00  0.0000E+00  0.5760E+03  0.5760E+03
      8.115  0.0000E+00  0.0000E+00  0.5760E+03  0.5760E+03
      8.192  0.0000E+00  0.0000E+00  0.5760E+03  0.5760E+03
      8.269  0.0000E+00  0.0000E+00  0.5760E+03  0.5760E+03
      8.346  0.0000E+00  0.0000E+00  0.5760E+03  0.5760E+03
      8.422  0.0000E+00  0.0000E+00  0.5760E+03  0.5760E+03
      8.499  0.0000E+00  0.0000E+00  0.5760E+03  0.5760E+03
      8.576  0.0000E+00  0.0000E+00  0.5760E+03  0.5760E+03
      8.653  0.0000E+00  0.0000E+00  0.5760E+03  0.5760E+03
