 vasp.6.4.3 19Mar24 (build Oct 22 2024 11:23:12) complex                        
  
 executed on             LinuxIFC date 2025.06.08  10:58:12
 running   64 mpi-ranks, on    4 nodes
 distrk:  each k-point on   64 cores,    1 groups
 distr:  one band on NCORE=  16 cores,    4 groups


--------------------------------------------------------------------------------------------------------


 INCAR:
   SYSTEM = Si and Ge interface calculation
   ISTART = 0
   ICHARG = 2
   LWAVE = .FALSE.
   LREAL = AUTO
   ENCUT = 700
   ENAUG = 900
   ADDGRID = .TRUE.
   LMAXMIX = 6
   LASPH = .TRUE.
   LMIXTAU = .TRUE.
   NCORE = 16
   NELM = 100
   NBANDS = 288
   EDIFF = 1d-7
   AMIX = 0.6
   ISMEAR = 0
   SIGMA = 0.01
   NELECT = 480
   ISPIN = 2
   NUPDOWN = 1
   LVTOT = .FALSE.
   LVHAR = .TRUE.

 POTCAR:    PAW_PBE Si 05Jan2001                  
 POTCAR:    PAW_PBE Ge 05Jan2001                  
 -----------------------------------------------------------------------------
|                                                                             |
|           W    W    AA    RRRRR   N    N  II  N    N   GGGG   !!!           |
|           W    W   A  A   R    R  NN   N  II  NN   N  G    G  !!!           |
|           W    W  A    A  R    R  N N  N  II  N N  N  G       !!!           |
|           W WW W  AAAAAA  RRRRR   N  N N  II  N  N N  G  GGG   !            |
|           WW  WW  A    A  R   R   N   NN  II  N   NN  G    G                |
|           W    W  A    A  R    R  N    N  II  N    N   GGGG   !!!           |
|                                                                             |
|     You use a magnetic or noncollinear calculation, but did not specify     |
|     the initial magnetic moment with the MAGMOM tag. Note that a            |
|     default of 8.333e-3 will be used for all atoms. This ferromagnetic      |
|     setup may break the symmetry of the crystal, in particular it may       |
|     rule out finding an antiferromagnetic solution. Thence, we              |
|     recommend setting the initial magnetic moment manually or verifying     |
|     carefully that this magnetic setup is desired.                          |
|                                                                             |
 -----------------------------------------------------------------------------

 POTCAR:    PAW_PBE Si 05Jan2001                  
   VRHFIN =Si: s2p2                                                                                 
   LEXCH  = PE                                                                                      
   EATOM  =   103.0669 eV,    7.5752 Ry                                                             
                                                                                                    
   TITEL  = PAW_PBE Si 05Jan2001                                                                    
   LULTRA =        F    use ultrasoft PP ?                                                          
   IUNSCR =        1    unscreen: 0-lin 1-nonlin 2-no                                               
   RPACOR =    1.500    partial core radius                                                         
   POMASS =   28.085; ZVAL   =    4.000    mass and valenz                                          
   RCORE  =    1.900    outmost cutoff radius                                                       
   RWIGS  =    2.480; RWIGS  =    1.312    wigner-seitz radius (au A)                               
   ENMAX  =  245.345; ENMIN  =  184.009 eV                                                          
   ICORE  =        2    local potential                                                             
   LCOR   =        T    correct aug charges                                                         
   LPAW   =        T    paw PP                                                                      
   EAUG   =  322.069                                                                                
   DEXC   =    0.000                                                                                
   RMAX   =    1.950    core radius for proj-oper                                                   
   RAUG   =    1.300    factor for augmentation sphere                                              
   RDEP   =    1.993    radius for radial grids                                                     
   RDEPT  =    1.837    core radius for aug-charge                                                  
                                                                                                    
   Atomic configuration                                                                             
    6 entries                                                                                       
     n  l   j            E        occ.                                                              
     1  0  0.50     -1785.8828   2.0000                                                             
     2  0  0.50      -139.4969   2.0000                                                             
     2  1  1.50       -95.5546   6.0000                                                             
     3  0  0.50       -10.8127   2.0000                                                             
     3  1  0.50        -4.0811   2.0000                                                             
     3  2  1.50        -4.0817   0.0000                                                             
   Description                                                                                      
     l       E           TYP  RCUT    TYP  RCUT                                                     
     0    -10.8127223     23  1.900                                                                 
     0     -7.6451159     23  1.900                                                                 
     1     -4.0811372     23  1.900                                                                 
     1      2.4879257     23  1.900                                                                 
     2     -4.0817478      7  1.900                                                                 
  local pseudopotential read in
  partial core-charges read in
  partial kinetic energy density read in
  atomic valenz-charges read in
  non local Contribution for L=           0  read in
    real space projection operators read in
  non local Contribution for L=           0  read in
    real space projection operators read in
  non local Contribution for L=           1  read in
    real space projection operators read in
  non local Contribution for L=           1  read in
    real space projection operators read in
    PAW grid and wavefunctions read in
 
   number of l-projection  operators is LMAX  =           4
   number of lm-projection operators is LMMAX =           8
 
 POTCAR:    PAW_PBE Ge 05Jan2001                  
   VRHFIN =Ge: s2p2                                                                                 
   LEXCH  = PE                                                                                      
   EATOM  =   104.9960 eV,    7.7170 Ry                                                             
                                                                                                    
   TITEL  = PAW_PBE Ge 05Jan2001                                                                    
   LULTRA =        F    use ultrasoft PP ?                                                          
   IUNSCR =        1    unscreen: 0-lin 1-nonlin 2-no                                               
   RPACOR =    2.170    partial core radius                                                         
   POMASS =   72.610; ZVAL   =    4.000    mass and valenz                                          
   RCORE  =    2.300    outmost cutoff radius                                                       
   RWIGS  =    2.300; RWIGS  =    1.217    wigner-seitz radius (au A)                               
   ENMAX  =  173.807; ENMIN  =  130.355 eV                                                          
   ICORE  =        3    local potential                                                             
   LCOR   =        T    correct aug charges                                                         
   LPAW   =        T    paw PP                                                                      
   EAUG   =  385.843                                                                                
   DEXC   =    0.000                                                                                
   RMAX   =    2.342    core radius for proj-oper                                                   
   RAUG   =    1.300    factor for augmentation sphere                                              
   RDEP   =    2.318    radius for radial grids                                                     
   RDEPT  =    2.103    core radius for aug-charge                                                  
                                                                                                    
   Atomic configuration                                                                             
   10 entries                                                                                       
     n  l   j            E        occ.                                                              
     1  0  0.50    -10959.8463   2.0000                                                             
     2  0  0.50     -1371.6056   2.0000                                                             
     2  1  1.50     -1198.4791   6.0000                                                             
     3  0  0.50      -168.4733   2.0000                                                             
     3  1  1.50      -115.6019   6.0000                                                             
     3  2  2.50       -29.3106  10.0000                                                             
     4  0  0.50       -11.7309   2.0000                                                             
     4  1  0.50        -3.8952   2.0000                                                             
     4  2  1.50        -4.0817   0.0000                                                             
     4  3  2.50        -4.0817   0.0000                                                             
   Description                                                                                      
     l       E           TYP  RCUT    TYP  RCUT                                                     
     0    -11.7309493     23  2.300                                                                 
     0     -7.4578696     23  2.300                                                                 
     1     -3.8952261     23  2.300                                                                 
     1      6.1178114     23  2.300                                                                 
     2     -4.0817478     23  2.300                                                                 
     3     -1.3605826      7  2.300                                                                 
  local pseudopotential read in
  partial core-charges read in
  partial kinetic energy density read in
  atomic valenz-charges read in
  non local Contribution for L=           0  read in
    real space projection operators read in
  non local Contribution for L=           0  read in
    real space projection operators read in
  non local Contribution for L=           1  read in
    real space projection operators read in
  non local Contribution for L=           1  read in
    real space projection operators read in
  non local Contribution for L=           2  read in
    real space projection operators read in
    PAW grid and wavefunctions read in
 
   number of l-projection  operators is LMAX  =           5
   number of lm-projection operators is LMMAX =          13
 
 Optimization of the real space projectors (new method)

 maximal supplied QI-value         = 19.84
 optimisation between [QCUT,QGAM] = [ 13.49, 26.99] = [ 50.98,203.92] Ry 
 Optimized for a Real-space Cutoff    1.07 Angstroem

   l    n(q)    QCUT    max X(q) W(low)/X(q) W(high)/X(q)  e(spline) 
   0      9    13.493   159.560    0.22E-03    0.15E-03    0.72E-07
   0      9    13.493   115.863    0.21E-03    0.15E-03    0.71E-07
   1      8    13.493    88.339    0.15E-03    0.11E-03    0.13E-06
   1      8    13.493    48.592    0.15E-03    0.10E-03    0.13E-06
 Optimization of the real space projectors (new method)

 maximal supplied QI-value         = 16.25
 optimisation between [QCUT,QGAM] = [ 13.49, 26.98] = [ 50.95,203.80] Ry 
 Optimized for a Real-space Cutoff    1.25 Angstroem

   l    n(q)    QCUT    max X(q) W(low)/X(q) W(high)/X(q)  e(spline) 
   0     10    13.489    65.336    0.91E-04    0.11E-03    0.34E-06
   0     10    13.489    52.220    0.89E-04    0.11E-03    0.34E-06
   1     10    13.489    36.409    0.22E-03    0.27E-03    0.14E-06
   1     10    13.489    21.334    0.21E-03    0.27E-03    0.14E-06
   2      9    13.489     4.673    0.11E-03    0.12E-03    0.19E-06
  PAW_PBE Si 05Jan2001                  :
 energy of atom  1       EATOM= -103.0669
 kinetic energy error for atom=    0.0003 (will be added to EATOM!!)
  PAW_PBE Ge 05Jan2001                  :
 energy of atom  2       EATOM= -104.9960
 kinetic energy error for atom=    0.0001 (will be added to EATOM!!)
 
 
 POSCAR: Si+Ge
  positions in direct lattice
  No initial velocities read in


 exchange-correlation table for PE
   RHO(1)=    0.500       N(1)  =     2000
   RHO(2)=  100.500       N(2)  =     4000
 


--------------------------------------------------------------------------------------------------------


 ion  position               nearest neighbor table
   1  0.979  0.986  0.000-  49 2.35  67 2.35  56 2.35  15 2.47
   2  0.729  0.819  0.091-  50 2.35  68 2.35  57 2.35  49 2.35
   3  0.479  0.652  0.183-  51 2.35  69 2.35  58 2.35  50 2.35
   4  0.229  0.486  0.274-  52 2.35  51 2.35  70 2.35  59 2.35
   5  0.979  0.319  0.366-  53 2.35  60 2.35  71 2.35  52 2.35
   6  0.351  0.690  0.560-  85 2.38 115 2.38  48 2.49
   7  0.979  0.319  0.000- 120 2.35  55 2.35  62 2.35
   8  0.729  0.152  0.091-  38 2.35  56 2.35  63 2.35 120 2.35
   9  0.601  0.940  0.897-  13 2.38  75 2.38  49 2.45  19 2.47
  10  0.229  0.819  0.274-  39 2.35  40 2.35  65 2.35  58 2.35
  11  0.979  0.652  0.366-  41 2.35  59 2.35  76 2.35  40 2.35
  12  0.729  0.486  0.457-  60 2.35  41 2.35  42 2.35  22 2.47
  13  0.351  0.940  0.830-   9 2.38  15 2.38 113 2.48  92 2.48
  14  0.729  0.486  0.091-  44 2.35  62 2.35  69 2.35  43 2.35
  15  0.101  0.940  0.897-  13 2.38  75 2.38  67 2.45   1 2.47
  16  0.229  0.152  0.274-  45 2.35  46 2.35  71 2.35  64 2.35
  17  0.979  0.986  0.366-  72 2.35  47 2.35  65 2.35  46 2.35
  18  0.729  0.819  0.457-  76 2.35  48 2.35  47 2.35  66 3.08
  19  0.479  0.986  0.000-  67 2.35  49 2.35  38 2.35   9 2.47
  20  0.229  0.819  0.091-  68 2.35  50 2.35  39 2.35  67 2.35
  21  0.979  0.652  0.183-  51 2.35  69 2.35  40 2.35  68 2.35
  22  0.851  0.440  0.560-  24 2.38  94 2.38  60 2.45  12 2.47
  23  0.479  0.319  0.366-  42 2.35  71 2.35  53 2.35  70 2.35
  24  0.601  0.440  0.628-  22 2.38  28 2.38 104 2.48  77 2.48
  25  0.479  0.319  0.000-  55 2.35  44 2.35 120 2.35  37 3.08
  26  0.101  0.690  0.897-  84 2.38 102 2.38 105 2.44  61 3.09
  27  0.979  0.986  0.183-  46 2.35  56 2.35  39 2.35  57 2.35
  28  0.351  0.440  0.560-  24 2.38  94 2.38  42 2.45  30 2.47
  29  0.351  0.190  0.560-  91 2.38 118 2.38 112 2.44  54 3.09
  30  0.229  0.486  0.457-  59 2.35  60 2.35  42 2.35  28 2.47
  31  0.101  0.190  0.897-  78 2.38  99 2.38  55 2.49
  32  0.229  0.486  0.091-  62 2.35  51 2.35  44 2.35  61 2.35
  33  0.979  0.319  0.183-  52 2.35  45 2.35  63 2.35  62 2.35
  34  0.729  0.152  0.274-  63 2.35  64 2.35  46 2.35  53 2.35
  35  0.479  0.986  0.366-  54 2.35  65 2.35  47 2.35  64 2.35
  36  0.229  0.819  0.457-  76 2.35  48 2.35  65 2.35
  37  0.601  0.440  0.897-  81 2.38 108 2.38  25 3.08
  38  0.479  0.069  0.091-  19 2.35   8 2.35 117 2.35 114 2.35
  39  0.229  0.902  0.183-  10 2.35 117 2.35  20 2.35  27 2.35
  40  0.979  0.736  0.274-  21 2.35  10 2.35 100 2.35  11 2.35
  41  0.729  0.569  0.366-  11 2.35  79 2.35  12 2.35  82 2.35
  42  0.479  0.402  0.457-  23 2.35  12 2.35  30 2.35  28 2.45
  43  0.729  0.569  0.000- 105 2.35 111 2.35  14 2.35
  44  0.479  0.402  0.091-  14 2.35  32 2.35  25 2.35  87 2.35
  45  0.229  0.236  0.183-  87 2.35  16 2.35  33 2.35 114 2.35
  46  0.979  0.069  0.274-  16 2.35  34 2.35  27 2.35  17 2.35
  47  0.729  0.902  0.366-  17 2.35  35 2.35 100 2.35  18 2.35
  48  0.479  0.736  0.457-  79 2.35  18 2.35  36 2.35   6 2.49
  49  0.729  0.902  0.000-   1 2.35  19 2.35   2 2.35   9 2.45
  50  0.479  0.736  0.091-   2 2.35 111 2.35  20 2.35   3 2.35
  51  0.229  0.569  0.183-   3 2.35  21 2.35   4 2.35  32 2.35
  52  0.979  0.402  0.274-   4 2.35  82 2.35  33 2.35   5 2.35
  53  0.729  0.236  0.366-   5 2.35  23 2.35  34 2.35  73 2.35
  54  0.479  0.069  0.457-  35 2.35  73 2.35 112 2.35  29 3.09
  55  0.229  0.236  0.000-   7 2.35  25 2.35 114 2.35  31 2.49
  56  0.979  0.069  0.091-   1 2.35   8 2.35 114 2.35  27 2.35
  57  0.729  0.902  0.183- 100 2.35   2 2.35 117 2.35  27 2.35
  58  0.479  0.736  0.274-   3 2.35 100 2.35  10 2.35  79 2.35
  59  0.229  0.569  0.366-  11 2.35  79 2.35   4 2.35  30 2.35
  60  0.979  0.402  0.457-   5 2.35  12 2.35  30 2.35  22 2.45
  61  0.229  0.569  0.000- 105 2.35 111 2.35  32 2.35  26 3.09
  62  0.979  0.402  0.091-  14 2.35  32 2.35   7 2.35  33 2.35
  63  0.729  0.236  0.183-  34 2.35  87 2.35  33 2.35   8 2.35
  64  0.479  0.069  0.274- 117 2.35  34 2.35  16 2.35  35 2.35
  65  0.229  0.902  0.366-  17 2.35  35 2.35  10 2.35  36 2.35
  66  0.851  0.940  0.560- 109 2.38  88 2.38  18 3.08
  67  0.229  0.902  0.000-   1 2.35  19 2.35  20 2.35  15 2.45
  68  0.979  0.736  0.091-   2 2.35  20 2.35 105 2.35  21 2.35
  69  0.729  0.569  0.183-   3 2.35  82 2.35  21 2.35  14 2.35
  70  0.479  0.402  0.274-  87 2.35  82 2.35   4 2.35  23 2.35
  71  0.229  0.236  0.366-   5 2.35  23 2.35  16 2.35 112 2.35
  72  0.979  0.069  0.457-  73 2.35  17 2.35 112 2.35
  73  0.729  0.152  0.457-  72 2.35  54 2.35  53 2.35 106 2.44
  74  0.101  0.315  0.695-  86 2.38 116 2.38  94 2.48 118 2.48
  75  0.851  0.940  0.830-  15 2.38   9 2.38  95 2.48 119 2.48
  76  0.979  0.736  0.457-  18 2.35  11 2.35  36 2.35 103 2.49
  77  0.601  0.565  0.695-  89 2.38 110 2.38  85 2.48  24 2.48
  78  0.351  0.190  0.830-  31 2.38  90 2.38  86 2.48 113 2.48
  79  0.479  0.652  0.366-  48 2.35  59 2.35  41 2.35  58 2.35
  80  0.101  0.815  0.695-  92 2.38 119 2.38  88 2.48 115 2.48
  81  0.851  0.440  0.830-  37 2.38  93 2.38  89 2.48 116 2.48
  82  0.729  0.486  0.274-  69 2.35  70 2.35  52 2.35  41 2.35
  83  0.601  0.065  0.695-  95 2.38 113 2.38  91 2.48 109 2.48
  84  0.351  0.690  0.830-  26 2.38  96 2.38 110 2.48  92 2.48
  85  0.601  0.690  0.628-   6 2.38 103 2.38  77 2.48 107 2.48
  86  0.351  0.315  0.762-  74 2.38 104 2.38  78 2.48 108 2.48
  87  0.479  0.319  0.183-  70 2.35  45 2.35  63 2.35  44 2.35
  88  0.101  0.940  0.628-  66 2.38  97 2.38  80 2.48 101 2.48
  89  0.851  0.565  0.762-  77 2.38  98 2.38  81 2.48 102 2.48
  90  0.601  0.190  0.897-  78 2.38  99 2.38 120 2.49
  91  0.601  0.190  0.628-  29 2.38 106 2.38  83 2.48 104 2.48
  92  0.351  0.815  0.762-  80 2.38 107 2.38  13 2.48  84 2.48
  93  0.101  0.440  0.897-  81 2.38 108 2.38
  94  0.101  0.440  0.628-  22 2.38  28 2.38  74 2.48  98 2.48
  95  0.851  0.065  0.762-  83 2.38 101 2.38  75 2.48  99 2.48
  96  0.601  0.690  0.897-  84 2.38 102 2.38 111 2.44
  97  0.351  0.940  0.560-  88 2.38 109 2.38
  98  0.101  0.565  0.695- 110 2.38  89 2.38 115 2.48  94 2.48
  99  0.851  0.190  0.830-  31 2.38  90 2.38 116 2.48  95 2.48
 100  0.729  0.819  0.274-  57 2.35  58 2.35  40 2.35  47 2.35
 101  0.101  0.065  0.695-  95 2.38 113 2.38 118 2.48  88 2.48
 102  0.851  0.690  0.830-  26 2.38  96 2.38  89 2.48 119 2.48
 103  0.851  0.690  0.560- 115 2.38  85 2.38  76 2.49
 104  0.601  0.315  0.695-  86 2.38 116 2.38  24 2.48  91 2.48
 105  0.979  0.652  0.000-  43 2.35  68 2.35  61 2.35  26 2.44
 106  0.851  0.190  0.560-  91 2.38 118 2.38  73 2.44
 107  0.601  0.815  0.695-  92 2.38 119 2.38 109 2.48  85 2.48
 108  0.351  0.440  0.830-  37 2.38  93 2.38 110 2.48  86 2.48
 109  0.601  0.940  0.628-  66 2.38  97 2.38  83 2.48 107 2.48
 110  0.351  0.565  0.762-  98 2.38  77 2.38  84 2.48 108 2.48
 111  0.479  0.652  0.000-  50 2.35  61 2.35  43 2.35  96 2.44
 112  0.229  0.152  0.457-  72 2.35  54 2.35  71 2.35  29 2.44
 113  0.351  0.065  0.762-  83 2.38 101 2.38  13 2.48  78 2.48
 114  0.229  0.152  0.091-  55 2.35  45 2.35  56 2.35  38 2.35
 115  0.101  0.690  0.628-   6 2.38 103 2.38  98 2.48  80 2.48
 116  0.851  0.315  0.762-  74 2.38 104 2.38  99 2.48  81 2.48
 117  0.479  0.986  0.183-  64 2.35  39 2.35  57 2.35  38 2.35
 118  0.101  0.190  0.628-  29 2.38 106 2.38 101 2.48  74 2.48
 119  0.851  0.815  0.762-  80 2.38 107 2.38  75 2.48 102 2.48
 120  0.729  0.236  0.000-   7 2.35   8 2.35  25 2.35  90 2.49
 
  LATTYP: Found a simple orthorhombic cell.
 ALAT       =     7.6805944440
 B/A-ratio  =     2.1213200862
 C/A-ratio  =     2.7342758666
  
  Lattice vectors:
  
 A1 = (   7.6805944440,   0.0000000000,   0.0000000000)
 A2 = (   0.0000000000,  16.2929992680,   0.0000000000)
 A3 = (   0.0000000000,   0.0000000000,  21.0008640290)


Analysis of symmetry for initial positions (statically):
=====================================================================
 Subroutine PRICEL returns:
 Original cell was already a primitive cell.
 

 Routine SETGRP: Setting up the symmetry group for a 
 simple orthorhombic supercell.


 Subroutine GETGRP returns: Found  1 space group operations
 (whereof  1 operations were pure point group operations)
 out of a pool of  8 trial point group operations.


The static configuration has the point symmetry C_1 .


Analysis of symmetry for dynamics (positions and initial velocities):
=====================================================================
 Subroutine PRICEL returns:
 Original cell was already a primitive cell.
 

 Routine SETGRP: Setting up the symmetry group for a 
 simple orthorhombic supercell.


 Subroutine GETGRP returns: Found  1 space group operations
 (whereof  1 operations were pure point group operations)
 out of a pool of  8 trial point group operations.


The dynamic configuration has the point symmetry C_1 .


Analysis of structural, dynamic, and magnetic symmetry:
=====================================================================
 Subroutine PRICEL returns:
 Original cell was already a primitive cell.
 

 Routine SETGRP: Setting up the symmetry group for a 
 simple orthorhombic supercell.


 Subroutine GETGRP returns: Found  1 space group operations
 (whereof  1 operations were pure point group operations)
 out of a pool of  8 trial point group operations.


The overall configuration has the point symmetry C_1 .


 Subroutine INISYM returns: Found  1 space group operations
 (whereof  1 operations are pure point group operations),
 and found     1 'primitive' translations


----------------------------------------------------------------------------------------

                                     Primitive cell                                     

  volume of cell :    2628.0464

  direct lattice vectors                    reciprocal lattice vectors
     7.680594444  0.000000000  0.000000000     0.130198256  0.000000000  0.000000000
     0.000000000 16.292999268  0.000000000     0.000000000  0.061376054  0.000000000
     0.000000000  0.000000000 21.000864029     0.000000000  0.000000000  0.047617088

  length of vectors
     7.680594444 16.292999268 21.000864029     0.130198256  0.061376054  0.047617088

  position of ions in fractional coordinates (direct lattice)
     0.978517294  0.985678196  0.000000001
     0.728517234  0.819011450  0.091431901
     0.478517175  0.652344763  0.182863802
     0.228517234  0.485678136  0.274295658
     0.978517175  0.319011390  0.365727574
     0.351163626  0.690163195  0.560199738
     0.978517294  0.319011539  0.000000001
     0.728517234  0.152344853  0.091431901
     0.601163566  0.940163195  0.896959722
     0.228517234  0.819011509  0.274295658
     0.978517175  0.652344763  0.365727574
     0.728517175  0.485678077  0.457159460
     0.351163626  0.940163314  0.829607725
     0.728517234  0.485678196  0.091431901
     0.101163626  0.940163195  0.896959722
     0.228517234  0.152344868  0.274295658
     0.978517175  0.985678136  0.365727574
     0.728517175  0.819011390  0.457159460
     0.478517294  0.985678196  0.000000000
     0.228517249  0.819011450  0.091431901
     0.978517234  0.652344763  0.182863802
     0.851163566  0.440163225  0.560199738
     0.478517175  0.319011390  0.365727574
     0.601163626  0.440163255  0.627551734
     0.478517294  0.319011539  0.000000000
     0.101163626  0.690163255  0.896959722
     0.978517234  0.985678136  0.182863802
     0.351163626  0.440163255  0.560199738
     0.351163626  0.190163255  0.560199738
     0.228517115  0.485678077  0.457159460
     0.101163626  0.190163255  0.896959722
     0.228517249  0.485678196  0.091431901
     0.978517234  0.319011509  0.182863802
     0.728517294  0.152344868  0.274295628
     0.478517175  0.985678136  0.365727574
     0.228517115  0.819011390  0.457159460
     0.601163626  0.440163255  0.896959722
     0.478517294  0.069011487  0.091431893
     0.228517264  0.902344763  0.182863802
     0.978517294  0.735678136  0.274295658
     0.728517234  0.569011450  0.365727574
     0.478517234  0.402344644  0.457159400
     0.728517354  0.569011629  0.000000000
     0.478517294  0.402344882  0.091431893
     0.228517264  0.235678196  0.182863802
     0.978517294  0.069011539  0.274295658
     0.728517234  0.902344823  0.365727574
     0.478517234  0.735678077  0.457159400
     0.728517354  0.902344942  0.000000000
     0.478517294  0.735678196  0.091431893
     0.228517264  0.569011509  0.182863802
     0.978517294  0.402344853  0.274295658
     0.728517234  0.235678121  0.365727574
     0.478517234  0.069011383  0.457159400
     0.228517294  0.235678196  0.000000001
     0.978517234  0.069011487  0.091431901
     0.728517175  0.902344763  0.182863802
     0.478517294  0.735678136  0.274295628
     0.228517175  0.569011450  0.365727574
     0.978517056  0.402344644  0.457159460
     0.228517294  0.569011629  0.000000001
     0.978517234  0.402344882  0.091431901
     0.728517175  0.235678196  0.182863802
     0.478517294  0.069011539  0.274295628
     0.228517175  0.902344823  0.365727574
     0.851163626  0.940163195  0.560199738
     0.228517294  0.902344942  0.000000001
     0.978517234  0.735678196  0.091431901
     0.728517175  0.569011509  0.182863802
     0.478517294  0.402344853  0.274295628
     0.228517175  0.235678121  0.365727574
     0.978517056  0.069011383  0.457159460
     0.728517175  0.152344704  0.457159460
     0.101163626  0.315163255  0.694903731
     0.851163626  0.940163314  0.829607725
     0.978517056  0.735678077  0.457159460
     0.601163626  0.565163255  0.694903731
     0.351163626  0.190163255  0.829607725
     0.478517175  0.652344763  0.365727574
     0.101163626  0.815163314  0.694903731
     0.851163626  0.440163255  0.829607725
     0.728517294  0.485678136  0.274295628
     0.601163626  0.065163255  0.694903731
     0.351163626  0.690163255  0.829607725
     0.601163566  0.690163195  0.627551734
     0.351163626  0.315163255  0.762255728
     0.478517175  0.319011509  0.182863802
     0.101163626  0.940163195  0.627551734
     0.851163626  0.565163255  0.762255728
     0.601163626  0.190163255  0.896959722
     0.601163626  0.190163255  0.627551734
     0.351163626  0.815163314  0.762255728
     0.101163626  0.440163255  0.896959722
     0.101163507  0.440163225  0.627551734
     0.851163626  0.065163255  0.762255728
     0.601163626  0.690163255  0.896959722
     0.351163626  0.940163255  0.560199738
     0.101163745  0.565163314  0.694903731
     0.851163626  0.190163374  0.829607725
     0.728517294  0.819011509  0.274295628
     0.101163626  0.065163255  0.694903731
     0.851163626  0.690163255  0.829607725
     0.851163626  0.690163255  0.560199738
     0.601163626  0.315163314  0.694903731
     0.978517294  0.652344942  0.000000001
     0.851163626  0.190163255  0.560199738
     0.601163626  0.815163255  0.694903731
     0.351163626  0.440163314  0.829607725
     0.601163685  0.940163255  0.627551734
     0.351163626  0.565163314  0.762255728
     0.478517294  0.652344942  0.000000000
     0.228517115  0.152344704  0.457159460
     0.351163626  0.065163255  0.762255728
     0.228517249  0.152344853  0.091431901
     0.101163626  0.690163195  0.627551734
     0.851163626  0.315163225  0.762255728
     0.478517175  0.985678136  0.182863802
     0.101163626  0.190163255  0.627551734
     0.851163626  0.815163314  0.762255728
     0.728517354  0.235678196  0.000000000

  ion indices of the primitive-cell ions
   primitive index   ion index
                 1           1
                 2           2
                 3           3
                 4           4
                 5           5
                 6           6
                 7           7
                 8           8
                 9           9
                10          10
                11          11
                12          12
                13          13
                14          14
                15          15
                16          16
                17          17
                18          18
                19          19
                20          20
                21          21
                22          22
                23          23
                24          24
                25          25
                26          26
                27          27
                28          28
                29          29
                30          30
                31          31
                32          32
                33          33
                34          34
                35          35
                36          36
                37          37
                38          38
                39          39
                40          40
                41          41
                42          42
                43          43
                44          44
                45          45
                46          46
                47          47
                48          48
                49          49
                50          50
                51          51
                52          52
                53          53
                54          54
                55          55
                56          56
                57          57
                58          58
                59          59
                60          60
                61          61
                62          62
                63          63
                64          64
                65          65
                66          66
                67          67
                68          68
                69          69
                70          70
                71          71
                72          72
                73          73
                74          74
                75          75
                76          76
                77          77
                78          78
                79          79
                80          80
                81          81
                82          82
                83          83
                84          84
                85          85
                86          86
                87          87
                88          88
                89          89
                90          90
                91          91
                92          92
                93          93
                94          94
                95          95
                96          96
                97          97
                98          98
                99          99
               100         100
               101         101
               102         102
               103         103
               104         104
               105         105
               106         106
               107         107
               108         108
               109         109
               110         110
               111         111
               112         112
               113         113
               114         114
               115         115
               116         116
               117         117
               118         118
               119         119
               120         120

----------------------------------------------------------------------------------------

 
 
 KPOINTS: Automatic KPOINTS generated             

Automatic generation of k-mesh.
 Grid dimensions read from file:
 generate k-points for:    4    2    1

 Generating k-lattice:

  Cartesian coordinates                     Fractional coordinates (reciprocal lattice)
     0.032549564  0.000000000  0.000000000     0.250000000  0.000000000  0.000000000
     0.000000000  0.030688027  0.000000000     0.000000000  0.500000000  0.000000000
     0.000000000  0.000000000  0.047617088     0.000000000  0.000000000  1.000000000

  Length of vectors
     0.032549564  0.030688027  0.047617088

  Shift w.r.t. Gamma in fractional coordinates (k-lattice)
     0.000000000  0.000000000  0.000000000

 
 Subroutine IBZKPT returns following result:
 ===========================================
 
 Found      6 irreducible k-points:
 
 Following reciprocal coordinates:
            Coordinates               Weight
  0.000000  0.000000  0.000000      1.000000
  0.250000  0.000000  0.000000      2.000000
  0.500000  0.000000  0.000000      1.000000
  0.000000  0.500000  0.000000      1.000000
  0.250000  0.500000  0.000000      2.000000
  0.500000  0.500000  0.000000      1.000000
 
 Following cartesian coordinates:
            Coordinates               Weight
  0.000000  0.000000  0.000000      1.000000
  0.032550  0.000000  0.000000      2.000000
  0.065099  0.000000  0.000000      1.000000
  0.000000  0.030688  0.000000      1.000000
  0.032550  0.030688  0.000000      2.000000
  0.065099  0.030688  0.000000      1.000000
 


--------------------------------------------------------------------------------------------------------




 Dimension of arrays:
   k-points           NKPTS =      6   k-points in BZ     NKDIM =      6   number of bands    NBANDS=    288
   number of dos      NEDOS =    301   number of ions     NIONS =    120
   non local maximal  LDIM  =      5   non local SUM 2l+1 LMDIM =     13
   total plane-waves  NPLWV = 756000
   max r-space proj   IRMAX =   2381   max aug-charges    IRDMAX= 125263
   dimension x,y,z NGX =    50 NGY =  108 NGZ =  140
   dimension x,y,z NGXF=   100 NGYF=  216 NGZF=  280
   support grid    NGXF=   200 NGYF=  432 NGZF=  560
   ions per type =              72  48
   NGX,Y,Z   is equivalent  to a cutoff of  10.82, 11.02, 11.08 a.u.
   NGXF,Y,Z  is equivalent  to a cutoff of  21.64, 22.04, 22.17 a.u.

 SYSTEM =  Si and Ge interface calculation         
 POSCAR =  Si+Ge                                   

 Startparameter for this run:
   NWRITE =      2    write-flag & timer
   PREC   = normal    normal or accurate (medium, high low for compatibility)
   ISTART =      0    job   : 0-new  1-cont  2-samecut
   ICHARG =      2    charge: 1-file 2-atom 10-const
   ISPIN  =      2    spin polarized calculation?
   LNONCOLLINEAR =      F non collinear calculations
   LSORBIT =      F    spin-orbit coupling
   INIWAV =      1    electr: 0-lowe 1-rand  2-diag
   LASPH  =      T    aspherical Exc in radial PAW
 Electronic Relaxation 1
   ENCUT  =  700.0 eV  51.45 Ry    7.17 a.u.  16.57 35.15 45.30*2*pi/ulx,y,z
   ENINI  =  700.0     initial cutoff
   ENAUG  =  900.0 eV  augmentation charge cutoff
   NELM   =    100;   NELMIN=  2; NELMDL= -5     # of ELM steps 
   EDIFF  = 0.1E-06   stopping-criterion for ELM
   LREAL  =      T    real-space projection
   NLSPLINE    = F    spline interpolate recip. space projectors
   LCOMPAT=      F    compatible to vasp.4.4
   GGA_COMPAT  = T    GGA compatible to vasp.4.4-vasp.4.6
   LMAXPAW     = -100 max onsite density
   LMAXMIX     =    6 max onsite mixed and CHGCAR
   VOSKOWN=      0    Vosko Wilk Nusair interpolation
   ROPT   =   -0.00050  -0.00050
 Ionic relaxation
   EDIFFG = 0.1E-05   stopping-criterion for IOM
   NSW    =      0    number of steps for IOM
   NBLOCK =      1;   KBLOCK =      1    inner block; outer block 
   IBRION =     -1    ionic relax: 0-MD 1-quasi-New 2-CG
   NFREE  =      0    steps in history (QN), initial steepest desc. (CG)
   ISIF   =      2    stress and relaxation
   IWAVPR =     10    prediction:  0-non 1-charg 2-wave 3-comb
   ISYM   =      2    0-nonsym 1-usesym 2-fastsym
   LCORR  =      T    Harris-Foulkes like correction to forces

   POTIM  = 0.5000    time-step for ionic-motion
   TEIN   =    0.0    initial temperature
   TEBEG  =    0.0;   TEEND  =   0.0 temperature during run
   SMASS  =  -3.00    Nose mass-parameter (am)
   estimated Nose-frequenzy (Omega)   =  0.10E-29 period in steps = 0.13E+47 mass=  -0.135E-26a.u.
   SCALEE = 1.0000    scale energy and forces
   NPACO  =    256;   APACO  = 10.0  distance and # of slots for P.C.
   PSTRESS=    0.0 pullay stress

  Mass of Ions in am
   POMASS =  28.09 72.61
  Ionic Valenz
   ZVAL   =   4.00  4.00
  Atomic Wigner-Seitz radii
   RWIGS  =  -1.00 -1.00
  virtual crystal weights 
   VCA    =   1.00  1.00
   NELECT =     480.0000    total number of electrons
   NUPDOWN=       1.0000    fix difference up-down

 DOS related values:
   EMIN   =  10.00;   EMAX   =-10.00  energy-range for DOS
   EFERMI =   0.00;   METHOD = LEGACY      
   ISMEAR =     0;   SIGMA  =   0.01  broadening in eV -4-tet -1-fermi 0-gaus

 Electronic relaxation 2 (details)
   IALGO  =     38    algorithm
   LDIAG  =      T    sub-space diagonalisation (order eigenvalues)
   LSUBROT=      F    optimize rotation matrix (better conditioning)
   TURBO    =      0    0=normal 1=particle mesh
   IRESTART =      0    0=no restart 2=restart with 2 vectors
   NREBOOT  =      0    no. of reboots
   NMIN     =      0    reboot dimension
   EREF     =   0.00    reference energy to select bands
   IMIX   =      4    mixing-type and parameters
     AMIX     =   0.60;   BMIX     =  1.00
     AMIX_MAG =   2.40;   BMIX_MAG =  1.00
     AMIN     =   0.10
     WC   =   100.;   INIMIX=   1;  MIXPRE=   1;  MAXMIX= -45

 Intra band minimization:
   WEIMIN = 0.0000     energy-eigenvalue tresh-hold
   EBREAK =  0.87E-10  absolut break condition
   DEPER  =   0.30     relativ break condition  

   TIME   =   0.40     timestep for ELM

  volume/ion in A,a.u.               =      21.90       147.79
  Fermi-wavevector in a.u.,A,eV,Ry     =   0.928847  1.755267 11.738521  0.862757
  Thomas-Fermi vector in A             =   2.055067
 
 Write flags
   LWAVE        =      F    write WAVECAR
   LDOWNSAMPLE  =      F    k-point downsampling of WAVECAR
   LCHARG       =      T    write CHGCAR
   LVTOT        =      F    write LOCPOT, total local potential
   LVHAR        =      T    write LOCPOT, Hartree potential only
   WRT_POTENTIAL=  hartree ionic  ! write potential to hdf5 file
   LELF         =      F    write electronic localiz. function (ELF)
   LORBIT       =      0    0 simple, 1 ext, 2 COOP (PROOUT), +10 PAW based schemes


 Dipole corrections
   LMONO      =      F    monopole corrections only (constant potential shift)
   LDIPOL     =      F    correct potential (dipole corrections)
   IDIPOL     =      0    1-x, 2-y, 3-z, 4-all directions 
   EPSILON    =  1.0000000 bulk dielectric constant
   LVACPOTAV  =      F  vacuum potentials using an averaging scheme for the charge density
   VACPOTFLAT =  0.1000000 required flatness to determine vacuum potential
 Exchange correlation treatment:
   GGA     = PE    functional components
   XC_C    = 1    coefficients multiplying the functional components
   LIBXC   =     F    Libxc                    
   VOSKOWN =     0    Vosko Wilk Nusair interpolation
   LHFCALC =     F    Hartree Fock is set to
   LHFONE  =     F    Hartree Fock one center treatment
   AEXX    =    0.0000 exact exchange contribution

 Parameters of functionals:
   PE:
     No parameter
 
 Van der Waals corrections
   IVDW    =     0    specifies the selected vdW correction

 Linear response parameters
   LEPSILON=     F    determine dielectric tensor
   LRPA    =     F    only Hartree local field effects (RPA)
   LNABLA  =     F    use nabla operator in PAW spheres
   LVEL    =     F    velocity operator in full k-point grid
   CSHIFT  =0.1000    complex shift for real part using Kramers Kronig
   OMEGAMAX=  -1.0    maximum frequency
   DEG_THRESHOLD= 0.2000000E-02 threshold for treating states as degnerate
   RTIME   =   -0.100 relaxation time in fs
  (WPLASMAI=    0.000 imaginary part of plasma frequency in eV, 0.658/RTIME)
   DFIELD  = 0.0000000 0.0000000 0.0000000 field for delta impulse in time
 
  Optional k-point grid parameters
   LKPOINTS_OPT  =     F    use optional k-point grid
   KPOINTS_OPT_MODE=     1    mode for optional k-point grid
 
 Orbital magnetization related:
   ORBITALMAG=     F  switch on orbital magnetization
   LCHIMAG   =     F  perturbation theory with respect to B field
   DQ        =  0.001000  dq finite difference perturbation B field
   LLRAUG    =     F  two centre corrections for induced B field
   LBONE     =     F  B-component reconstruction in AE one-centre
   LVGVCALC  =     T  calculate vGv susceptibility
   LVGVAPPL  =     F  apply vGv susceptibility instead of pGv for G=0

 Random number generation:
   RANDOM_GENERATOR = DEFAULT
   PCG_SEED         = not used


--------------------------------------------------------------------------------------------------------


 Static calculation
 charge density and potential will be updated during run
 spin polarized calculation
 Variant of blocked Davidson
 Davidson routine will perform the subspace rotation
 perform sub-space diagonalisation
    after iterative eigenvector-optimisation
 modified Broyden-mixing scheme, WC =      100.0
 initial mixing is a Kerker type mixing with AMIX =  0.6000 and BMIX =      1.0000
 Hartree-type preconditioning will be used
 using additional bands           48
 real space projection scheme for non local part
 use partial core corrections
 calculate Harris-corrections to forces 
   (improved forces if not selfconsistent)
 use gradient corrections 
 use of overlap-Matrix (Vanderbilt PP)
 Gauss-broadening in eV      SIGMA  =   0.01


--------------------------------------------------------------------------------------------------------


  energy-cutoff  :      700.00
  volume of cell :     2628.05
      direct lattice vectors                 reciprocal lattice vectors
     7.680594444  0.000000000  0.000000000     0.130198256  0.000000000  0.000000000
     0.000000000 16.292999268  0.000000000     0.000000000  0.061376054  0.000000000
     0.000000000  0.000000000 21.000864029     0.000000000  0.000000000  0.047617088

  length of vectors
     7.680594444 16.292999268 21.000864029     0.130198256  0.061376054  0.047617088


 
 k-points in units of 2pi/SCALE and weight: Automatic KPOINTS generated             
   0.00000000  0.00000000  0.00000000       0.125
   0.03254956  0.00000000  0.00000000       0.250
   0.06509913  0.00000000  0.00000000       0.125
   0.00000000  0.03068803  0.00000000       0.125
   0.03254956  0.03068803  0.00000000       0.250
   0.06509913  0.03068803  0.00000000       0.125
 
 k-points in reciprocal lattice and weights: Automatic KPOINTS generated             
   0.00000000  0.00000000  0.00000000       0.125
   0.25000000  0.00000000  0.00000000       0.250
   0.50000000  0.00000000  0.00000000       0.125
   0.00000000  0.50000000  0.00000000       0.125
   0.25000000  0.50000000  0.00000000       0.250
   0.50000000  0.50000000  0.00000000       0.125
 
 position of ions in fractional coordinates (direct lattice) 
   0.97851729  0.98567820  0.00000000
   0.72851723  0.81901145  0.09143190
   0.47851718  0.65234476  0.18286380
   0.22851723  0.48567814  0.27429566
   0.97851718  0.31901139  0.36572757
   0.35116363  0.69016319  0.56019974
   0.97851729  0.31901154  0.00000000
   0.72851723  0.15234485  0.09143190
   0.60116357  0.94016319  0.89695972
   0.22851723  0.81901151  0.27429566
   0.97851718  0.65234476  0.36572757
   0.72851718  0.48567808  0.45715946
   0.35116363  0.94016331  0.82960773
   0.72851723  0.48567820  0.09143190
   0.10116363  0.94016319  0.89695972
   0.22851723  0.15234487  0.27429566
   0.97851718  0.98567814  0.36572757
   0.72851718  0.81901139  0.45715946
   0.47851729  0.98567820  0.00000000
   0.22851725  0.81901145  0.09143190
   0.97851723  0.65234476  0.18286380
   0.85116357  0.44016322  0.56019974
   0.47851718  0.31901139  0.36572757
   0.60116363  0.44016326  0.62755173
   0.47851729  0.31901154  0.00000000
   0.10116363  0.69016326  0.89695972
   0.97851723  0.98567814  0.18286380
   0.35116363  0.44016326  0.56019974
   0.35116363  0.19016326  0.56019974
   0.22851712  0.48567808  0.45715946
   0.10116363  0.19016326  0.89695972
   0.22851725  0.48567820  0.09143190
   0.97851723  0.31901151  0.18286380
   0.72851729  0.15234487  0.27429563
   0.47851718  0.98567814  0.36572757
   0.22851712  0.81901139  0.45715946
   0.60116363  0.44016326  0.89695972
   0.47851729  0.06901149  0.09143189
   0.22851726  0.90234476  0.18286380
   0.97851729  0.73567814  0.27429566
   0.72851723  0.56901145  0.36572757
   0.47851723  0.40234464  0.45715940
   0.72851735  0.56901163  0.00000000
   0.47851729  0.40234488  0.09143189
   0.22851726  0.23567820  0.18286380
   0.97851729  0.06901154  0.27429566
   0.72851723  0.90234482  0.36572757
   0.47851723  0.73567808  0.45715940
   0.72851735  0.90234494  0.00000000
   0.47851729  0.73567820  0.09143189
   0.22851726  0.56901151  0.18286380
   0.97851729  0.40234485  0.27429566
   0.72851723  0.23567812  0.36572757
   0.47851723  0.06901138  0.45715940
   0.22851729  0.23567820  0.00000000
   0.97851723  0.06901149  0.09143190
   0.72851718  0.90234476  0.18286380
   0.47851729  0.73567814  0.27429563
   0.22851718  0.56901145  0.36572757
   0.97851706  0.40234464  0.45715946
   0.22851729  0.56901163  0.00000000
   0.97851723  0.40234488  0.09143190
   0.72851718  0.23567820  0.18286380
   0.47851729  0.06901154  0.27429563
   0.22851718  0.90234482  0.36572757
   0.85116363  0.94016319  0.56019974
   0.22851729  0.90234494  0.00000000
   0.97851723  0.73567820  0.09143190
   0.72851718  0.56901151  0.18286380
   0.47851729  0.40234485  0.27429563
   0.22851718  0.23567812  0.36572757
   0.97851706  0.06901138  0.45715946
   0.72851718  0.15234470  0.45715946
   0.10116363  0.31516326  0.69490373
   0.85116363  0.94016331  0.82960773
   0.97851706  0.73567808  0.45715946
   0.60116363  0.56516326  0.69490373
   0.35116363  0.19016326  0.82960773
   0.47851718  0.65234476  0.36572757
   0.10116363  0.81516331  0.69490373
   0.85116363  0.44016326  0.82960773
   0.72851729  0.48567814  0.27429563
   0.60116363  0.06516326  0.69490373
   0.35116363  0.69016326  0.82960773
   0.60116357  0.69016319  0.62755173
   0.35116363  0.31516326  0.76225573
   0.47851718  0.31901151  0.18286380
   0.10116363  0.94016319  0.62755173
   0.85116363  0.56516326  0.76225573
   0.60116363  0.19016326  0.89695972
   0.60116363  0.19016326  0.62755173
   0.35116363  0.81516331  0.76225573
   0.10116363  0.44016326  0.89695972
   0.10116351  0.44016322  0.62755173
   0.85116363  0.06516326  0.76225573
   0.60116363  0.69016326  0.89695972
   0.35116363  0.94016326  0.56019974
   0.10116375  0.56516331  0.69490373
   0.85116363  0.19016337  0.82960773
   0.72851729  0.81901151  0.27429563
   0.10116363  0.06516326  0.69490373
   0.85116363  0.69016326  0.82960773
   0.85116363  0.69016326  0.56019974
   0.60116363  0.31516331  0.69490373
   0.97851729  0.65234494  0.00000000
   0.85116363  0.19016326  0.56019974
   0.60116363  0.81516326  0.69490373
   0.35116363  0.44016331  0.82960773
   0.60116369  0.94016326  0.62755173
   0.35116363  0.56516331  0.76225573
   0.47851729  0.65234494  0.00000000
   0.22851712  0.15234470  0.45715946
   0.35116363  0.06516326  0.76225573
   0.22851725  0.15234485  0.09143190
   0.10116363  0.69016319  0.62755173
   0.85116363  0.31516322  0.76225573
   0.47851718  0.98567814  0.18286380
   0.10116363  0.19016326  0.62755173
   0.85116363  0.81516331  0.76225573
   0.72851735  0.23567820  0.00000000
 
 position of ions in cartesian coordinates  (Angst):
   7.51559449 16.05965413  0.00000002
   5.59544542 13.34415296  1.92014892
   3.67529636 10.62865275  3.84029784
   1.75514820  7.91315351  5.76044582
   7.51559358  5.19765234  7.68059505
   2.69714539 11.24482843 11.76467853
   7.51559449  5.19765477  0.00000002
   5.59544542  2.48215458  1.92014892
   4.61729354 15.31807825 18.83692916
   1.75514820 13.34415392  5.76044582
   7.51559358 10.62865275  7.68059505
   5.59544497  7.91315255  9.60074366
   2.69714539 15.31808019 17.42247903
   5.59544542  7.91315449  1.92014892
   0.77699678 15.31807825 18.83692916
   1.75514820  2.48215482  5.76044582
   7.51559358 16.05965315  7.68059505
   5.59544497 13.34415198  9.60074366
   3.67529727 16.05965413  0.00000000
   1.75514831 13.34415296  1.92014892
   7.51559403 10.62865275  3.84029784
   6.53744216  7.17157910 11.76467853
   3.67529636  5.19765234  7.68059505
   4.61729401  7.17157959 13.17912864
   3.67529727  5.19765477  0.00000000
   0.77699678 11.24482941 18.83692916
   7.51559403 16.05965315  3.84029784
   2.69714539  7.17157959 11.76467853
   2.69714539  3.09832977 11.76467853
   1.75514728  7.91315255  9.60074366
   0.77699678  3.09832977 18.83692916
   1.75514831  7.91315449  1.92014892
   7.51559403  5.19765428  3.84029784
   5.59544588  2.48215482  5.76044519
   3.67529636 16.05965315  7.68059505
   1.75514728 13.34415198  9.60074366
   4.61729401  7.17157959 18.83692916
   3.67529727  1.12440411  1.92014875
   1.75514843 14.70190256  3.84029784
   7.51559449 11.98640333  5.76044582
   5.59544542  9.27090314  7.68059505
   3.67529681  6.55540099  9.60074240
   5.59544634  9.27090605  0.00000000
   3.67529727  6.55540487  1.92014875
   1.75514843  3.83990467  3.84029784
   7.51559449  1.12440495  5.76044582
   5.59544542 14.70190354  7.68059505
   3.67529681 11.98640237  9.60074240
   5.59544634 14.70190548  0.00000000
   3.67529727 11.98640431  1.92014875
   1.75514843  9.27090410  3.84029784
   7.51559449  6.55540440  5.76044582
   5.59544542  3.83990345  7.68059505
   3.67529681  1.12440241  9.60074240
   1.75514866  3.83990467  0.00000002
   7.51559403  1.12440411  1.92014892
   5.59544497 14.70190256  3.84029784
   3.67529727 11.98640333  5.76044519
   1.75514774  9.27090314  7.68059505
   7.51559266  6.55540099  9.60074366
   1.75514866  9.27090605  0.00000002
   7.51559403  6.55540487  1.92014892
   5.59544497  3.83990467  3.84029784
   3.67529727  1.12440495  5.76044519
   1.75514774 14.70190354  7.68059505
   6.53744262 15.31807825 11.76467853
   1.75514866 14.70190548  0.00000002
   7.51559403 11.98640431  1.92014892
   5.59544497  9.27090410  3.84029784
   3.67529727  6.55540440  5.76044519
   1.75514774  3.83990345  7.68059505
   7.51559266  1.12440241  9.60074366
   5.59544497  2.48215215  9.60074366
   0.77699678  5.13495468 14.59357877
   6.53744262 15.31808019 17.42247903
   7.51559266 11.98640237  9.60074366
   4.61729401  9.20820450 14.59357877
   2.69714539  3.09832977 17.42247903
   3.67529636 10.62865275  7.68059505
   0.77699678 13.28145528 14.59357877
   6.53744262  7.17157959 17.42247903
   5.59544588  7.91315351  5.76044519
   4.61729401  1.06170487 14.59357877
   2.69714539 11.24482941 17.42247903
   4.61729354 11.24482843 13.17912864
   2.69714539  5.13495468 16.00802890
   3.67529636  5.19765428  3.84029784
   0.77699678 15.31807825 13.17912864
   6.53744262  9.20820450 16.00802890
   4.61729401  3.09832977 18.83692916
   4.61729401  3.09832977 13.17912864
   2.69714539 13.28145528 16.00802890
   0.77699678  7.17157959 18.83692916
   0.77699587  7.17157910 13.17912864
   6.53744262  1.06170487 16.00802890
   4.61729401 11.24482941 18.83692916
   2.69714539 15.31807923 11.76467853
   0.77699770  9.20820546 14.59357877
   6.53744262  3.09833171 17.42247903
   5.59544588 13.34415392  5.76044519
   0.77699678  1.06170487 14.59357877
   6.53744262 11.24482941 17.42247903
   6.53744262 11.24482941 11.76467853
   4.61729401  5.13495564 14.59357877
   7.51559449 10.62865566  0.00000002
   6.53744262  3.09832977 11.76467853
   4.61729401 13.28145432 14.59357877
   2.69714539  7.17158055 17.42247903
   4.61729446 15.31807923 13.17912864
   2.69714539  9.20820546 16.00802890
   3.67529727 10.62865566  0.00000000
   1.75514728  2.48215215  9.60074366
   2.69714539  1.06170487 16.00802890
   1.75514831  2.48215458  1.92014892
   0.77699678 11.24482843 13.17912864
   6.53744262  5.13495419 16.00802890
   3.67529636 16.05965315  3.84029784
   0.77699678  3.09832977 13.17912864
   6.53744262 13.28145528 16.00802890
   5.59544634  3.83990467  0.00000000
 


--------------------------------------------------------------------------------------------------------


 k-point     1 :   0.0000 0.0000 0.0000  plane waves:  110549
 k-point     2 :   0.2500 0.0000 0.0000  plane waves:  110533
 k-point     3 :   0.5000 0.0000 0.0000  plane waves:  110530
 k-point     4 :   0.0000 0.5000 0.0000  plane waves:  110618
 k-point     5 :   0.2500 0.5000 0.0000  plane waves:  110556
 k-point     6 :   0.5000 0.5000 0.0000  plane waves:  110468

 maximum and minimum number of plane-waves per node :      6948     6873

 maximum number of plane-waves:    110618
 maximum index in each direction: 
   IXMAX=   16   IYMAX=   35   IZMAX=   45
   IXMIN=  -17   IYMIN=  -35   IZMIN=  -45


 real space projection operators:
  total allocation   :      17568.25 KBytes
  max/ min on nodes  :       1393.94       1021.18


 parallel 3D FFT for wavefunctions:
    minimum data exchange during FFTs selected (reduces bandwidth)
 parallel 3D FFT for charge:
    minimum data exchange during FFTs selected (reduces bandwidth)


 total amount of memory used by VASP MPI-rank0   166814. kBytes
=======================================================================

   base      :      30000. kBytes
   nonlr-proj:       6533. kBytes
   fftplans  :      18524. kBytes
   grid      :      14584. kBytes
   one-center:        129. kBytes
   wavefun   :      97044. kBytes
 
     INWAV:  cpu time      0.0000: real time      0.0003
 Broyden mixing: mesh for mixing (old mesh)
   NGX = 33   NGY = 71   NGZ = 91
  (NGX  =100   NGY  =216   NGZ  =280)
  gives a total of 213213 points

 initial charge density was supplied:
 charge density of overlapping atoms calculated
 number of electron     480.0000000 magnetization       1.0000000
 keeping initial charge density in first step


--------------------------------------------------------------------------------------------------------


 Maximum index for non-local projection operator          418
 Maximum index for augmentation-charges         5904 (set IRDMAX)


--------------------------------------------------------------------------------------------------------


 First call to EWALD:  gamma=   0.128
 Maximum number of real-space cells 5x 2x 2
 Maximum number of reciprocal cells 2x 3x 4

    FEWALD:  cpu time      0.0031: real time      0.0031


--------------------------------------- Ionic step        1  -------------------------------------------




--------------------------------------- Iteration      1(   1)  ---------------------------------------


    POTLOK:  cpu time      0.2003: real time      0.2023
    SETDIJ:  cpu time      1.0246: real time      1.0307
     EDDAV:  cpu time     18.0214: real time     18.1884
       DOS:  cpu time      0.0016: real time      0.0016
    --------------------------------------------
      LOOP:  cpu time     19.2479: real time     19.4230

 eigenvalue-minimisations  :  6912
 total energy-change (2. order) : 0.1966921E+04  (-0.2139687E+05)
 number of electron     480.0000000 magnetization       1.0000000
 augmentation part      480.0000000 magnetization       1.0000000

 Free energy of the ion-electron system (eV)
  ---------------------------------------------------
  alpha Z        PSCENC =       529.58409355
  Ewald energy   TEWEN  =    -12736.13612467
  -Hartree energ DENC   =     -1248.38230457
  -exchange      EXHF   =         0.00000000
  -V(xc)+E(xc)   XCENC  =     -1036.08645449
  PAW double counting   =     10575.88222728    -8613.76247617
  entropy T*S    EENTRO =        -0.00238458
  eigenvalues    EBANDS =      2035.22424881
  atomic energy  EATOM  =     12460.60057749
  Solvation  Ediel_sol  =         0.00000000
  ---------------------------------------------------
  free energy    TOTEN  =      1966.92140267 eV

  energy without entropy =     1966.92378724  energy(sigma->0) =     1966.92259495


--------------------------------------------------------------------------------------------------------




--------------------------------------- Iteration      1(   2)  ---------------------------------------


     EDDAV:  cpu time     20.1604: real time     20.3396
       DOS:  cpu time      0.0013: real time      0.0013
    --------------------------------------------
      LOOP:  cpu time     20.1617: real time     20.3409

 eigenvalue-minimisations  :  8064
 total energy-change (2. order) :-0.2325822E+04  (-0.2242525E+04)
 number of electron     480.0000000 magnetization       1.0000000
 augmentation part      480.0000000 magnetization       1.0000000

 Free energy of the ion-electron system (eV)
  ---------------------------------------------------
  alpha Z        PSCENC =       529.58409355
  Ewald energy   TEWEN  =    -12736.13612467
  -Hartree energ DENC   =     -1248.38230457
  -exchange      EXHF   =         0.00000000
  -V(xc)+E(xc)   XCENC  =     -1036.08645449
  PAW double counting   =     10575.88222728    -8613.76247617
  entropy T*S    EENTRO =        -0.00162134
  eigenvalues    EBANDS =      -290.59827046
  atomic energy  EATOM  =     12460.60057749
  Solvation  Ediel_sol  =         0.00000000
  ---------------------------------------------------
  free energy    TOTEN  =      -358.90035337 eV

  energy without entropy =     -358.89873203  energy(sigma->0) =     -358.89954270


--------------------------------------------------------------------------------------------------------




--------------------------------------- Iteration      1(   3)  ---------------------------------------


     EDDAV:  cpu time     21.2441: real time     21.4321
       DOS:  cpu time      0.0014: real time      0.0014
    --------------------------------------------
      LOOP:  cpu time     21.2455: real time     21.4336

 eigenvalue-minimisations  :  8584
 total energy-change (2. order) :-0.2177342E+03  (-0.2111363E+03)
 number of electron     480.0000000 magnetization       1.0000000
 augmentation part      480.0000000 magnetization       1.0000000

 Free energy of the ion-electron system (eV)
  ---------------------------------------------------
  alpha Z        PSCENC =       529.58409355
  Ewald energy   TEWEN  =    -12736.13612467
  -Hartree energ DENC   =     -1248.38230457
  -exchange      EXHF   =         0.00000000
  -V(xc)+E(xc)   XCENC  =     -1036.08645449
  PAW double counting   =     10575.88222728    -8613.76247617
  entropy T*S    EENTRO =        -0.00299210
  eigenvalues    EBANDS =      -508.33107166
  atomic energy  EATOM  =     12460.60057749
  Solvation  Ediel_sol  =         0.00000000
  ---------------------------------------------------
  free energy    TOTEN  =      -576.63452533 eV

  energy without entropy =     -576.63153323  energy(sigma->0) =     -576.63302928


--------------------------------------------------------------------------------------------------------




--------------------------------------- Iteration      1(   4)  ---------------------------------------


     EDDAV:  cpu time     20.4082: real time     20.5885
       DOS:  cpu time      0.0014: real time      0.0014
    --------------------------------------------
      LOOP:  cpu time     20.4096: real time     20.5899

 eigenvalue-minimisations  :  8184
 total energy-change (2. order) :-0.7726208E+01  (-0.7602907E+01)
 number of electron     480.0000000 magnetization       1.0000000
 augmentation part      480.0000000 magnetization       1.0000000

 Free energy of the ion-electron system (eV)
  ---------------------------------------------------
  alpha Z        PSCENC =       529.58409355
  Ewald energy   TEWEN  =    -12736.13612467
  -Hartree energ DENC   =     -1248.38230457
  -exchange      EXHF   =         0.00000000
  -V(xc)+E(xc)   XCENC  =     -1036.08645449
  PAW double counting   =     10575.88222728    -8613.76247617
  entropy T*S    EENTRO =        -0.00331040
  eigenvalues    EBANDS =      -516.05696150
  atomic energy  EATOM  =     12460.60057749
  Solvation  Ediel_sol  =         0.00000000
  ---------------------------------------------------
  free energy    TOTEN  =      -584.36073347 eV

  energy without entropy =     -584.35742307  energy(sigma->0) =     -584.35907827


--------------------------------------------------------------------------------------------------------




--------------------------------------- Iteration      1(   5)  ---------------------------------------


     EDDAV:  cpu time     22.3130: real time     22.5077
       DOS:  cpu time      0.0014: real time      0.0014
    CHARGE:  cpu time      1.0813: real time      1.0974
    MIXING:  cpu time      0.0052: real time      0.0053
    --------------------------------------------
      LOOP:  cpu time     23.4010: real time     23.6118

 eigenvalue-minimisations  :  9144
 total energy-change (2. order) :-0.2826743E+00  (-0.2811065E+00)
 number of electron     479.9999997 magnetization       1.0000000
 augmentation part      -48.5327384 magnetization      -0.0657405

 Broyden mixing:
  rms(total) = 0.31545E+01    rms(broyden)= 0.31545E+01
  rms(prec ) = 0.33042E+01
  weight for this iteration     100.00

 Free energy of the ion-electron system (eV)
  ---------------------------------------------------
  alpha Z        PSCENC =       529.58409355
  Ewald energy   TEWEN  =    -12736.13612467
  -Hartree energ DENC   =     -1248.38230457
  -exchange      EXHF   =         0.00000000
  -V(xc)+E(xc)   XCENC  =     -1036.08645449
  PAW double counting   =     10575.88222728    -8613.76247617
  entropy T*S    EENTRO =        -0.00317853
  eigenvalues    EBANDS =      -516.33976763
  atomic energy  EATOM  =     12460.60057749
  Solvation  Ediel_sol  =         0.00000000
  ---------------------------------------------------
  free energy    TOTEN  =      -584.64340773 eV

  energy without entropy =     -584.64022920  energy(sigma->0) =     -584.64181847


--------------------------------------------------------------------------------------------------------




--------------------------------------- Iteration      1(   6)  ---------------------------------------


    POTLOK:  cpu time      0.1764: real time      0.1784
    SETDIJ:  cpu time      1.0131: real time      1.0186
     EDDAV:  cpu time     20.6533: real time     20.8297
       DOS:  cpu time      0.0013: real time      0.0013
    CHARGE:  cpu time      1.0582: real time      1.0667
    MIXING:  cpu time      0.0043: real time      0.0044
    --------------------------------------------
      LOOP:  cpu time     22.9067: real time     23.0991

 eigenvalue-minimisations  :  8304
 total energy-change (2. order) : 0.9061096E+01  (-0.1468029E+01)
 number of electron     479.9999997 magnetization       1.0000000
 augmentation part      -48.2061484 magnetization      -0.0554441

 Broyden mixing:
  rms(total) = 0.14359E+01    rms(broyden)= 0.14359E+01
  rms(prec ) = 0.15301E+01
  weight for this iteration     100.00

 eigenvalues of (default mixing * dielectric matrix)
  average eigenvalue GAMMA=   1.6962
  1.6962

 Free energy of the ion-electron system (eV)
  ---------------------------------------------------
  alpha Z        PSCENC =       529.58409355
  Ewald energy   TEWEN  =    -12736.13612467
  -Hartree energ DENC   =     -1382.82918930
  -exchange      EXHF   =         0.00000000
  -V(xc)+E(xc)   XCENC  =     -1017.11837784
  PAW double counting   =     22280.94879050   -20327.64123735
  entropy T*S    EENTRO =        -0.00255995
  eigenvalues    EBANDS =      -382.98828402
  atomic energy  EATOM  =     12460.60057749
  Solvation  Ediel_sol  =         0.00000000
  ---------------------------------------------------
  free energy    TOTEN  =      -575.58231159 eV

  energy without entropy =     -575.57975164  energy(sigma->0) =     -575.58103162


--------------------------------------------------------------------------------------------------------




--------------------------------------- Iteration      1(   7)  ---------------------------------------


    POTLOK:  cpu time      0.1748: real time      0.1769
    SETDIJ:  cpu time      1.0114: real time      1.0172
     EDDAV:  cpu time     20.7926: real time     20.9760
       DOS:  cpu time      0.0016: real time      0.0016
    CHARGE:  cpu time      1.0587: real time      1.0676
    MIXING:  cpu time      0.0050: real time      0.0051
    --------------------------------------------
      LOOP:  cpu time     23.0441: real time     23.2444

 eigenvalue-minimisations  :  8376
 total energy-change (2. order) :-0.1177678E+00  (-0.1471346E+01)
 number of electron     479.9999997 magnetization       1.0000000
 augmentation part      -48.0051975 magnetization      -0.0464348

 Broyden mixing:
  rms(total) = 0.65056E+00    rms(broyden)= 0.65056E+00
  rms(prec ) = 0.88877E+00
  weight for this iteration     100.00

 eigenvalues of (default mixing * dielectric matrix)
  average eigenvalue GAMMA=   1.1931
  1.8544  0.5318

 Free energy of the ion-electron system (eV)
  ---------------------------------------------------
  alpha Z        PSCENC =       529.58409355
  Ewald energy   TEWEN  =    -12736.13612467
  -Hartree energ DENC   =     -1438.53847914
  -exchange      EXHF   =         0.00000000
  -V(xc)+E(xc)   XCENC  =     -1004.57056495
  PAW double counting   =     33706.92922614   -31759.14499829
  entropy T*S    EENTRO =        -0.00129928
  eigenvalues    EBANDS =      -334.42251028
  atomic energy  EATOM  =     12460.60057749
  Solvation  Ediel_sol  =         0.00000000
  ---------------------------------------------------
  free energy    TOTEN  =      -575.70007942 eV

  energy without entropy =     -575.69878014  energy(sigma->0) =     -575.69942978


--------------------------------------------------------------------------------------------------------




--------------------------------------- Iteration      1(   8)  ---------------------------------------


    POTLOK:  cpu time      0.1753: real time      0.1770
    SETDIJ:  cpu time      1.0125: real time      1.0183
     EDDAV:  cpu time     20.7283: real time     20.9124
       DOS:  cpu time      0.0015: real time      0.0015
    CHARGE:  cpu time      1.0581: real time      1.0669
    MIXING:  cpu time      0.0052: real time      0.0052
    --------------------------------------------
      LOOP:  cpu time     22.9809: real time     23.1813

 eigenvalue-minimisations  :  8360
 total energy-change (2. order) : 0.1017466E+01  (-0.4307601E+00)
 number of electron     479.9999997 magnetization       1.0000000
 augmentation part      -47.7787300 magnetization      -0.0457195

 Broyden mixing:
  rms(total) = 0.16118E+00    rms(broyden)= 0.16118E+00
  rms(prec ) = 0.17708E+00
  weight for this iteration     100.00

 eigenvalues of (default mixing * dielectric matrix)
  average eigenvalue GAMMA=   1.2156
  1.8406  1.2166  0.5896

 Free energy of the ion-electron system (eV)
  ---------------------------------------------------
  alpha Z        PSCENC =       529.58409355
  Ewald energy   TEWEN  =    -12736.13612467
  -Hartree energ DENC   =     -1463.72070017
  -exchange      EXHF   =         0.00000000
  -V(xc)+E(xc)   XCENC  =     -1001.53868522
  PAW double counting   =     38306.00502253   -36359.57428506
  entropy T*S    EENTRO =        -0.00217028
  eigenvalues    EBANDS =      -309.90034146
  atomic energy  EATOM  =     12460.60057749
  Solvation  Ediel_sol  =         0.00000000
  ---------------------------------------------------
  free energy    TOTEN  =      -574.68261328 eV

  energy without entropy =     -574.68044300  energy(sigma->0) =     -574.68152814


--------------------------------------------------------------------------------------------------------




--------------------------------------- Iteration      1(   9)  ---------------------------------------


    POTLOK:  cpu time      0.1748: real time      0.1766
    SETDIJ:  cpu time      1.0119: real time      1.0182
     EDDAV:  cpu time     20.1743: real time     20.3876
       DOS:  cpu time      0.0014: real time      0.0014
    CHARGE:  cpu time      1.0571: real time      1.0671
    MIXING:  cpu time      0.0051: real time      0.0051
    --------------------------------------------
      LOOP:  cpu time     22.4245: real time     22.6559

 eigenvalue-minimisations  :  8088
 total energy-change (2. order) :-0.6265976E-01  (-0.1362296E+00)
 number of electron     479.9999997 magnetization       1.0000000
 augmentation part      -47.8190299 magnetization      -0.0497280

 Broyden mixing:
  rms(total) = 0.12737E+00    rms(broyden)= 0.12737E+00
  rms(prec ) = 0.13828E+00
  weight for this iteration     100.00

 eigenvalues of (default mixing * dielectric matrix)
  average eigenvalue GAMMA=   1.1449
  1.7075  1.7075  0.6537  0.5112

 Free energy of the ion-electron system (eV)
  ---------------------------------------------------
  alpha Z        PSCENC =       529.58409355
  Ewald energy   TEWEN  =    -12736.13612467
  -Hartree energ DENC   =     -1455.23819001
  -exchange      EXHF   =         0.00000000
  -V(xc)+E(xc)   XCENC  =     -1002.22447447
  PAW double counting   =     38979.18246031   -37032.47869016
  entropy T*S    EENTRO =        -0.00209341
  eigenvalues    EBANDS =      -318.03283165
  atomic energy  EATOM  =     12460.60057749
  Solvation  Ediel_sol  =         0.00000000
  ---------------------------------------------------
  free energy    TOTEN  =      -574.74527303 eV

  energy without entropy =     -574.74317962  energy(sigma->0) =     -574.74422633


--------------------------------------------------------------------------------------------------------




--------------------------------------- Iteration      1(  10)  ---------------------------------------


    POTLOK:  cpu time      0.1748: real time      0.1767
    SETDIJ:  cpu time      1.0132: real time      1.0187
     EDDAV:  cpu time     20.0638: real time     20.2335
       DOS:  cpu time      0.0015: real time      0.0015
    CHARGE:  cpu time      1.0589: real time      1.0676
    MIXING:  cpu time      0.0054: real time      0.0054
    --------------------------------------------
      LOOP:  cpu time     22.3175: real time     22.5033

 eigenvalue-minimisations  :  8016
 total energy-change (2. order) : 0.1423710E-01  (-0.1565348E-01)
 number of electron     479.9999997 magnetization       1.0000000
 augmentation part      -47.8649592 magnetization      -0.0485285

 Broyden mixing:
  rms(total) = 0.75410E-01    rms(broyden)= 0.75410E-01
  rms(prec ) = 0.81168E-01
  weight for this iteration     100.00

 eigenvalues of (default mixing * dielectric matrix)
  average eigenvalue GAMMA=   1.0962
  1.7269  1.7269  0.8349  0.5963  0.5963

 Free energy of the ion-electron system (eV)
  ---------------------------------------------------
  alpha Z        PSCENC =       529.58409355
  Ewald energy   TEWEN  =    -12736.13612467
  -Hartree energ DENC   =     -1449.16227745
  -exchange      EXHF   =         0.00000000
  -V(xc)+E(xc)   XCENC  =     -1002.77033196
  PAW double counting   =     39131.94411029   -37185.00432607
  entropy T*S    EENTRO =        -0.00208223
  eigenvalues    EBANDS =      -323.78467489
  atomic energy  EATOM  =     12460.60057749
  Solvation  Ediel_sol  =         0.00000000
  ---------------------------------------------------
  free energy    TOTEN  =      -574.73103593 eV

  energy without entropy =     -574.72895370  energy(sigma->0) =     -574.72999482


--------------------------------------------------------------------------------------------------------




--------------------------------------- Iteration      1(  11)  ---------------------------------------


    POTLOK:  cpu time      0.1751: real time      0.1767
    SETDIJ:  cpu time      1.0102: real time      1.0160
     EDDAV:  cpu time     20.7778: real time     20.9562
       DOS:  cpu time      0.0014: real time      0.0014
    CHARGE:  cpu time      1.0562: real time      1.0646
    MIXING:  cpu time      0.0055: real time      0.0055
    --------------------------------------------
      LOOP:  cpu time     23.0262: real time     23.2206

 eigenvalue-minimisations  :  8360
 total energy-change (2. order) :-0.3249491E-02  (-0.5791024E-02)
 number of electron     479.9999997 magnetization       1.0000000
 augmentation part      -47.8632226 magnetization      -0.0488397

 Broyden mixing:
  rms(total) = 0.49671E-01    rms(broyden)= 0.49671E-01
  rms(prec ) = 0.71593E-01
  weight for this iteration     100.00

 eigenvalues of (default mixing * dielectric matrix)
  average eigenvalue GAMMA=   1.0558
  1.6397  1.4250  1.4250  0.6925  0.6925  0.4601

 Free energy of the ion-electron system (eV)
  ---------------------------------------------------
  alpha Z        PSCENC =       529.58409355
  Ewald energy   TEWEN  =    -12736.13612467
  -Hartree energ DENC   =     -1448.65161434
  -exchange      EXHF   =         0.00000000
  -V(xc)+E(xc)   XCENC  =     -1002.83761341
  PAW double counting   =     39216.46608592   -37269.50145785
  entropy T*S    EENTRO =        -0.00215808
  eigenvalues    EBANDS =      -324.25607403
  atomic energy  EATOM  =     12460.60057749
  Solvation  Ediel_sol  =         0.00000000
  ---------------------------------------------------
  free energy    TOTEN  =      -574.73428542 eV

  energy without entropy =     -574.73212734  energy(sigma->0) =     -574.73320638


--------------------------------------------------------------------------------------------------------




--------------------------------------- Iteration      1(  12)  ---------------------------------------


    POTLOK:  cpu time      0.1750: real time      0.1774
    SETDIJ:  cpu time      1.0106: real time      1.0161
     EDDAV:  cpu time     21.2830: real time     21.4663
       DOS:  cpu time      0.0014: real time      0.0014
    CHARGE:  cpu time      1.0546: real time      1.0634
    MIXING:  cpu time      0.0062: real time      0.0062
    --------------------------------------------
      LOOP:  cpu time     23.5306: real time     23.7307

 eigenvalue-minimisations  :  8624
 total energy-change (2. order) : 0.3816646E-02  (-0.3505437E-02)
 number of electron     479.9999997 magnetization       1.0000000
 augmentation part      -47.8610587 magnetization      -0.0483863

 Broyden mixing:
  rms(total) = 0.27692E-01    rms(broyden)= 0.27692E-01
  rms(prec ) = 0.37077E-01
  weight for this iteration     100.00

 eigenvalues of (default mixing * dielectric matrix)
  average eigenvalue GAMMA=   1.0518
  1.6462  1.6462  1.6518  0.7741  0.6830  0.5766  0.3847

 Free energy of the ion-electron system (eV)
  ---------------------------------------------------
  alpha Z        PSCENC =       529.58409355
  Ewald energy   TEWEN  =    -12736.13612467
  -Hartree energ DENC   =     -1449.24347878
  -exchange      EXHF   =         0.00000000
  -V(xc)+E(xc)   XCENC  =     -1002.80834413
  PAW double counting   =     39209.48522042   -37262.53552538
  entropy T*S    EENTRO =        -0.00211958
  eigenvalues    EBANDS =      -323.67476770
  atomic energy  EATOM  =     12460.60057749
  Solvation  Ediel_sol  =         0.00000000
  ---------------------------------------------------
  free energy    TOTEN  =      -574.73046878 eV

  energy without entropy =     -574.72834920  energy(sigma->0) =     -574.72940899


--------------------------------------------------------------------------------------------------------




--------------------------------------- Iteration      1(  13)  ---------------------------------------


    POTLOK:  cpu time      0.1758: real time      0.1774
    SETDIJ:  cpu time      1.0111: real time      1.0165
     EDDAV:  cpu time     21.0655: real time     21.2453
       DOS:  cpu time      0.0013: real time      0.0013
    CHARGE:  cpu time      1.0520: real time      1.0605
    MIXING:  cpu time      0.0060: real time      0.0060
    --------------------------------------------
      LOOP:  cpu time     23.3118: real time     23.5070

 eigenvalue-minimisations  :  8512
 total energy-change (2. order) : 0.7145043E-03  (-0.9862263E-03)
 number of electron     479.9999997 magnetization       1.0000000
 augmentation part      -47.8599807 magnetization      -0.0483539

 Broyden mixing:
  rms(total) = 0.16371E-01    rms(broyden)= 0.16371E-01
  rms(prec ) = 0.19825E-01
  weight for this iteration     100.00

 eigenvalues of (default mixing * dielectric matrix)
  average eigenvalue GAMMA=   1.0525
  1.9251  1.9251  1.6213  0.7433  0.7433  0.6508  0.4934  0.3174

 Free energy of the ion-electron system (eV)
  ---------------------------------------------------
  alpha Z        PSCENC =       529.58409355
  Ewald energy   TEWEN  =    -12736.13612467
  -Hartree energ DENC   =     -1449.09290606
  -exchange      EXHF   =         0.00000000
  -V(xc)+E(xc)   XCENC  =     -1002.83941084
  PAW double counting   =     39171.52125137   -37224.55849342
  entropy T*S    EENTRO =        -0.00213033
  eigenvalues    EBANDS =      -323.80661136
  atomic energy  EATOM  =     12460.60057749
  Solvation  Ediel_sol  =         0.00000000
  ---------------------------------------------------
  free energy    TOTEN  =      -574.72975427 eV

  energy without entropy =     -574.72762394  energy(sigma->0) =     -574.72868911


--------------------------------------------------------------------------------------------------------




--------------------------------------- Iteration      1(  14)  ---------------------------------------


    POTLOK:  cpu time      0.1755: real time      0.1770
    SETDIJ:  cpu time      1.0100: real time      1.0158
     EDDAV:  cpu time     20.2182: real time     20.3974
       DOS:  cpu time      0.0013: real time      0.0013
    CHARGE:  cpu time      1.0554: real time      1.0641
    MIXING:  cpu time      0.0060: real time      0.0060
    --------------------------------------------
      LOOP:  cpu time     22.4664: real time     22.6618

 eigenvalue-minimisations  :  8096
 total energy-change (2. order) : 0.1643700E-03  (-0.2853958E-03)
 number of electron     479.9999997 magnetization       1.0000000
 augmentation part      -47.8615178 magnetization      -0.0480935

 Broyden mixing:
  rms(total) = 0.91087E-02    rms(broyden)= 0.91087E-02
  rms(prec ) = 0.10099E-01
  weight for this iteration     100.00

[...]
   0.466E+00 -.775E-02 0.117E+02   0.871E-02 -.126E+00 -.117E+02   -.194E-01 -.657E-01 -.242E-01   0.175E-04 -.147E-04 0.167E-03
   -.377E-01 0.551E+00 -.112E+02   0.821E-02 -.146E+00 0.117E+02   0.194E-01 0.110E-01 -.619E-01   0.314E-05 -.403E-04 0.674E-04
   -.164E+00 -.108E+01 -.369E+02   -.222E+00 0.109E+01 0.371E+02   0.180E+00 0.937E-01 -.329E-01   -.872E-05 -.529E-04 -.499E-04
   -.234E+00 -.103E+01 -.218E+01   0.222E+00 0.109E+01 0.284E+01   -.529E-01 -.881E-01 -.247E+01   0.878E-05 -.640E-04 -.365E-04
   -.638E+01 0.247E+02 0.475E+02   0.589E+01 -.228E+02 -.460E+02   0.178E+00 -.203E+01 -.161E+01   -.360E-04 0.383E-04 0.237E-03
   -.410E-01 -.835E+00 0.378E+02   -.218E+00 0.174E+01 -.371E+02   0.206E+00 -.358E+00 -.248E+00   0.223E-04 0.152E-04 0.292E-03
   -.438E-01 0.582E+00 0.112E+02   0.822E-02 -.146E+00 -.117E+02   0.160E-01 -.849E-02 0.387E-01   -.355E-05 0.119E-04 0.165E-03
   -.514E+00 0.201E+00 -.114E+02   0.876E-02 -.161E+00 0.117E+02   0.428E-01 0.599E-01 0.182E+00   -.211E-04 0.181E-04 0.653E-04
   -.536E-01 -.835E+00 -.378E+02   -.218E+00 0.174E+01 0.371E+02   0.218E+00 -.352E+00 0.256E+00   0.341E-05 0.312E-04 -.186E-03
   -.368E+01 0.183E+02 -.594E+02   0.289E+01 -.175E+02 0.568E+02   0.166E+00 -.212E+01 0.332E+01   -.128E-04 -.145E-03 -.216E-03
   0.635E+01 -.116E+02 -.468E+02   -.592E+01 0.108E+02 0.457E+02   -.155E+00 0.935E+00 0.103E+01   -.912E-05 -.867E-04 -.217E-03
   -.223E+00 0.375E+00 0.444E+01   0.100E-01 -.289E+00 -.393E+01   -.654E-01 -.428E-01 -.111E+01   -.852E-05 0.144E-04 -.551E-04
   -.109E+00 0.194E+00 0.143E+02   0.203E-01 -.197E+00 -.136E+02   0.602E-01 0.580E-02 -.705E+00   0.460E-04 -.675E-04 -.224E-03
   -.604E+01 0.111E+02 -.484E+02   0.553E+01 -.102E+02 0.473E+02   0.110E+00 -.929E+00 0.124E+01   0.396E-05 0.548E-04 -.131E-03
   0.251E+00 -.682E+00 0.414E+01   -.116E-01 0.334E+00 -.386E+01   0.642E-01 -.579E-01 -.114E+01   -.104E-04 0.954E-04 -.112E-03
   -.165E+01 0.292E+01 0.113E+02   0.249E+00 -.279E+01 -.106E+02   0.658E+00 -.273E-01 -.684E+00   -.161E-03 -.602E-04 -.219E-03
   -.212E-01 0.138E+01 -.370E+02   0.222E+00 -.170E+01 0.371E+02   -.118E+00 0.130E+00 0.585E-01   -.138E-04 0.265E-04 -.723E-04
   0.210E+00 -.205E+00 0.303E+01   -.105E-01 0.289E+00 -.294E+01   -.655E-02 -.301E-01 -.630E+00   0.150E-04 -.875E-04 -.552E-04
   -.241E+00 -.214E+00 0.881E+01   -.164E-01 0.198E+00 -.792E+01   -.229E+00 -.564E-03 -.104E+01   0.416E-04 0.606E-04 -.206E-03
   -.325E-02 -.210E+00 -.117E+02   -.870E-02 0.163E+00 0.117E+02   0.176E-01 -.673E-01 0.801E-01   0.416E-05 0.164E-04 0.602E-04
   -.264E+00 0.229E+00 0.314E+01   0.121E-01 -.334E+00 -.301E+01   0.139E-01 0.440E-01 -.689E+00   -.276E-04 -.657E-04 -.755E-04
   0.875E+00 -.292E+01 0.117E+02   -.253E+00 0.279E+01 -.109E+02   -.882E+00 0.319E-03 -.686E+00   -.573E-04 0.372E-04 -.225E-03
   -.167E+01 0.289E+01 -.113E+02   0.249E+00 -.279E+01 0.106E+02   0.668E+00 -.376E-02 0.660E+00   -.425E-04 0.476E-05 -.607E-04
   0.240E+00 -.196E+00 -.303E+01   -.105E-01 0.289E+00 0.294E+01   -.203E-01 -.508E-01 0.635E+00   -.267E-04 0.283E-04 -.199E-03
   0.135E-02 -.245E+00 0.117E+02   -.821E-02 0.142E+00 -.117E+02   -.627E-02 -.249E-02 0.100E-01   -.474E-05 0.245E-04 0.179E-03
   -.257E+00 -.213E+00 -.879E+01   -.164E-01 0.198E+00 0.792E+01   -.222E+00 -.247E-02 0.101E+01   -.169E-04 -.630E-04 -.140E-04
   -.298E+00 0.199E+00 -.316E+01   0.121E-01 -.334E+00 0.301E+01   0.277E-02 0.444E-01 0.713E+00   0.295E-04 0.833E-04 -.211E-03
   0.453E+01 0.135E+02 0.158E+02   -.411E+01 -.144E+02 -.158E+02   -.357E-01 0.482E+00 0.696E+00   0.150E-04 -.965E-06 -.140E-03
   0.891E+00 -.290E+01 -.117E+02   -.253E+00 0.279E+01 0.109E+02   -.888E+00 -.235E-01 0.670E+00   -.191E-04 -.151E-04 0.659E-06
   -.247E+00 0.670E+00 -.422E+01   0.100E-01 -.289E+00 0.393E+01   -.637E-01 0.201E-01 0.117E+01   -.361E-04 -.599E-04 -.192E-03
   -.243E+00 -.104E+01 0.388E+01   0.222E+00 0.109E+01 -.284E+01   -.104E-01 -.765E-01 0.139E+01   -.384E-05 0.299E-04 -.115E-03
   -.116E+00 0.186E+00 -.143E+02   0.204E-01 -.197E+00 0.136E+02   0.604E-01 0.108E-01 0.672E+00   0.557E-05 0.857E-04 -.188E-05
   0.267E+00 -.408E+00 -.436E+01   -.116E-01 0.334E+00 0.386E+01   0.337E-01 0.421E-01 0.110E+01   0.612E-04 -.447E-04 -.170E-03
   -.476E+01 -.137E+02 0.180E+02   0.434E+01 0.145E+02 -.182E+02   0.173E+00 -.340E+00 0.546E+00   -.345E-04 0.402E-04 -.196E-03
   -.265E+00 -.100E+01 -.388E+01   0.222E+00 0.109E+01 0.284E+01   -.104E-01 -.892E-01 -.140E+01   -.605E-05 -.659E-04 -.384E-04
   0.301E+00 -.410E+00 0.433E+01   -.117E-01 0.334E+00 -.386E+01   0.280E-01 0.568E-01 -.106E+01   0.228E-04 0.123E-03 -.647E-04
   -.885E+00 0.290E+01 0.113E+02   0.249E+00 -.279E+01 -.106E+02   0.883E+00 0.469E-02 -.721E+00   0.148E-03 -.331E-04 -.215E-03
   0.995E-02 -.237E+00 -.117E+02   -.820E-02 0.142E+00 0.117E+02   0.138E-01 -.203E-01 -.295E-01   0.188E-05 0.110E-04 0.698E-04
   -.317E+00 0.198E+00 0.314E+01   0.121E-01 -.334E+00 -.301E+01   0.394E-01 0.658E-01 -.685E+00   0.187E-04 -.480E-04 -.446E-04
   0.171E+01 -.286E+01 0.117E+02   -.253E+00 0.279E+01 -.109E+02   -.729E+00 -.370E-01 -.620E+00   0.652E-04 0.455E-04 -.242E-03
   0.454E+01 0.136E+02 -.158E+02   -.411E+01 -.144E+02 0.158E+02   -.514E-01 0.456E+00 -.724E+00   -.706E-05 -.598E-06 0.592E-04
   -.225E+00 0.671E+00 0.424E+01   0.100E-01 -.289E+00 -.393E+01   -.603E-01 0.347E-01 -.119E+01   -.615E-05 0.457E-04 -.985E-04
   0.654E+01 -.115E+02 0.464E+02   -.592E+01 0.108E+02 -.457E+02   -.128E+00 0.899E+00 -.105E+01   0.925E-04 -.259E-04 0.213E-03
   -.477E+01 -.137E+02 -.180E+02   0.434E+01 0.145E+02 0.182E+02   0.166E+00 -.368E+00 -.562E+00   -.189E-06 0.529E-05 0.238E-04
   0.292E+00 -.179E+00 0.305E+01   -.105E-01 0.289E+00 -.294E+01   -.393E-01 -.387E-01 -.661E+00   -.112E-04 -.838E-04 -.806E-04
   0.390E+00 -.202E+00 0.880E+01   -.164E-01 0.198E+00 -.792E+01   0.145E+00 -.212E-02 -.102E+01   -.411E-04 0.786E-04 -.205E-03
   0.398E+00 -.200E+00 -.882E+01   -.164E-01 0.198E+00 0.792E+01   0.139E+00 -.536E-02 0.103E+01   0.139E-04 -.678E-04 -.232E-04
   -.290E+00 0.234E+00 -.312E+01   0.121E-01 -.334E+00 0.301E+01   0.267E-01 0.287E-01 0.667E+00   -.389E-04 0.973E-04 -.217E-03
   0.635E+01 -.116E+02 0.468E+02   -.592E+01 0.108E+02 -.457E+02   -.142E+00 0.916E+00 -.103E+01   -.433E-04 -.155E-04 0.240E-03
   0.654E+01 -.115E+02 -.464E+02   -.592E+01 0.108E+02 0.457E+02   -.139E+00 0.926E+00 0.105E+01   0.410E-06 -.935E-04 -.210E-03
   0.277E+00 -.688E+00 -.412E+01   -.116E-01 0.334E+00 0.386E+01   0.344E-01 -.706E-01 0.112E+01   -.522E-04 -.540E-04 -.183E-03
   -.159E-01 0.139E+01 0.371E+02   0.222E+00 -.170E+01 -.371E+02   -.133E+00 0.121E+00 -.588E-01   -.292E-04 -.215E-04 0.274E-03
   -.876E+00 0.293E+01 -.113E+02   0.249E+00 -.279E+01 0.106E+02   0.882E+00 -.221E-01 0.722E+00   0.428E-04 0.129E-04 -.425E-04
   0.259E+00 -.182E+00 -.305E+01   -.105E-01 0.289E+00 0.294E+01   -.536E-01 -.562E-01 0.657E+00   0.386E-04 0.174E-04 -.176E-03
   0.389E-01 -.198E+00 0.118E+02   -.870E-02 0.163E+00 -.117E+02   -.224E-01 -.674E-01 -.110E+00   0.394E-05 -.214E-04 0.176E-03
   0.169E+01 -.289E+01 -.117E+02   -.253E+00 0.279E+01 0.109E+02   -.720E+00 -.200E-01 0.614E+00   0.215E-04 -.371E-04 0.282E-04
   -.207E+00 0.367E+00 -.445E+01   0.100E-01 -.289E+00 0.393E+01   -.852E-01 -.512E-01 0.113E+01   0.315E-04 -.662E-04 -.191E-03
   -.603E+01 0.111E+02 0.484E+02   0.553E+01 -.102E+02 -.473E+02   0.926E-01 -.903E+00 -.123E+01   0.719E-04 0.589E-04 0.333E-03
 -----------------------------------------------------------------------------------------------
   -.683E+00 0.150E+01 -.156E-01   0.100E-12 0.515E-13 -.199E-12   0.464E+00 -.162E+01 -.136E+00   -.148E-04 -.615E-04 0.667E-03
 
 
 POSITION                                       TOTAL-FORCE (eV/Angst)
 -----------------------------------------------------------------------------------
      7.51559     16.05965      0.00000         0.285145      0.176290     -0.206073
      5.59545     13.34415      1.92015         0.070877     -0.292605     -0.222759
      3.67530     10.62865      3.84030         0.026852     -0.119964     -0.045896
      1.75515      7.91315      5.76045         0.008156     -0.112459      0.080405
      7.51559      5.19765      7.68060         0.064711     -0.304498      0.231625
      2.69715     11.24483     11.76468         0.789575     -0.065726     -0.812514
      7.51559      5.19765      0.00000         1.186909      0.816701     -0.786087
      5.59545      2.48215      1.92015         0.043132     -0.563216      0.371614
      4.61729     15.31808     18.83693        -0.412745      0.020153      0.562998
      1.75515     13.34415      5.76045         0.022422     -0.101793      0.002970
      7.51559     10.62865      7.68060         0.040374     -0.569985     -0.367027
      5.59544      7.91315      9.60074         0.276032      0.186943      0.190186
      2.69715     15.31808     17.42248        -0.014211      0.010218      0.185823
      5.59545      7.91315      1.92015         0.179700     -0.104357     -0.120834
      0.77700     15.31808     18.83693         0.482512      0.022177      0.590085
      1.75515      2.48215      5.76045         0.021384     -0.107686      0.053988
      7.51559     16.05965      7.68060         0.179748     -0.124079      0.123039
      5.59544     13.34415      9.60074         0.166333      0.974800      0.824869
      3.67530     16.05965      0.00000         0.279891      0.195608     -0.190637
      1.75515     13.34415      1.92015         0.059057     -0.289758     -0.240825
      7.51559     10.62865      3.84030         0.025678     -0.123684     -0.047971
      6.53744      7.17158     11.76468        -0.408285      0.012523     -0.556521
      3.67530      5.19765      7.68060         0.056324     -0.295508      0.245770
      4.61729      7.17158     13.17913        -0.016110      0.011136     -0.198357
      3.67530      5.19765      0.00000         0.179446      0.979462     -0.825138
      0.77700     11.24483     18.83693        -0.485509      0.249511      0.178372
      7.51559     16.05965      3.84030        -0.003218     -0.118208     -0.074972
      2.69715      7.17158     11.76468         0.488352      0.027328     -0.580440
      2.69715      3.09833     11.76468        -0.476424      0.228239     -0.180080
      1.75515      7.91315      9.60074         0.289066      0.173944      0.220954
      0.77700      3.09833     18.83693         0.783679     -0.042897      0.820246
      1.75515      7.91315      1.92015         0.218548     -0.102814     -0.120910
      7.51559      5.19765      3.84030         0.041489     -0.108561      0.007892
      5.59545      2.48215      5.76045         0.024361     -0.128427      0.057982
      3.67530     16.05965      7.68060         0.208712     -0.099900      0.130276
      1.75515     13.34415      9.60074         1.197348      0.817531      0.795736
      4.61729      7.17158     18.83693        -0.082464     -0.015016      1.815090
      3.67530      1.12440      1.92015         0.409701      0.300714     -0.719658
      1.75515     14.70190      3.84030        -0.468883     -0.243041     -0.061158
      7.51559     11.98640      5.76045         0.462788     -0.204550      0.049238
      5.59545      9.27090      7.68060         0.410428      0.311515      0.716881
      3.67530      6.55540      9.60074        -0.303263     -0.188916      0.107042
      5.59545      9.27091      0.00000        -0.609524     -1.310103     -0.751746
      3.67530      6.55540      1.92015        -0.199036      0.450350     -0.597923
      1.75515      3.83990      3.84030        -0.485095      0.134292      0.420785
      7.51559      1.12440      5.76045        -0.013230      0.090246      0.021008
      5.59545     14.70190      7.68060        -0.191039      0.452030      0.595799
      3.67530     11.98640      9.60074        -0.873678      0.376356      1.013117
      5.59545     14.70191      0.00000        -0.301718     -0.183741     -0.096595
      3.67530     11.98640      1.92015        -0.031185      0.553390      0.375463
      1.75515      9.27090      3.84030        -0.013960      0.084971     -0.020792
      7.51559      6.55540      5.76045         0.471064     -0.244243      0.055766
      5.59545      3.83990      7.68060        -0.028201      0.561571     -0.376604
      3.67530      1.12440      9.60074        -0.585958     -1.189675      0.769328
      1.75515      3.83990      0.00000        -0.874330      0.371979     -1.007468
      7.51559      1.12440      1.92015        -0.558703     -0.017481     -0.254118
      5.59544     14.70190      3.84030         0.468067      0.107633     -0.537516
      3.67530     11.98640      5.76045        -0.478846      0.134283     -0.428053
      1.75515      9.27090      7.68060        -0.554674     -0.013642      0.251481
      7.51559      6.55540      9.60074        -0.306735     -0.190626      0.106272
      1.75515      9.27091      0.00000        -0.589180     -1.191967     -0.766586
      7.51559      6.55540      1.92015        -0.199774      0.097969     -0.126691
      5.59544      3.83990      3.84030         0.457513     -0.197961     -0.050708
      3.67530      1.12440      5.76045        -0.008230      0.417285      0.487422
      1.75515     14.70190      7.68060        -0.204281      0.106949      0.121558
      6.53744     15.31808     11.76468        -0.063462     -0.030890     -1.807371
      1.75515     14.70191      0.00000        -0.303477     -0.198294     -0.117905
      7.51559     11.98640      1.92015        -0.050623      0.545646      0.372319
      5.59544      9.27090      3.84030        -0.017771      0.428192     -0.496902
      3.67530      6.55540      5.76045        -0.460755      0.101475      0.532321
      1.75515      3.83990      7.68060        -0.051485      0.552214     -0.378464
      7.51559      1.12440      9.60074        -0.620953     -1.309987      0.757509
      5.59544      2.48215      9.60074         0.272753      0.059285     -0.133435
      0.77700      5.13495     14.59358        -0.276229      0.043697     -0.606509
      6.53744     15.31808     17.42248        -0.026308      0.003893      0.008605
      7.51559     11.98640      9.60074        -0.392484     -0.071143      0.148745
      4.61729      9.20820     14.59358         0.305015     -0.404443     -0.863873
      2.69715      3.09833     17.42248        -0.741440      0.104463      0.091424
      3.67530     10.62865      7.68060         0.084488     -0.186462      0.099882
      0.77700     13.28146     14.59358         0.194579      0.055668     -0.538970
      6.53744      7.17158     17.42248        -0.484904     -0.015234     -0.150491
      5.59545      7.91315      5.76045         0.007442     -0.113631      0.052739
      4.61729      1.06170     14.59358        -0.235938     -0.060471     -0.550651
      2.69715     11.24483     17.42248        -0.257951     -0.130073      0.070951
      4.61729     11.24483     13.17913        -0.752813      0.093087     -0.106462
      2.69715      5.13495     16.00803         0.211360      0.043886      0.549293
      3.67530      5.19765      3.84030        -0.011305     -0.104647     -0.004336
      0.77700     15.31808     13.17913        -0.493876     -0.016532      0.141936
      6.53744      9.20820     16.00803        -0.281295     -0.089637      0.555717
      4.61729      3.09833     18.83693         0.381572     -0.435072      0.694974
      4.61729      3.09833     13.17913        -0.247897     -0.131199     -0.080933
      2.69715     13.28146     16.00803        -0.298593      0.401551      0.885431
      0.77700      7.17158     18.83693        -0.029987     -0.025667      2.419619
      0.77700      7.17158     13.17913        -0.033827      0.000741     -0.012757
      6.53744      1.06170     16.00803         0.291439     -0.030827      0.602081
      4.61729     11.24483     18.83693        -0.243981      0.438896      0.356049
      2.69715     15.31808     11.76468        -0.052158     -0.001191     -2.438104
      0.77700      9.20821     14.59358         0.319056     -0.017832     -0.594641
      6.53744      3.09833     17.42248         0.248716      0.108236      0.062875
      5.59545     13.34415      5.76045         0.017362     -0.114134     -0.017289
      0.77700      1.06170     14.59358        -0.264090     -0.069664     -0.551455
      6.53744     11.24483     17.42248         0.731774     -0.107795      0.102428
      6.53744     11.24483     11.76468         0.372172     -0.403412     -0.705517
      4.61729      5.13496     14.59358        -0.273400      0.417758     -0.883787
      7.51559     10.62866      0.00000         0.496653      0.178052     -0.331181
      6.53744      3.09833     11.76468        -0.259883      0.467606     -0.373324
      4.61729     13.28145     14.59358         0.243907      0.072649     -0.546543
      2.69715      7.17158     17.42248         0.519690     -0.005431     -0.141499
      4.61729     15.31808     13.17913         0.522615     -0.006962      0.137328
      2.69715      9.20821     16.00803        -0.249141     -0.070198      0.552037
      3.67530     10.62866      0.00000         0.289474      0.038890      0.140035
      1.75515      2.48215      9.60074         0.484371      0.207766      0.333867
      2.69715      1.06170     16.00803         0.302051     -0.423270      0.869740
      1.75515      2.48215      1.92015         0.074906     -0.192548     -0.089132
      0.77700     11.24483     13.17913         0.257514      0.111232     -0.068791
      6.53744      5.13495     16.00803         0.197062      0.051989      0.547506
      3.67530     16.05965      3.84030         0.009644     -0.101942     -0.068938
      0.77700      3.09833     13.17913         0.721435     -0.118008     -0.103211
      6.53744     13.28146     16.00803        -0.279934      0.026895      0.611263
      5.59545      3.83990      0.00000        -0.397973     -0.054180     -0.142628
 -----------------------------------------------------------------------------------
    total drift:                               -0.219550     -0.120815     -0.150464


--------------------------------------------------------------------------------------------------------



  FREE ENERGIE OF THE ION-ELECTRON SYSTEM (eV)
  ---------------------------------------------------
  free  energy   TOTEN  =      -574.72962719 eV

  energy  without entropy=     -574.72745380  energy(sigma->0) =     -574.72854049
 


--------------------------------------------------------------------------------------------------------


    POTLOK:  cpu time      1.1916: real time      1.1985


--------------------------------------------------------------------------------------------------------


     LOOP+:  cpu time    589.8084: real time    595.8052
    4ORBIT:  cpu time      0.0000: real time      0.0000

 total amount of memory used by VASP MPI-rank0   166814. kBytes
=======================================================================

   base      :      30000. kBytes
   nonlr-proj:       6533. kBytes
   fftplans  :      18524. kBytes
   grid      :      14584. kBytes
   one-center:        129. kBytes
   wavefun   :      97044. kBytes
 
  
  
 General timing and accounting informations for this job:
 ========================================================
  
                  Total CPU time used (sec):      646.693
                            User time (sec):      613.998
                          System time (sec):       32.695
                         Elapsed time (sec):      655.345
  
                   Maximum memory used (kb):      422404.
                   Average memory used (kb):          N/A
  
                          Minor page faults:       159404
                          Major page faults:           37
                 Voluntary context switches:         2041
