 216 216   0   0
  0.2272619E+02  0.1600268E-08  0.1697340E-08  0.1807253E-08  0.5000000E-15
  1.000000000000000E-004
  CAR 
 Si and Ge interface calculation         
      6.94065945     -9.41323901  301      3.93766745      1.00000000
     -9.413  0.0000E+00  0.0000E+00  0.0000E+00  0.0000E+00
     -9.359  0.0000E+00  0.0000E+00  0.0000E+00  0.0000E+00
     -9.304  0.0000E+00  0.0000E+00  0.0000E+00  0.0000E+00
     -9.250  0.0000E+00  0.0000E+00  0.0000E+00  0.0000E+00
     -9.195  0.0000E+00  0.0000E+00  0.0000E+00  0.0000E+00
     -9.141  0.0000E+00  0.0000E+00  0.0000E+00  0.0000E+00
     -9.086  0.0000E+00  0.0000E+00  0.0000E+00  0.0000E+00
     -9.032  0.0000E+00  0.0000E+00  0.0000E+00  0.0000E+00
     -8.977  0.0000E+00  0.0000E+00  0.0000E+00  0.0000E+00
     -8.923  0.0000E+00  0.0000E+00  0.0000E+00  0.0000E+00
     -8.868  0.0000E+00  0.0000E+00  0.0000E+00  0.0000E+00
     -8.814  0.0000E+00  0.0000E+00  0.0000E+00  0.0000E+00
     -8.759  0.0000E+00  0.0000E+00  0.0000E+00  0.0000E+00
     -8.705  0.2132E-05  0.2497E-06  0.1162E-06  0.1361E-07
     -8.650  0.7408E+01  0.6711E+01  0.4038E+00  0.3658E+00
     -8.596  0.2137E+01  0.2599E+01  0.5203E+00  0.5075E+00
     -8.541  0.2816E+02  0.2669E+02  0.2055E+01  0.1962E+01
     -8.487  0.1611E+02  0.1543E+02  0.2934E+01  0.2803E+01
     -8.432  0.1762E+02  0.1860E+02  0.3894E+01  0.3817E+01
     -8.377  0.2541E+02  0.2606E+02  0.5279E+01  0.5238E+01
     -8.323  0.2547E+02  0.2383E+02  0.6668E+01  0.6537E+01
     -8.268  0.1302E+02  0.1401E+02  0.7378E+01  0.7301E+01
     -8.214  0.2448E+02  0.2407E+02  0.8712E+01  0.8613E+01
     -8.159  0.5028E+02  0.4720E+02  0.1145E+02  0.1119E+02
     -8.105  0.3659E+02  0.3964E+02  0.1345E+02  0.1335E+02
     -8.050  0.4554E+02  0.4617E+02  0.1593E+02  0.1586E+02
     -7.996  0.3484E+02  0.3445E+02  0.1783E+02  0.1774E+02
     -7.941  0.2483E+02  0.2318E+02  0.1918E+02  0.1901E+02
     -7.887  0.4392E+02  0.4453E+02  0.2158E+02  0.2143E+02
     -7.832  0.3682E+02  0.3694E+02  0.2358E+02  0.2345E+02
     -7.778  0.2193E+02  0.2158E+02  0.2478E+02  0.2462E+02
     -7.723  0.4287E+02  0.4177E+02  0.2712E+02  0.2690E+02
     -7.669  0.5590E+02  0.5494E+02  0.3016E+02  0.2989E+02
     -7.614  0.6989E+02  0.7331E+02  0.3397E+02  0.3389E+02
     -7.560  0.3308E+02  0.3248E+02  0.3578E+02  0.3566E+02
     -7.505  0.6604E+02  0.6501E+02  0.3938E+02  0.3921E+02
     -7.451  0.3495E+02  0.3452E+02  0.4128E+02  0.4109E+02
     -7.396  0.4164E+02  0.4316E+02  0.4355E+02  0.4344E+02
     -7.342  0.4409E+02  0.4431E+02  0.4596E+02  0.4586E+02
     -7.287  0.5001E+02  0.4837E+02  0.4868E+02  0.4849E+02
     -7.233  0.6654E+02  0.6665E+02  0.5231E+02  0.5213E+02
     -7.178  0.2596E+02  0.2689E+02  0.5372E+02  0.5359E+02
     -7.124  0.3604E+02  0.3561E+02  0.5569E+02  0.5553E+02
     -7.069  0.6305E+02  0.6216E+02  0.5913E+02  0.5892E+02
     -7.015  0.4783E+02  0.5068E+02  0.6173E+02  0.6168E+02
     -6.960  0.5171E+02  0.4997E+02  0.6455E+02  0.6441E+02
     -6.906  0.4431E+02  0.4032E+02  0.6697E+02  0.6661E+02
     -6.851  0.7185E+02  0.7570E+02  0.7088E+02  0.7073E+02
     -6.797  0.4702E+02  0.4746E+02  0.7345E+02  0.7332E+02
     -6.742  0.6509E+02  0.6545E+02  0.7700E+02  0.7689E+02
     -6.688  0.8042E+02  0.7819E+02  0.8138E+02  0.8115E+02
     -6.633  0.8599E+02  0.8734E+02  0.8607E+02  0.8591E+02
     -6.579  0.7278E+02  0.7191E+02  0.9004E+02  0.8983E+02
     -6.524  0.9388E+02  0.8930E+02  0.9515E+02  0.9470E+02
     -6.470  0.9516E+02  0.9790E+02  0.1003E+03  0.1000E+03
     -6.415  0.5644E+02  0.5893E+02  0.1034E+03  0.1033E+03
     -6.361  0.5604E+02  0.5593E+02  0.1065E+03  0.1063E+03
     -6.306  0.7394E+02  0.7400E+02  0.1105E+03  0.1103E+03
     -6.251  0.9111E+02  0.8963E+02  0.1155E+03  0.1152E+03
     -6.197  0.6959E+02  0.6856E+02  0.1193E+03  0.1190E+03
     -6.142  0.3857E+02  0.4037E+02  0.1214E+03  0.1212E+03
     -6.088  0.7175E+02  0.7303E+02  0.1253E+03  0.1251E+03
     -6.033  0.3143E+02  0.3183E+02  0.1270E+03  0.1269E+03
     -5.979  0.7608E+02  0.7318E+02  0.1311E+03  0.1309E+03
     -5.924  0.1013E+03  0.1054E+03  0.1367E+03  0.1366E+03
     -5.870  0.6876E+02  0.6120E+02  0.1404E+03  0.1399E+03
     -5.815  0.1060E+03  0.1093E+03  0.1462E+03  0.1459E+03
     -5.761  0.5418E+02  0.5523E+02  0.1491E+03  0.1489E+03
     -5.706  0.6506E+02  0.6700E+02  0.1527E+03  0.1526E+03
     -5.652  0.3377E+02  0.3243E+02  0.1545E+03  0.1543E+03
     -5.597  0.4765E+02  0.4537E+02  0.1571E+03  0.1568E+03
     -5.543  0.5936E+02  0.6142E+02  0.1604E+03  0.1602E+03
     -5.488  0.4518E+02  0.4312E+02  0.1628E+03  0.1625E+03
     -5.434  0.5619E+02  0.5953E+02  0.1659E+03  0.1657E+03
     -5.379  0.3833E+02  0.3668E+02  0.1680E+03  0.1677E+03
     -5.325  0.3273E+02  0.3455E+02  0.1698E+03  0.1696E+03
     -5.270  0.5206E+02  0.4770E+02  0.1726E+03  0.1722E+03
     -5.216  0.3546E+02  0.4176E+02  0.1745E+03  0.1745E+03
     -5.161  0.5567E+02  0.4990E+02  0.1776E+03  0.1772E+03
     -5.107  0.7903E+02  0.8060E+02  0.1819E+03  0.1816E+03
     -5.052  0.4091E+02  0.4040E+02  0.1841E+03  0.1838E+03
     -4.998  0.5444E+02  0.5523E+02  0.1871E+03  0.1868E+03
     -4.943  0.3643E+02  0.3518E+02  0.1891E+03  0.1888E+03
     -4.889  0.2872E+02  0.3291E+02  0.1906E+03  0.1905E+03
     -4.834  0.5761E+02  0.4984E+02  0.1938E+03  0.1933E+03
     -4.780  0.6987E+02  0.7423E+02  0.1976E+03  0.1973E+03
     -4.725  0.5493E+02  0.5677E+02  0.2006E+03  0.2004E+03
     -4.671  0.4370E+02  0.4349E+02  0.2030E+03  0.2028E+03
     -4.616  0.6399E+02  0.5926E+02  0.2064E+03  0.2060E+03
     -4.562  0.6072E+02  0.6770E+02  0.2098E+03  0.2097E+03
     -4.507  0.5242E+02  0.4980E+02  0.2126E+03  0.2124E+03
     -4.453  0.1694E+02  0.1947E+02  0.2135E+03  0.2135E+03
     -4.398  0.4180E+02  0.3810E+02  0.2158E+03  0.2156E+03
     -4.344  0.3706E+02  0.3928E+02  0.2178E+03  0.2177E+03
     -4.289  0.4254E+02  0.3978E+02  0.2201E+03  0.2199E+03
     -4.235  0.6839E+02  0.6796E+02  0.2239E+03  0.2236E+03
     -4.180  0.5678E+02  0.5674E+02  0.2270E+03  0.2267E+03
     -4.125  0.3193E+02  0.3603E+02  0.2287E+03  0.2286E+03
     -4.071  0.6324E+02  0.6158E+02  0.2322E+03  0.2320E+03
     -4.016  0.4137E+02  0.4241E+02  0.2344E+03  0.2343E+03
     -3.962  0.5064E+02  0.5077E+02  0.2372E+03  0.2371E+03
     -3.907  0.5087E+02  0.4759E+02  0.2399E+03  0.2397E+03
     -3.853  0.5014E+02  0.5364E+02  0.2427E+03  0.2426E+03
     -3.798  0.5303E+02  0.4972E+02  0.2456E+03  0.2453E+03
     -3.744  0.6104E+02  0.6171E+02  0.2489E+03  0.2487E+03
     -3.689  0.8225E+02  0.8125E+02  0.2534E+03  0.2531E+03
     -3.635  0.8649E+02  0.8898E+02  0.2581E+03  0.2579E+03
     -3.580  0.9163E+02  0.9206E+02  0.2631E+03  0.2630E+03
     -3.526  0.6682E+02  0.6881E+02  0.2667E+03  0.2667E+03
     -3.471  0.6634E+02  0.6380E+02  0.2704E+03  0.2702E+03
     -3.417  0.7777E+02  0.7436E+02  0.2746E+03  0.2742E+03
     -3.362  0.8641E+02  0.8726E+02  0.2793E+03  0.2790E+03
     -3.308  0.5617E+02  0.5771E+02  0.2824E+03  0.2821E+03
     -3.253  0.7279E+02  0.7562E+02  0.2863E+03  0.2863E+03
     -3.199  0.5387E+02  0.5272E+02  0.2893E+03  0.2891E+03
     -3.144  0.7103E+02  0.6933E+02  0.2931E+03  0.2929E+03
     -3.090  0.5692E+02  0.5672E+02  0.2962E+03  0.2960E+03
     -3.035  0.5496E+02  0.5559E+02  0.2992E+03  0.2990E+03
     -2.981  0.7298E+02  0.7287E+02  0.3032E+03  0.3030E+03
     -2.926  0.6500E+02  0.6611E+02  0.3068E+03  0.3066E+03
     -2.872  0.5097E+02  0.4586E+02  0.3095E+03  0.3091E+03
     -2.817  0.6934E+02  0.7485E+02  0.3133E+03  0.3132E+03
     -2.763  0.5019E+02  0.4629E+02  0.3161E+03  0.3157E+03
     -2.708  0.8084E+02  0.8138E+02  0.3205E+03  0.3202E+03
     -2.654  0.5492E+02  0.5620E+02  0.3235E+03  0.3232E+03
     -2.599  0.6598E+02  0.6576E+02  0.3271E+03  0.3268E+03
     -2.545  0.5557E+02  0.5622E+02  0.3301E+03  0.3299E+03
     -2.490  0.5323E+02  0.5206E+02  0.3330E+03  0.3327E+03
     -2.436  0.5151E+02  0.4707E+02  0.3358E+03  0.3353E+03
     -2.381  0.4958E+02  0.5645E+02  0.3385E+03  0.3383E+03
     -2.327  0.6098E+02  0.5772E+02  0.3418E+03  0.3415E+03
     -2.272  0.5249E+02  0.5327E+02  0.3447E+03  0.3444E+03
     -2.218  0.3297E+02  0.3593E+02  0.3465E+03  0.3464E+03
     -2.163  0.2851E+02  0.2802E+02  0.3480E+03  0.3479E+03
     -2.108  0.6373E+02  0.5387E+02  0.3515E+03  0.3508E+03
     -2.054  0.4607E+02  0.5551E+02  0.3540E+03  0.3538E+03
     -1.999  0.3837E+02  0.3704E+02  0.3561E+03  0.3559E+03
     -1.945  0.5726E+02  0.5476E+02  0.3592E+03  0.3588E+03
     -1.890  0.5721E+02  0.5658E+02  0.3623E+03  0.3619E+03
     -1.836  0.4411E+02  0.4866E+02  0.3648E+03  0.3646E+03
     -1.781  0.2889E+02  0.2617E+02  0.3663E+03  0.3660E+03
     -1.727  0.6008E+02  0.5407E+02  0.3696E+03  0.3690E+03
     -1.672  0.6805E+02  0.7291E+02  0.3733E+03  0.3729E+03
     -1.618  0.3302E+02  0.3845E+02  0.3751E+03  0.3750E+03
     -1.563  0.4166E+02  0.4096E+02  0.3774E+03  0.3773E+03
     -1.509  0.4664E+02  0.4548E+02  0.3799E+03  0.3797E+03
     -1.454  0.2734E+02  0.2942E+02  0.3814E+03  0.3813E+03
     -1.400  0.3180E+02  0.2814E+02  0.3832E+03  0.3829E+03
     -1.345  0.5185E+02  0.4934E+02  0.3860E+03  0.3856E+03
     -1.291  0.5204E+02  0.5711E+02  0.3888E+03  0.3887E+03
     -1.236  0.2359E+02  0.2513E+02  0.3901E+03  0.3901E+03
     -1.182  0.3426E+02  0.3285E+02  0.3920E+03  0.3918E+03
     -1.127  0.4671E+02  0.4565E+02  0.3945E+03  0.3943E+03
     -1.073  0.3660E+02  0.3504E+02  0.3965E+03  0.3962E+03
     -1.018  0.4009E+02  0.3788E+02  0.3987E+03  0.3983E+03
     -0.964  0.3979E+02  0.4303E+02  0.4009E+03  0.4007E+03
     -0.909  0.3476E+02  0.3428E+02  0.4028E+03  0.4025E+03
     -0.855  0.2520E+02  0.2765E+02  0.4041E+03  0.4040E+03
     -0.800  0.1429E+02  0.1461E+02  0.4049E+03  0.4048E+03
     -0.746  0.1646E+02  0.1716E+02  0.4058E+03  0.4058E+03
     -0.691  0.2961E+02  0.2798E+02  0.4074E+03  0.4073E+03
     -0.637  0.1045E+02  0.1197E+02  0.4080E+03  0.4079E+03
     -0.582  0.4873E+02  0.4444E+02  0.4106E+03  0.4104E+03
     -0.528  0.4388E+02  0.4729E+02  0.4130E+03  0.4129E+03
     -0.473  0.3142E+02  0.2969E+02  0.4148E+03  0.4146E+03
     -0.419  0.3623E+02  0.3716E+02  0.4167E+03  0.4166E+03
     -0.364  0.1390E+02  0.1455E+02  0.4175E+03  0.4174E+03
     -0.310  0.4526E+02  0.4095E+02  0.4200E+03  0.4196E+03
     -0.255  0.8112E+02  0.7981E+02  0.4244E+03  0.4240E+03
     -0.201  0.1241E+03  0.1236E+03  0.4311E+03  0.4307E+03
     -0.146  0.9505E+02  0.9335E+02  0.4363E+03  0.4358E+03
     -0.092  0.7824E+02  0.8301E+02  0.4406E+03  0.4403E+03
     -0.037  0.1162E+03  0.1134E+03  0.4469E+03  0.4465E+03
      0.018  0.1191E+03  0.1192E+03  0.4534E+03  0.4530E+03
      0.072  0.1053E+03  0.1038E+03  0.4592E+03  0.4586E+03
      0.127  0.1231E+03  0.1273E+03  0.4659E+03  0.4656E+03
      0.181  0.1104E+03  0.1071E+03  0.4719E+03  0.4714E+03
      0.236  0.1264E+03  0.1260E+03  0.4788E+03  0.4783E+03
      0.290  0.1305E+03  0.1332E+03  0.4859E+03  0.4856E+03
      0.345  0.1385E+03  0.1364E+03  0.4934E+03  0.4930E+03
      0.399  0.1136E+03  0.1130E+03  0.4996E+03  0.4991E+03
      0.454  0.1293E+03  0.1327E+03  0.5067E+03  0.5064E+03
      0.508  0.1135E+03  0.1106E+03  0.5129E+03  0.5124E+03
      0.563  0.1200E+03  0.1199E+03  0.5194E+03  0.5189E+03
      0.617  0.1248E+03  0.1237E+03  0.5262E+03  0.5257E+03
      0.672  0.1208E+03  0.1217E+03  0.5328E+03  0.5323E+03
      0.726  0.1173E+03  0.1163E+03  0.5392E+03  0.5387E+03
      0.781  0.1078E+03  0.1081E+03  0.5451E+03  0.5446E+03
      0.835  0.1202E+03  0.1197E+03  0.5516E+03  0.5511E+03
      0.890  0.1210E+03  0.1208E+03  0.5582E+03  0.5577E+03
      0.944  0.1412E+03  0.1394E+03  0.5659E+03  0.5653E+03
      0.999  0.1079E+03  0.1105E+03  0.5718E+03  0.5713E+03
      1.053  0.1511E+03  0.1485E+03  0.5800E+03  0.5794E+03
      1.108  0.1520E+03  0.1527E+03  0.5883E+03  0.5877E+03
      1.162  0.1492E+03  0.1481E+03  0.5965E+03  0.5958E+03
      1.217  0.1488E+03  0.1502E+03  0.6046E+03  0.6040E+03
      1.271  0.1475E+03  0.1481E+03  0.6126E+03  0.6120E+03
      1.326  0.1359E+03  0.1382E+03  0.6200E+03  0.6196E+03
      1.380  0.1219E+03  0.1208E+03  0.6267E+03  0.6262E+03
      1.435  0.1352E+03  0.1359E+03  0.6340E+03  0.6336E+03
      1.489  0.1179E+03  0.1180E+03  0.6405E+03  0.6400E+03
      1.544  0.1149E+03  0.1171E+03  0.6467E+03  0.6464E+03
      1.598  0.1347E+03  0.1311E+03  0.6541E+03  0.6535E+03
      1.653  0.1224E+03  0.1203E+03  0.6607E+03  0.6601E+03
      1.707  0.1347E+03  0.1362E+03  0.6681E+03  0.6675E+03
      1.762  0.1369E+03  0.1393E+03  0.6755E+03  0.6751E+03
      1.816  0.1153E+03  0.1146E+03  0.6818E+03  0.6814E+03
      1.871  0.1222E+03  0.1244E+03  0.6885E+03  0.6881E+03
      1.925  0.1359E+03  0.1343E+03  0.6959E+03  0.6955E+03
      1.980  0.1123E+03  0.1110E+03  0.7020E+03  0.7015E+03
      2.034  0.1209E+03  0.1265E+03  0.7086E+03  0.7084E+03
      2.089  0.1147E+03  0.1102E+03  0.7149E+03  0.7144E+03
      2.144  0.1151E+03  0.1147E+03  0.7211E+03  0.7207E+03
      2.198  0.1233E+03  0.1223E+03  0.7279E+03  0.7273E+03
      2.253  0.1144E+03  0.1158E+03  0.7341E+03  0.7336E+03
      2.307  0.8881E+02  0.8974E+02  0.7389E+03  0.7385E+03
      2.362  0.8029E+02  0.8232E+02  0.7433E+03  0.7430E+03
      2.416  0.1060E+03  0.1054E+03  0.7491E+03  0.7488E+03
      2.471  0.1084E+03  0.1011E+03  0.7550E+03  0.7543E+03
      2.525  0.8314E+02  0.9157E+02  0.7595E+03  0.7593E+03
      2.580  0.1010E+03  0.9916E+02  0.7650E+03  0.7647E+03
      2.634  0.9130E+02  0.8995E+02  0.7700E+03  0.7696E+03
      2.689  0.8200E+02  0.7917E+02  0.7745E+03  0.7739E+03
      2.743  0.7499E+02  0.7838E+02  0.7786E+03  0.7782E+03
      2.798  0.1084E+03  0.1074E+03  0.7845E+03  0.7840E+03
      2.852  0.6909E+02  0.6787E+02  0.7883E+03  0.7877E+03
      2.907  0.7696E+02  0.7810E+02  0.7925E+03  0.7920E+03
      2.961  0.7340E+02  0.7698E+02  0.7965E+03  0.7962E+03
      3.016  0.6823E+02  0.6988E+02  0.8002E+03  0.8000E+03
      3.070  0.6751E+02  0.6195E+02  0.8039E+03  0.8034E+03
      3.125  0.6542E+02  0.6320E+02  0.8074E+03  0.8068E+03
      3.179  0.8079E+02  0.8865E+02  0.8118E+03  0.8116E+03
      3.234  0.5949E+02  0.5159E+02  0.8151E+03  0.8144E+03
      3.288  0.7238E+02  0.7317E+02  0.8190E+03  0.8184E+03
      3.343  0.5827E+02  0.5715E+02  0.8222E+03  0.8216E+03
      3.397  0.7090E+02  0.7293E+02  0.8261E+03  0.8255E+03
      3.452  0.7522E+02  0.7356E+02  0.8302E+03  0.8295E+03
      3.506  0.7191E+02  0.7834E+02  0.8341E+03  0.8338E+03
      3.561  0.6352E+02  0.6262E+02  0.8375E+03  0.8372E+03
      3.615  0.5949E+02  0.5440E+02  0.8408E+03  0.8402E+03
      3.670  0.5849E+02  0.5866E+02  0.8440E+03  0.8434E+03
      3.724  0.7575E+02  0.7432E+02  0.8481E+03  0.8474E+03
      3.779  0.8280E+02  0.8338E+02  0.8526E+03  0.8520E+03
      3.833  0.6851E+02  0.6622E+02  0.8563E+03  0.8556E+03
      3.888  0.7651E+02  0.7408E+02  0.8605E+03  0.8596E+03
      3.942  0.6436E+02  0.6725E+02  0.8640E+03  0.8633E+03
      3.997  0.7411E+02  0.7701E+02  0.8681E+03  0.8675E+03
      4.051  0.5660E+02  0.5953E+02  0.8712E+03  0.8707E+03
      4.106  0.5987E+02  0.5910E+02  0.8744E+03  0.8740E+03
      4.160  0.7619E+02  0.6961E+02  0.8786E+03  0.8778E+03
      4.215  0.7750E+02  0.8261E+02  0.8828E+03  0.8823E+03
      4.270  0.8001E+02  0.7952E+02  0.8872E+03  0.8866E+03
      4.324  0.5452E+02  0.5510E+02  0.8901E+03  0.8896E+03
      4.379  0.7528E+02  0.7711E+02  0.8942E+03  0.8938E+03
      4.433  0.7482E+02  0.6488E+02  0.8983E+03  0.8973E+03
      4.488  0.6103E+02  0.6841E+02  0.9016E+03  0.9011E+03
      4.542  0.7039E+02  0.6728E+02  0.9055E+03  0.9047E+03
      4.597  0.6174E+02  0.6489E+02  0.9088E+03  0.9083E+03
      4.651  0.7522E+02  0.7226E+02  0.9129E+03  0.9122E+03
      4.706  0.5824E+02  0.6284E+02  0.9161E+03  0.9156E+03
      4.760  0.5362E+02  0.5843E+02  0.9190E+03  0.9188E+03
      4.815  0.5833E+02  0.5590E+02  0.9222E+03  0.9219E+03
      4.869  0.4532E+02  0.4046E+02  0.9247E+03  0.9241E+03
      4.924  0.7079E+02  0.7585E+02  0.9285E+03  0.9282E+03
      4.978  0.7584E+02  0.7455E+02  0.9327E+03  0.9323E+03
      5.033  0.4421E+02  0.4784E+02  0.9351E+03  0.9349E+03
      5.087  0.5232E+02  0.5259E+02  0.9379E+03  0.9377E+03
      5.142  0.5863E+02  0.5571E+02  0.9411E+03  0.9408E+03
      5.196  0.8392E+02  0.8487E+02  0.9457E+03  0.9454E+03
      5.251  0.7624E+02  0.7560E+02  0.9499E+03  0.9495E+03
      5.305  0.7875E+02  0.7968E+02  0.9542E+03  0.9539E+03
      5.360  0.7478E+02  0.7166E+02  0.9582E+03  0.9578E+03
      5.414  0.8535E+02  0.8524E+02  0.9629E+03  0.9624E+03
      5.469  0.8925E+02  0.9105E+02  0.9678E+03  0.9674E+03
      5.523  0.9136E+02  0.9088E+02  0.9727E+03  0.9723E+03
      5.578  0.8413E+02  0.8431E+02  0.9773E+03  0.9769E+03
      5.632  0.9398E+02  0.9321E+02  0.9824E+03  0.9820E+03
      5.687  0.1107E+03  0.1082E+03  0.9885E+03  0.9879E+03
      5.741  0.1068E+03  0.1093E+03  0.9943E+03  0.9939E+03
      5.796  0.1185E+03  0.1199E+03  0.1001E+04  0.1000E+04
      5.850  0.1351E+03  0.1307E+03  0.1008E+04  0.1008E+04
      5.905  0.1080E+03  0.1108E+03  0.1014E+04  0.1014E+04
      5.959  0.1126E+03  0.1113E+03  0.1020E+04  0.1020E+04
      6.014  0.1195E+03  0.1163E+03  0.1027E+04  0.1026E+04
      6.068  0.1128E+03  0.1229E+03  0.1033E+04  0.1033E+04
      6.123  0.9146E+02  0.8939E+02  0.1038E+04  0.1038E+04
      6.177  0.3172E+02  0.3603E+02  0.1040E+04  0.1040E+04
      6.232  0.8549E+01  0.8692E+01  0.1040E+04  0.1040E+04
      6.287  0.0000E+00  0.0000E+00  0.1040E+04  0.1040E+04
      6.341  0.0000E+00  0.0000E+00  0.1040E+04  0.1040E+04
      6.396  0.0000E+00  0.0000E+00  0.1040E+04  0.1040E+04
      6.450  0.0000E+00  0.0000E+00  0.1040E+04  0.1040E+04
      6.505  0.0000E+00  0.0000E+00  0.1040E+04  0.1040E+04
      6.559  0.0000E+00  0.0000E+00  0.1040E+04  0.1040E+04
      6.614  0.0000E+00  0.0000E+00  0.1040E+04  0.1040E+04
      6.668  0.0000E+00  0.0000E+00  0.1040E+04  0.1040E+04
      6.723  0.0000E+00  0.0000E+00  0.1040E+04  0.1040E+04
      6.777  0.0000E+00  0.0000E+00  0.1040E+04  0.1040E+04
      6.832  0.0000E+00  0.0000E+00  0.1040E+04  0.1040E+04
      6.886  0.0000E+00  0.0000E+00  0.1040E+04  0.1040E+04
      6.941  0.0000E+00  0.0000E+00  0.1040E+04  0.1040E+04
