<?xml version="1.0" encoding="ISO-8859-1"?>
<modeling>
 <generator>
  <i name="program" type="string">vasp </i>
  <i name="version" type="string">6.4.3  </i>
  <i name="subversion" type="string">19Mar24 (build Oct 22 2024 11:23:12) complex                          parallel </i>
  <i name="platform" type="string">LinuxIFC </i>
  <i name="date" type="string">2025 06 08 </i>
  <i name="time" type="string">18:55:25 </i>
 </generator>
 <incar>
  <i type="string" name="SYSTEM">Si and Ge interface calculation</i>
  <i type="int" name="ISTART">     0</i>
  <i type="logical" name="ADDGRID"> T  </i>
  <i type="int" name="ISPIN">     2</i>
  <i name="AMIX">      0.60000000</i>
  <i type="int" name="ICHARG">     2</i>
  <i type="int" name="NELM">   100</i>
  <i name="EDIFF">      0.00000010</i>
  <i name="ENCUT">    700.00000000</i>
  <i name="ENAUG">    900.00000000</i>
  <i type="int" name="NBANDS">   375</i>
  <i name="NUPDOWN">      1.00000000</i>
  <i name="NELECT">    624.00000000</i>
  <i type="string" name="LREAL">AUTO</i>
  <i type="int" name="ISMEAR">     0</i>
  <i name="SIGMA">      0.01000000</i>
  <i type="int" name="LMAXMIX">     6</i>
  <i type="logical" name="LWAVE"> F  </i>
  <i type="logical" name="LVTOT"> F  </i>
  <i type="logical" name="LVHAR"> T  </i>
  <i type="logical" name="LASPH"> T  </i>
  <i type="logical" name="LMIXTAU"> T  </i>
 </incar>
 <primitive_cell>
  <structure name="primitive_cell" >
   <crystal>
    <varray name="basis" >
     <v>      16.29300118       0.00000000       0.00000000 </v>
     <v>       0.00000000      16.29300118       0.00000000 </v>
     <v>       0.00000000       0.00000000      10.12264442 </v>
    </varray>
    <i name="volume">   2687.17629315 </i>
    <varray name="rec_basis" >
     <v>       0.06137605       0.00000000       0.00000000 </v>
     <v>       0.00000000       0.06137605       0.00000000 </v>
     <v>       0.00000000       0.00000000       0.09878842 </v>
    </varray>
   </crystal>
   <varray name="positions" >
    <v>       0.00000000       0.99406773       0.00000000 </v>
    <v>       0.00000000       0.82740104       0.26825997 </v>
    <v>       0.00000000       0.66073430       0.53652000 </v>
    <v>       0.33333334       0.99406773       0.00000000 </v>
    <v>       0.33333334       0.82740104       0.26825997 </v>
    <v>       0.33333334       0.66073430       0.53652000 </v>
    <v>       0.66666669       0.99406773       0.00000000 </v>
    <v>       0.66666669       0.82740104       0.26825997 </v>
    <v>       0.66666669       0.66073430       0.53652000 </v>
    <v>       0.00000000       0.32740104       0.00000000 </v>
    <v>       0.00000000       0.16073437       0.26825997 </v>
    <v>       0.00000000       0.99406767       0.53652000 </v>
    <v>       0.33333334       0.32740104       0.00000000 </v>
    <v>       0.33333334       0.16073437       0.26825997 </v>
    <v>       0.33333334       0.99406767       0.53652000 </v>
    <v>       0.66666669       0.32740104       0.00000000 </v>
    <v>       0.66666669       0.16073437       0.26825997 </v>
    <v>       0.66666669       0.99406767       0.53652000 </v>
    <v>       0.00000000       0.66073442       0.00000000 </v>
    <v>       0.00000000       0.49406770       0.26825997 </v>
    <v>       0.00000000       0.32740104       0.53652000 </v>
    <v>       0.33333334       0.66073442       0.00000000 </v>
    <v>       0.33333334       0.49406770       0.26825997 </v>
    <v>       0.33333334       0.32740104       0.53652000 </v>
    <v>       0.66666669       0.66073442       0.00000000 </v>
    <v>       0.66666669       0.49406770       0.26825997 </v>
    <v>       0.66666669       0.32740104       0.53652000 </v>
    <v>       0.08333334       0.07740105       0.13413000 </v>
    <v>       0.08333334       0.91073436       0.40238991 </v>
    <v>       0.08333334       0.74406767       0.67064995 </v>
    <v>       0.41666669       0.07740105       0.13413000 </v>
    <v>       0.41666669       0.91073436       0.40238991 </v>
    <v>       0.41666669       0.74406767       0.67064995 </v>
    <v>       0.75000000       0.07740105       0.13413000 </v>
    <v>       0.75000000       0.91073436       0.40238991 </v>
    <v>       0.75000000       0.74406767       0.67064995 </v>
    <v>       0.08333334       0.41073436       0.13413000 </v>
    <v>       0.08333334       0.24406767       0.40238991 </v>
    <v>       0.08333334       0.07740098       0.67064995 </v>
    <v>       0.41666669       0.41073436       0.13413000 </v>
    <v>       0.41666669       0.24406767       0.40238991 </v>
    <v>       0.41666669       0.07740098       0.67064995 </v>
    <v>       0.75000000       0.41073436       0.13413000 </v>
    <v>       0.75000000       0.24406767       0.40238991 </v>
    <v>       0.75000000       0.07740098       0.67064995 </v>
    <v>       0.08333334       0.74406773       0.13413000 </v>
    <v>       0.08333334       0.57740104       0.40238991 </v>
    <v>       0.08333334       0.41073436       0.67064995 </v>
    <v>       0.41666669       0.74406773       0.13413000 </v>
    <v>       0.41666669       0.57740104       0.40238991 </v>
    <v>       0.41666669       0.41073436       0.67064995 </v>
    <v>       0.75000000       0.74406773       0.13413000 </v>
    <v>       0.75000000       0.57740104       0.40238991 </v>
    <v>       0.75000000       0.41073436       0.67064995 </v>
    <v>       0.16666667       0.16073438       0.00000000 </v>
    <v>       0.16666667       0.99406767       0.26825997 </v>
    <v>       0.16666667       0.82740098       0.53652000 </v>
    <v>       0.50000000       0.16073438       0.00000000 </v>
    <v>       0.50000000       0.99406767       0.26825997 </v>
    <v>       0.50000000       0.82740098       0.53652000 </v>
    <v>       0.83333337       0.16073438       0.00000000 </v>
    <v>       0.83333337       0.99406767       0.26825997 </v>
    <v>       0.83333337       0.82740098       0.53652000 </v>
    <v>       0.16666667       0.49406770       0.00000000 </v>
    <v>       0.16666667       0.32740104       0.26825997 </v>
    <v>       0.16666667       0.16073431       0.53652000 </v>
    <v>       0.50000000       0.49406770       0.00000000 </v>
    <v>       0.50000000       0.32740104       0.26825997 </v>
    <v>       0.50000000       0.16073431       0.53652000 </v>
    <v>       0.83333337       0.49406770       0.00000000 </v>
    <v>       0.83333337       0.32740104       0.26825997 </v>
    <v>       0.83333337       0.16073431       0.53652000 </v>
    <v>       0.16666667       0.82740104       0.00000000 </v>
    <v>       0.16666667       0.66073436       0.26825997 </v>
    <v>       0.16666667       0.49406764       0.53652000 </v>
    <v>       0.50000000       0.82740104       0.00000000 </v>
    <v>       0.50000000       0.66073436       0.26825997 </v>
    <v>       0.50000000       0.49406764       0.53652000 </v>
    <v>       0.83333337       0.82740104       0.00000000 </v>
    <v>       0.83333337       0.66073436       0.26825997 </v>
    <v>       0.83333337       0.49406764       0.53652000 </v>
    <v>       0.25000000       0.24406771       0.13413000 </v>
    <v>       0.25000000       0.07740103       0.40238991 </v>
    <v>       0.25000000       0.91073436       0.67064995 </v>
    <v>       0.58333337       0.24406771       0.13413000 </v>
    <v>       0.58333337       0.07740103       0.40238991 </v>
    <v>       0.58333337       0.91073436       0.67064995 </v>
    <v>       0.91666669       0.24406771       0.13413000 </v>
    <v>       0.91666669       0.07740103       0.40238991 </v>
    <v>       0.91666669       0.91073436       0.67064995 </v>
    <v>       0.25000000       0.57740116       0.13413000 </v>
    <v>       0.25000000       0.41073445       0.40238991 </v>
    <v>       0.25000000       0.24406774       0.67064995 </v>
    <v>       0.58333337       0.57740116       0.13413000 </v>
    <v>       0.58333337       0.41073445       0.40238991 </v>
    <v>       0.58333337       0.24406774       0.67064995 </v>
    <v>       0.91666669       0.57740116       0.13413000 </v>
    <v>       0.91666669       0.41073445       0.40238991 </v>
    <v>       0.91666669       0.24406774       0.67064995 </v>
    <v>       0.25000000       0.91073436       0.13413000 </v>
    <v>       0.25000000       0.74406767       0.40238991 </v>
    <v>       0.25000000       0.57740104       0.67064995 </v>
    <v>       0.58333337       0.91073436       0.13413000 </v>
    <v>       0.58333337       0.74406767       0.40238991 </v>
    <v>       0.58333337       0.57740104       0.67064995 </v>
    <v>       0.91666669       0.91073436       0.13413000 </v>
    <v>       0.91666669       0.74406767       0.40238991 </v>
    <v>       0.91666669       0.57740104       0.67064995 </v>
    <v>       0.41323769       0.91002428       0.67065000 </v>
    <v>       0.03823772       0.52113533       0.73652005 </v>
    <v>       0.66323775       0.13224643       0.80238998 </v>
    <v>       0.28823781       0.74335754       0.86826003 </v>
    <v>       0.91323781       0.35446858       0.93413007 </v>
    <v>       0.53823769       0.96557951       0.00000000 </v>
    <v>       0.91323775       0.91002428       0.67065000 </v>
    <v>       0.53823781       0.52113533       0.73652005 </v>
    <v>       0.16323775       0.13224638       0.80238998 </v>
    <v>       0.78823781       0.74335754       0.86826003 </v>
    <v>       0.41323793       0.35446858       0.93413007 </v>
    <v>       0.03823781       0.96557951       0.00000000 </v>
    <v>       0.78823769       0.66002423       0.67065000 </v>
    <v>       0.41323775       0.27113533       0.73652005 </v>
    <v>       0.03823778       0.88224638       0.80238998 </v>
    <v>       0.66323787       0.49335754       0.86826015 </v>
    <v>       0.28823799       0.10446864       0.93413007 </v>
    <v>       0.91323769       0.71557951       0.00000000 </v>
    <v>       0.28823769       0.66002423       0.67065000 </v>
    <v>       0.91323775       0.27113527       0.73652005 </v>
    <v>       0.53823775       0.88224632       0.80238998 </v>
    <v>       0.16323781       0.49335748       0.86826003 </v>
    <v>       0.78823793       0.10446852       0.93413007 </v>
    <v>       0.41323769       0.71557939       0.00000000 </v>
    <v>       0.53823769       0.66002423       0.67065000 </v>
    <v>       0.16323771       0.27113530       0.73652005 </v>
    <v>       0.78823775       0.88224632       0.80238998 </v>
    <v>       0.41323781       0.49335748       0.86826003 </v>
    <v>       0.03823793       0.10446858       0.93413007 </v>
    <v>       0.66323769       0.71557939       0.00000000 </v>
    <v>       0.03823770       0.66002423       0.67065000 </v>
    <v>       0.66323775       0.27113533       0.73652005 </v>
    <v>       0.28823775       0.88224638       0.80238998 </v>
    <v>       0.91323781       0.49335748       0.86826015 </v>
    <v>       0.53823793       0.10446858       0.93413007 </v>
    <v>       0.16323781       0.71557951       0.00000000 </v>
    <v>       0.66323763       0.91002428       0.67065000 </v>
    <v>       0.28823769       0.52113533       0.73652005 </v>
    <v>       0.91323769       0.13224643       0.80238998 </v>
    <v>       0.53823781       0.74335742       0.86826003 </v>
    <v>       0.16323793       0.35446858       0.93413007 </v>
    <v>       0.78823769       0.96557951       0.00000000 </v>
    <v>       0.16323771       0.91002428       0.67065000 </v>
    <v>       0.78823775       0.52113533       0.73652005 </v>
    <v>       0.41323781       0.13224643       0.80238998 </v>
    <v>       0.03823787       0.74335754       0.86826003 </v>
    <v>       0.66323793       0.35446858       0.93413007 </v>
    <v>       0.28823769       0.96557951       0.00000000 </v>
   </varray>
  </structure>
  <varray name="primitive_index" >
   <v type="int" >        1 </v>
   <v type="int" >        2 </v>
   <v type="int" >        3 </v>
   <v type="int" >        4 </v>
   <v type="int" >        5 </v>
   <v type="int" >        6 </v>
   <v type="int" >        7 </v>
   <v type="int" >        8 </v>
   <v type="int" >        9 </v>
   <v type="int" >       10 </v>
   <v type="int" >       11 </v>
   <v type="int" >       12 </v>
   <v type="int" >       13 </v>
   <v type="int" >       14 </v>
   <v type="int" >       15 </v>
   <v type="int" >       16 </v>
   <v type="int" >       17 </v>
   <v type="int" >       18 </v>
   <v type="int" >       19 </v>
   <v type="int" >       20 </v>
   <v type="int" >       21 </v>
   <v type="int" >       22 </v>
   <v type="int" >       23 </v>
   <v type="int" >       24 </v>
   <v type="int" >       25 </v>
   <v type="int" >       26 </v>
   <v type="int" >       27 </v>
   <v type="int" >       28 </v>
   <v type="int" >       29 </v>
   <v type="int" >       30 </v>
   <v type="int" >       31 </v>
   <v type="int" >       32 </v>
   <v type="int" >       33 </v>
   <v type="int" >       34 </v>
   <v type="int" >       35 </v>
   <v type="int" >       36 </v>
   <v type="int" >       37 </v>
   <v type="int" >       38 </v>
   <v type="int" >       39 </v>
   <v type="int" >       40 </v>
   <v type="int" >       41 </v>
   <v type="int" >       42 </v>
   <v type="int" >       43 </v>
   <v type="int" >       44 </v>
   <v type="int" >       45 </v>
   <v type="int" >       46 </v>
   <v type="int" >       47 </v>
   <v type="int" >       48 </v>
   <v type="int" >       49 </v>
   <v type="int" >       50 </v>
   <v type="int" >       51 </v>
   <v type="int" >       52 </v>
   <v type="int" >       53 </v>
   <v type="int" >       54 </v>
   <v type="int" >       55 </v>
   <v type="int" >       56 </v>
   <v type="int" >       57 </v>
   <v type="int" >       58 </v>
   <v type="int" >       59 </v>
   <v type="int" >       60 </v>
   <v type="int" >       61 </v>
   <v type="int" >       62 </v>
   <v type="int" >       63 </v>
   <v type="int" >       64 </v>
   <v type="int" >       65 </v>
   <v type="int" >       66 </v>
   <v type="int" >       67 </v>
   <v type="int" >       68 </v>
   <v type="int" >       69 </v>
   <v type="int" >       70 </v>
   <v type="int" >       71 </v>
   <v type="int" >       72 </v>
   <v type="int" >       73 </v>
   <v type="int" >       74 </v>
   <v type="int" >       75 </v>
   <v type="int" >       76 </v>
   <v type="int" >       77 </v>
   <v type="int" >       78 </v>
   <v type="int" >       79 </v>
   <v type="int" >       80 </v>
   <v type="int" >       81 </v>
   <v type="int" >       82 </v>
   <v type="int" >       83 </v>
   <v type="int" >       84 </v>
   <v type="int" >       85 </v>
   <v type="int" >       86 </v>
   <v type="int" >       87 </v>
   <v type="int" >       88 </v>
   <v type="int" >       89 </v>
   <v type="int" >       90 </v>
   <v type="int" >       91 </v>
   <v type="int" >       92 </v>
   <v type="int" >       93 </v>
   <v type="int" >       94 </v>
   <v type="int" >       95 </v>
   <v type="int" >       96 </v>
   <v type="int" >       97 </v>
   <v type="int" >       98 </v>
   <v type="int" >       99 </v>
   <v type="int" >      100 </v>
   <v type="int" >      101 </v>
   <v type="int" >      102 </v>
   <v type="int" >      103 </v>
   <v type="int" >      104 </v>
   <v type="int" >      105 </v>
   <v type="int" >      106 </v>
   <v type="int" >      107 </v>
   <v type="int" >      108 </v>
   <v type="int" >      109 </v>
   <v type="int" >      110 </v>
   <v type="int" >      111 </v>
   <v type="int" >      112 </v>
   <v type="int" >      113 </v>
   <v type="int" >      114 </v>
   <v type="int" >      115 </v>
   <v type="int" >      116 </v>
   <v type="int" >      117 </v>
   <v type="int" >      118 </v>
   <v type="int" >      119 </v>
   <v type="int" >      120 </v>
   <v type="int" >      121 </v>
   <v type="int" >      122 </v>
   <v type="int" >      123 </v>
   <v type="int" >      124 </v>
   <v type="int" >      125 </v>
   <v type="int" >      126 </v>
   <v type="int" >      127 </v>
   <v type="int" >      128 </v>
   <v type="int" >      129 </v>
   <v type="int" >      130 </v>
   <v type="int" >      131 </v>
   <v type="int" >      132 </v>
   <v type="int" >      133 </v>
   <v type="int" >      134 </v>
   <v type="int" >      135 </v>
   <v type="int" >      136 </v>
   <v type="int" >      137 </v>
   <v type="int" >      138 </v>
   <v type="int" >      139 </v>
   <v type="int" >      140 </v>
   <v type="int" >      141 </v>
   <v type="int" >      142 </v>
   <v type="int" >      143 </v>
   <v type="int" >      144 </v>
   <v type="int" >      145 </v>
   <v type="int" >      146 </v>
   <v type="int" >      147 </v>
   <v type="int" >      148 </v>
   <v type="int" >      149 </v>
   <v type="int" >      150 </v>
   <v type="int" >      151 </v>
   <v type="int" >      152 </v>
   <v type="int" >      153 </v>
   <v type="int" >      154 </v>
   <v type="int" >      155 </v>
   <v type="int" >      156 </v>
  </varray>
 </primitive_cell>
 <kpoints>
  <generation param="Gamma">
   <v type="int" name="divisions">       2        2        3 </v>
   <v name="usershift">      0.00000000       0.00000000       0.00000000 </v>
   <v name="genvec1">      0.50000000       0.00000000       0.00000000 </v>
   <v name="genvec2">      0.00000000       0.50000000       0.00000000 </v>
   <v name="genvec3">      0.00000000       0.00000000       0.33333333 </v>
   <v name="shift">      0.00000000       0.00000000       0.00000000 </v>
  </generation>
  <varray name="kpointlist" >
   <v>       0.00000000       0.00000000       0.00000000 </v>
   <v>       0.50000000       0.00000000       0.00000000 </v>
   <v>       0.00000000       0.50000000       0.00000000 </v>
   <v>       0.50000000       0.50000000       0.00000000 </v>
   <v>       0.00000000       0.00000000       0.33333333 </v>
   <v>       0.50000000       0.00000000       0.33333333 </v>
   <v>       0.00000000       0.50000000       0.33333333 </v>
   <v>       0.50000000       0.50000000       0.33333333 </v>
  </varray>
  <varray name="weights" >
   <v>       0.08333333 </v>
   <v>       0.08333333 </v>
   <v>       0.08333333 </v>
   <v>       0.08333333 </v>
   <v>       0.16666667 </v>
   <v>       0.16666667 </v>
   <v>       0.16666667 </v>
   <v>       0.16666667 </v>
  </varray>
 </kpoints>
 <parameters>
  <separator name="general" >
   <i type="string" name="SYSTEM">Si and Ge interface calculation</i>
   <i type="logical" name="LCOMPAT"> F  </i>
  </separator>
  <separator name="electronic" >
   <i type="string" name="PREC">normal</i>
   <i name="ENMAX">    700.00000000</i>
   <i name="ENAUG">    900.00000000</i>
   <i name="EDIFF">      0.00000010</i>
   <i type="int" name="IALGO">    38</i>
   <i type="int" name="IWAVPR">    10</i>
   <i type="int" name="NBANDS">   376</i>
   <i type="int" name="NBANDSLOW">    -1</i>
   <i type="int" name="NBANDSHIGH">    -1</i>
   <i name="NELECT">    624.00000000</i>
   <i type="int" name="TURBO">     0</i>
   <i type="int" name="IRESTART">     0</i>
   <i type="int" name="NREBOOT">     0</i>
   <i type="int" name="NMIN">     0</i>
   <i name="EREF">      0.00000000</i>
   <separator name="electronic smearing" >
    <i type="int" name="ISMEAR">     0</i>
    <i name="SIGMA">      0.01000000</i>
    <i name="KSPACING">      0.50000000</i>
    <i type="logical" name="KGAMMA"> T  </i>
    <i type="logical" name="KBLOWUP"> T  </i>
   </separator>
   <separator name="electronic projectors" >
    <i type="logical" name="LREAL"> T  </i>
    <v name="ROPT">     -0.00050000     -0.00050000</v>
    <i type="int" name="LMAXPAW">  -100</i>
    <i type="int" name="LMAXMIX">     6</i>
    <i type="logical" name="NLSPLINE"> F  </i>
   </separator>
   <separator name="electronic startup" >
    <i type="int" name="ISTART">     0</i>
    <i type="int" name="ICHARG">     2</i>
    <i type="int" name="INIWAV">     1</i>
   </separator>
   <separator name="electronic spin" >
    <i type="int" name="ISPIN">     2</i>
    <i type="logical" name="LNONCOLLINEAR"> F  </i>
    <v name="MAGMOM">      0.00641026      0.00641026      0.00641026      0.00641026      0.00641026      0.00641026      0.00641026      0.00641026      0.00641026      0.00641026      0.00641026      0.00641026      0.00641026      0.00641026      0.00641026      0.00641026      0.00641026      0.00641026      0.00641026      0.00641026
      0.00641026      0.00641026      0.00641026      0.00641026      0.00641026      0.00641026      0.00641026      0.00641026      0.00641026      0.00641026      0.00641026      0.00641026      0.00641026      0.00641026      0.00641026      0.00641026      0.00641026      0.00641026      0.00641026      0.00641026
      0.00641026      0.00641026      0.00641026      0.00641026      0.00641026      0.00641026      0.00641026      0.00641026      0.00641026      0.00641026      0.00641026      0.00641026      0.00641026      0.00641026      0.00641026      0.00641026      0.00641026      0.00641026      0.00641026      0.00641026
      0.00641026      0.00641026      0.00641026      0.00641026      0.00641026      0.00641026      0.00641026      0.00641026      0.00641026      0.00641026      0.00641026      0.00641026      0.00641026      0.00641026      0.00641026      0.00641026      0.00641026      0.00641026      0.00641026      0.00641026
      0.00641026      0.00641026      0.00641026      0.00641026      0.00641026      0.00641026      0.00641026      0.00641026      0.00641026      0.00641026      0.00641026      0.00641026      0.00641026      0.00641026      0.00641026      0.00641026      0.00641026      0.00641026      0.00641026      0.00641026
      0.00641026      0.00641026      0.00641026      0.00641026      0.00641026      0.00641026      0.00641026      0.00641026      0.00641026      0.00641026      0.00641026      0.00641026      0.00641026      0.00641026      0.00641026      0.00641026      0.00641026      0.00641026      0.00641026      0.00641026
      0.00641026      0.00641026      0.00641026      0.00641026      0.00641026      0.00641026      0.00641026      0.00641026      0.00641026      0.00641026      0.00641026      0.00641026      0.00641026      0.00641026      0.00641026      0.00641026      0.00641026      0.00641026      0.00641026      0.00641026
      0.00641026      0.00641026      0.00641026      0.00641026      0.00641026      0.00641026      0.00641026      0.00641026      0.00641026      0.00641026      0.00641026      0.00641026      0.00641026      0.00641026      0.00641026      0.00641026</v>
    <i name="NUPDOWN">      1.00000000</i>
    <i type="logical" name="LSORBIT"> F  </i>
    <v name="SAXIS">      0.00000000      0.00000000      1.00000000</v>
    <i type="logical" name="LSPIRAL"> F  </i>
    <v name="QSPIRAL">      0.00000000      0.00000000      0.00000000</v>
    <i type="logical" name="LZEROZ"> F  </i>
   </separator>
   <separator name="electronic exchange-correlation" >
    <i type="logical" name="LASPH"> T  </i>
   </separator>
   <separator name="electronic convergence" >
    <i type="int" name="NELM">   100</i>
    <i type="int" name="NELMDL">    -5</i>
    <i type="int" name="NELMIN">     2</i>
    <i name="ENINI">    700.00000000</i>
    <separator name="electronic convergence detail" >
     <i type="logical" name="LDIAG"> T  </i>
     <i type="logical" name="LSUBROT"> F  </i>
     <i name="WEIMIN">      0.00000000</i>
     <i name="EBREAK">      0.00000000</i>
     <i name="DEPER">      0.30000000</i>
     <i type="int" name="NRMM">     4</i>
     <i name="TIME">      0.40000000</i>
    </separator>
   </separator>
   <separator name="electronic mixer" >
    <i name="AMIX">      0.60000000</i>
    <i name="BMIX">      1.00000000</i>
    <i name="AMIN">      0.10000000</i>
    <i name="AMIX_MAG">      2.40000000</i>
    <i name="BMIX_MAG">      1.00000000</i>
    <separator name="electronic mixer details" >
     <i type="int" name="IMIX">     4</i>
     <i type="logical" name="MIXFIRST"> F  </i>
     <i type="int" name="MAXMIX">   -45</i>
     <i name="WC">    100.00000000</i>
     <i type="int" name="INIMIX">     1</i>
     <i type="int" name="MIXPRE">     1</i>
     <i type="int" name="MREMOVE">     5</i>
    </separator>
   </separator>
   <separator name="electronic dipolcorrection" >
    <i type="logical" name="LDIPOL"> F  </i>
    <i type="logical" name="LMONO"> F  </i>
    <i type="int" name="IDIPOL">     0</i>
    <i name="EPSILON">      1.00000000</i>
    <v name="DIPOL">   -100.00000000   -100.00000000   -100.00000000</v>
    <i name="EFIELD">      0.00000000</i>
    <i type="logical" name="LVACPOTAV"> F  </i>
   </separator>
  </separator>
  <separator name="grids" >
   <i type="int" name="NGX">   108</i>
   <i type="int" name="NGY">   108</i>
   <i type="int" name="NGZ">    70</i>
   <i type="int" name="NGXF">   216</i>
   <i type="int" name="NGYF">   216</i>
   <i type="int" name="NGZF">   140</i>
   <i type="logical" name="ADDGRID"> T  </i>
  </separator>
  <separator name="ionic" >
   <i type="int" name="NSW">     0</i>
   <i type="int" name="IBRION">    -1</i>
   <i type="int" name="MDALGO">     0</i>
   <i type="int" name="ISIF">     2</i>
   <i name="PSTRESS">      0.00000000</i>
   <i name="EDIFFG">      0.00000100</i>
   <i type="int" name="NFREE">     0</i>
   <i name="POTIM">      0.50000000</i>
   <i name="SMASS">     -3.00000000</i>
   <i name="SCALEE">      1.00000000</i>
  </separator>
  <separator name="ionic md" >
   <i name="TEBEG">      0.00010000</i>
   <i name="TEEND">      0.00010000</i>
   <i type="int" name="NBLOCK">     1</i>
   <i type="int" name="KBLOCK">     1</i>
   <i type="int" name="NPACO">   256</i>
   <i name="APACO">     10.00000000</i>
  </separator>
  <separator name="symmetry" >
   <i type="int" name="ISYM">     2</i>
   <i name="SYMPREC">      0.00001000</i>
  </separator>
  <separator name="dos" >
   <i type="int" name="LORBIT">     0</i>
   <v name="RWIGS">     -1.00000000     -1.00000000</v>
   <i type="int" name="NEDOS">   301</i>
   <i name="EMIN">     10.00000000</i>
   <i name="EMAX">    -10.00000000</i>
   <i name="EFERMI">      0.00000000</i>
  </separator>
  <separator name="writing" >
   <i type="int" name="NWRITE">     2</i>
   <i type="logical" name="LWAVE"> F  </i>
   <i type="logical" name="LDOWNSAMPLE"> F  </i>
   <i type="logical" name="LCHARG"> T  </i>
   <i type="logical" name="LPARD"> F  </i>
   <i type="logical" name="LVTOT"> F  </i>
   <i type="logical" name="LVHAR"> T  </i>
   <i type="logical" name="LELF"> F  </i>
   <i type="logical" name="LOPTICS"> F  </i>
   <v name="STM">      0.00000000      0.00000000      0.00000000      0.00000000      0.00000000      0.00000000      0.00000000</v>
  </separator>
  <separator name="performance" >
   <i type="int" name="NPAR">     4</i>
   <i type="int" name="NSIM">     4</i>
   <i type="int" name="NBLK">    -1</i>
   <i type="logical" name="LPLANE"> T  </i>
   <i type="logical" name="LSCALAPACK"> T  </i>
   <i type="logical" name="LSCAAWARE"> F  </i>
   <i type="logical" name="LSCALU"> F  </i>
   <i type="logical" name="LASYNC"> F  </i>
   <i type="logical" name="LORBITALREAL"> F  </i>
  </separator>
  <separator name="miscellaneous" >
   <i type="int" name="IDIOT">     3</i>
   <i type="int" name="PHON_NSTRUCT">    -1</i>
   <i type="logical" name="LMUSIC"> F  </i>
   <v name="POMASS">     28.08500000     72.61000000</v>
   <v name="DARWINR">      0.00000000      0.00000000</v>
   <v name="DARWINV">      1.00000000      1.00000000</v>
   <i type="logical" name="LCORR"> T  </i>
  </separator>
  <i type="logical" name="GGA_COMPAT"> T  </i>
  <i type="logical" name="LBERRY"> F  </i>
  <i type="int" name="ICORELEVEL">     0</i>
  <i type="logical" name="LDAU"> F  </i>
  <i type="int" name="I_CONSTRAINED_M">     0</i>
  <separator name="electronic exchange-correlation" >
   <i type="string" name="GGA    ">PE</i>
   <i type="string" name="XC_C">1</i>
   <i type="int" name="VOSKOWN">     0</i>
   <i type="logical" name="LHFCALC"> F  </i>
   <i type="string" name="PRECFOCK"></i>
   <i type="logical" name="LSYMGRAD"> F  </i>
   <i type="logical" name="LHFONE"> F  </i>
   <i type="logical" name="LRHFCALC"> F  </i>
   <i type="logical" name="LTHOMAS"> F  </i>
   <i type="logical" name="LMODELHF"> F  </i>
   <i type="logical" name="LFOCKACE"> F  </i>
   <i name="ENCUT4O">     -1.00000000</i>
   <i type="int" name="EXXOEP">     0</i>
   <i type="int" name="FOURORBIT">     0</i>
   <i name="AEXX">      0.00000000</i>
   <i name="HFALPHA">      0.00000000</i>
   <i name="MCALPHA">      0.00000000</i>
   <i name="ALDAX">      1.00000000</i>
   <i name="AGGAX">      1.00000000</i>
   <i name="AMGGAX">      1.00000000</i>
   <i name="ALDAC">      1.00000000</i>
   <i name="AGGAC">      1.00000000</i>
   <i name="AMGGAC">      1.00000000</i>
   <i type="int" name="NKREDX">     1</i>
   <i type="int" name="NKREDY">     1</i>
   <i type="int" name="NKREDZ">     1</i>
   <i type="logical" name="SHIFTRED"> F  </i>
   <i type="logical" name="ODDONLY"> F  </i>
   <i type="logical" name="EVENONLY"> F  </i>
   <i type="int" name="LMAXFOCK">     0</i>
   <i type="int" name="NMAXFOCKAE">     0</i>
   <i type="logical" name="LFOCKAEDFT"> F  </i>
   <i name="HFSCREEN">      0.00000000</i>
   <i name="HFSCREENC">      0.00000000</i>
   <i type="int" name="NBANDSGWLOW">     0</i>
  </separator>
  <separator name="vdW DFT" >
   <i type="logical" name="LUSE_VDW"> F  </i>
   <i type="int" name="IVDW_NL">    -1</i>
   <i type="logical" name="LSPIN_VDW"> F  </i>
   <i name="ZAB_VDW">     -0.84910000</i>
   <i name="GAMMA_VDW">      1.39626340</i>
   <i name="ALPHA_VDW">      0.00000000</i>
   <i name="PARAM1">      0.12340000</i>
   <i name="PARAM2">      1.00000000</i>
   <i name="BPARAM">      6.30000000</i>
   <i name="CPARAM">      0.00930000</i>
  </separator>
  <separator name="model GW" >
   <i type="int" name="MODEL_GW">     0</i>
   <i name="MODEL_EPS0">     10.33529344</i>
   <i name="MODEL_ALPHA">      1.00000000</i>
  </separator>
  <separator name="linear response parameters" >
   <i type="logical" name="LEPSILON"> F  </i>
   <i type="logical" name="LRPA"> F  </i>
   <i type="logical" name="LNABLA"> F  </i>
   <i type="logical" name="LVEL"> F  </i>
   <i name="CSHIFT">      0.10000000</i>
   <i name="OMEGAMAX">     -1.00000000</i>
   <i name="DEG_THRESHOLD">      0.00200000</i>
   <i name="RTIME">     -0.10000000</i>
   <i name="WPLASMAI">      0.00000000</i>
   <v name="DFIELD">      0.00000000      0.00000000      0.00000000</v>
   <v name="WPLASMA">      0.00000000      0.00000000      0.00000000      0.00000000      0.00000000      0.00000000      0.00000000      0.00000000      0.00000000</v>
  </separator>
  <separator name="orbital magnetization" >
   <i type="logical" name="NUCIND"> F  </i>
   <v name="MAGPOS">      0.00000000      0.00000000      0.00000000</v>
   <i type="logical" name="LNICSALL"> T  </i>
   <i type="logical" name="ORBITALMAG"> F  </i>
   <i type="logical" name="LMAGBLOCH"> F  </i>
   <i type="logical" name="LCHIMAG"> F  </i>
   <i type="logical" name="LGAUGE"> T  </i>
   <i type="int" name="MAGATOM">     0</i>
   <v name="MAGDIPOL">      0.00000000      0.00000000      0.00000000</v>
   <v name="AVECCONST">      0.00000000      0.00000000      0.00000000</v>
  </separator>
  <separator name="response functions" >
   <i type="logical" name="LALL_IN_ONE"> F  </i>
   <i type="int" name="IALL_IN_ONE">    -1</i>
   <i type="int" name="NBANDS_WAVE">    -1</i>
   <i type="logical" name="LFINITE_TEMPERATURE"> F  </i>
   <i type="logical" name="LADDER"> F  </i>
   <i type="logical" name="LRPAFORCE"> F  </i>
   <i type="logical" name="LFXC"> F  </i>
   <i type="logical" name="LHARTREE"> T  </i>
   <i type="int" name="IBSE">     0</i>
   <v type="int" name="KPOINT">    -1     0     0     0</v>
   <i type="logical" name="LTCTC"> F  </i>
   <i type="logical" name="LTCTE"> F  </i>
   <i type="logical" name="LTETE"> F  </i>
   <i type="logical" name="LTRIPLET"> F  </i>
   <i type="logical" name="LFXCEPS"> F  </i>
   <i type="logical" name="LFXHEG"> F  </i>
   <i type="int" name="NATURALO">     2</i>
   <i type="logical" name="LHOLEGF"> F  </i>
   <i type="logical" name="L2ORDER"> F  </i>
   <i type="logical" name="LDMP1"> F  </i>
   <i type="logical" name="LMP2LT"> F  </i>
   <i type="logical" name="LSMP2LT"> F  </i>
   <i type="logical" name="LGWLF"> F  </i>
   <i name="ENCUTGW">     -1.60000002</i>
   <i name="ENCUTGWSOFT">     -1.60000002</i>
   <i name="ENCUTLF">     -1.00000000</i>
   <i type="logical" name="ESF_SPLINES"> F  </i>
   <i name="ESF_CONV">      0.01000000</i>
   <i type="int" name="ESF_NINTER">    15</i>
   <i type="int" name="LMAXMP2">    -1</i>
   <i name="SCISSOR">      0.00000000</i>
   <i type="int" name="NOMEGA">     0</i>
   <i type="int" name="NOMEGAR">     0</i>
   <i type="int" name="NBANDSGW">    -1</i>
   <i type="int" name="NBANDSO">    -1</i>
   <i type="int" name="NBANDSV">    -1</i>
   <i type="int" name="NELMGW">     1</i>
   <i type="int" name="NELMHF">     1</i>
   <i type="int" name="DIM">     3</i>
   <i type="int" name="IESPILON">     4</i>
   <i type="int" name="ANTIRES">     0</i>
   <i name="OMEGAMAX">    -30.00000000</i>
   <i name="OMEGAMIN">    -30.00000000</i>
   <i name="OMEGATL">   -200.00000000</i>
   <i type="int" name="OMEGAGRID">     0</i>
   <i name="CSHIFT">     -0.10000000</i>
   <i type="logical" name="LSELFENERGY"> F  </i>
   <i type="logical" name="LSPECTRAL"> F  </i>
   <i type="logical" name="LSPECTRALGW"> F  </i>
   <i type="logical" name="LSINGLES"> F  </i>
   <i type="logical" name="LFERMIGW"> F  </i>
   <i type="logical" name="ODDONLYGW"> F  </i>
   <i type="logical" name="EVENONLYGW"> F  </i>
   <i type="int" name="NKREDLFX">     1</i>
   <i type="int" name="NKREDLFY">     1</i>
   <i type="int" name="NKREDLFZ">     1</i>
   <i type="int" name="MAXMEM">  2800</i>
   <i type="int" name="TELESCOPE">     0</i>
   <i type="int" name="NTAUPAR">    -1</i>
   <i type="int" name="NOMEGAPAR">    -1</i>
   <i name="DAMP_NEWTON">      0.80000001</i>
   <i name="LAMBDA">      1.00000000</i>
  </separator>
  <separator name="External order field" >
   <i name="OFIELD_KAPPA">      0.00000000</i>
   <v name="OFIELD_K">      0.00000000      0.00000000      0.00000000</v>
   <i name="OFIELD_Q6_NEAR">      0.00000000</i>
   <i name="OFIELD_Q6_FAR">      0.00000000</i>
   <i name="OFIELD_A">      0.00000000</i>
  </separator>
  <separator name="optional k-points parameters" >
   <i type="int" name="KPOINTS_OPT_MODE">     1</i>
   <i type="logical" name="LKPOINTS_OPT"> F  </i>
  </separator>
 </parameters>
 <atominfo>
  <atoms>     156 </atoms>
  <types>       2 </types>
  <array name="atoms" >
   <dimension dim="1">ion</dimension>
   <field type="string">element</field>
   <field type="int">atomtype</field>
   <set>
    <rc><c>Si</c><c>   1</c></rc>
    <rc><c>Si</c><c>   1</c></rc>
    <rc><c>Si</c><c>   1</c></rc>
    <rc><c>Si</c><c>   1</c></rc>
    <rc><c>Si</c><c>   1</c></rc>
    <rc><c>Si</c><c>   1</c></rc>
    <rc><c>Si</c><c>   1</c></rc>
    <rc><c>Si</c><c>   1</c></rc>
    <rc><c>Si</c><c>   1</c></rc>
    <rc><c>Si</c><c>   1</c></rc>
    <rc><c>Si</c><c>   1</c></rc>
    <rc><c>Si</c><c>   1</c></rc>
    <rc><c>Si</c><c>   1</c></rc>
    <rc><c>Si</c><c>   1</c></rc>
    <rc><c>Si</c><c>   1</c></rc>
    <rc><c>Si</c><c>   1</c></rc>
    <rc><c>Si</c><c>   1</c></rc>
    <rc><c>Si</c><c>   1</c></rc>
    <rc><c>Si</c><c>   1</c></rc>
    <rc><c>Si</c><c>   1</c></rc>
    <rc><c>Si</c><c>   1</c></rc>
    <rc><c>Si</c><c>   1</c></rc>
    <rc><c>Si</c><c>   1</c></rc>
    <rc><c>Si</c><c>   1</c></rc>
    <rc><c>Si</c><c>   1</c></rc>
    <rc><c>Si</c><c>   1</c></rc>
    <rc><c>Si</c><c>   1</c></rc>
    <rc><c>Si</c><c>   1</c></rc>
    <rc><c>Si</c><c>   1</c></rc>
    <rc><c>Si</c><c>   1</c></rc>
    <rc><c>Si</c><c>   1</c></rc>
    <rc><c>Si</c><c>   1</c></rc>
    <rc><c>Si</c><c>   1</c></rc>
    <rc><c>Si</c><c>   1</c></rc>
    <rc><c>Si</c><c>   1</c></rc>
    <rc><c>Si</c><c>   1</c></rc>
    <rc><c>Si</c><c>   1</c></rc>
    <rc><c>Si</c><c>   1</c></rc>
    <rc><c>Si</c><c>   1</c></rc>
    <rc><c>Si</c><c>   1</c></rc>
    <rc><c>Si</c><c>   1</c></rc>
    <rc><c>Si</c><c>   1</c></rc>
    <rc><c>Si</c><c>   1</c></rc>
    <rc><c>Si</c><c>   1</c></rc>
    <rc><c>Si</c><c>   1</c></rc>
    <rc><c>Si</c><c>   1</c></rc>
    <rc><c>Si</c><c>   1</c></rc>
    <rc><c>Si</c><c>   1</c></rc>
    <rc><c>Si</c><c>   1</c></rc>
    <rc><c>Si</c><c>   1</c></rc>
    <rc><c>Si</c><c>   1</c></rc>
    <rc><c>Si</c><c>   1</c></rc>
    <rc><c>Si</c><c>   1</c></rc>
    <rc><c>Si</c><c>   1</c></rc>
    <rc><c>Si</c><c>   1</c></rc>
    <rc><c>Si</c><c>   1</c></rc>
    <rc><c>Si</c><c>   1</c></rc>
    <rc><c>Si</c><c>   1</c></rc>
    <rc><c>Si</c><c>   1</c></rc>
    <rc><c>Si</c><c>   1</c></rc>
    <rc><c>Si</c><c>   1</c></rc>
    <rc><c>Si</c><c>   1</c></rc>
    <rc><c>Si</c><c>   1</c></rc>
    <rc><c>Si</c><c>   1</c></rc>
    <rc><c>Si</c><c>   1</c></rc>
    <rc><c>Si</c><c>   1</c></rc>
    <rc><c>Si</c><c>   1</c></rc>
    <rc><c>Si</c><c>   1</c></rc>
    <rc><c>Si</c><c>   1</c></rc>
    <rc><c>Si</c><c>   1</c></rc>
    <rc><c>Si</c><c>   1</c></rc>
    <rc><c>Si</c><c>   1</c></rc>
    <rc><c>Si</c><c>   1</c></rc>
    <rc><c>Si</c><c>   1</c></rc>
    <rc><c>Si</c><c>   1</c></rc>
    <rc><c>Si</c><c>   1</c></rc>
    <rc><c>Si</c><c>   1</c></rc>
    <rc><c>Si</c><c>   1</c></rc>
    <rc><c>Si</c><c>   1</c></rc>
    <rc><c>Si</c><c>   1</c></rc>
    <rc><c>Si</c><c>   1</c></rc>
    <rc><c>Si</c><c>   1</c></rc>
    <rc><c>Si</c><c>   1</c></rc>
    <rc><c>Si</c><c>   1</c></rc>
    <rc><c>Si</c><c>   1</c></rc>
    <rc><c>Si</c><c>   1</c></rc>
    <rc><c>Si</c><c>   1</c></rc>
    <rc><c>Si</c><c>   1</c></rc>
    <rc><c>Si</c><c>   1</c></rc>
    <rc><c>Si</c><c>   1</c></rc>
    <rc><c>Si</c><c>   1</c></rc>
    <rc><c>Si</c><c>   1</c></rc>
    <rc><c>Si</c><c>   1</c></rc>
    <rc><c>Si</c><c>   1</c></rc>
    <rc><c>Si</c><c>   1</c></rc>
    <rc><c>Si</c><c>   1</c></rc>
    <rc><c>Si</c><c>   1</c></rc>
    <rc><c>Si</c><c>   1</c></rc>
    <rc><c>Si</c><c>   1</c></rc>
    <rc><c>Si</c><c>   1</c></rc>
    <rc><c>Si</c><c>   1</c></rc>
    <rc><c>Si</c><c>   1</c></rc>
    <rc><c>Si</c><c>   1</c></rc>
    <rc><c>Si</c><c>   1</c></rc>
    <rc><c>Si</c><c>   1</c></rc>
    <rc><c>Si</c><c>   1</c></rc>
    <rc><c>Si</c><c>   1</c></rc>
    <rc><c>Si</c><c>   1</c></rc>
    <rc><c>Ge</c><c>   2</c></rc>
    <rc><c>Ge</c><c>   2</c></rc>
    <rc><c>Ge</c><c>   2</c></rc>
    <rc><c>Ge</c><c>   2</c></rc>
    <rc><c>Ge</c><c>   2</c></rc>
    <rc><c>Ge</c><c>   2</c></rc>
    <rc><c>Ge</c><c>   2</c></rc>
    <rc><c>Ge</c><c>   2</c></rc>
    <rc><c>Ge</c><c>   2</c></rc>
    <rc><c>Ge</c><c>   2</c></rc>
    <rc><c>Ge</c><c>   2</c></rc>
    <rc><c>Ge</c><c>   2</c></rc>
    <rc><c>Ge</c><c>   2</c></rc>
    <rc><c>Ge</c><c>   2</c></rc>
    <rc><c>Ge</c><c>   2</c></rc>
    <rc><c>Ge</c><c>   2</c></rc>
    <rc><c>Ge</c><c>   2</c></rc>
    <rc><c>Ge</c><c>   2</c></rc>
    <rc><c>Ge</c><c>   2</c></rc>
    <rc><c>Ge</c><c>   2</c></rc>
    <rc><c>Ge</c><c>   2</c></rc>
    <rc><c>Ge</c><c>   2</c></rc>
    <rc><c>Ge</c><c>   2</c></rc>
    <rc><c>Ge</c><c>   2</c></rc>
    <rc><c>Ge</c><c>   2</c></rc>
    <rc><c>Ge</c><c>   2</c></rc>
    <rc><c>Ge</c><c>   2</c></rc>
    <rc><c>Ge</c><c>   2</c></rc>
    <rc><c>Ge</c><c>   2</c></rc>
    <rc><c>Ge</c><c>   2</c></rc>
    <rc><c>Ge</c><c>   2</c></rc>
    <rc><c>Ge</c><c>   2</c></rc>
    <rc><c>Ge</c><c>   2</c></rc>
    <rc><c>Ge</c><c>   2</c></rc>
    <rc><c>Ge</c><c>   2</c></rc>
    <rc><c>Ge</c><c>   2</c></rc>
    <rc><c>Ge</c><c>   2</c></rc>
    <rc><c>Ge</c><c>   2</c></rc>
    <rc><c>Ge</c><c>   2</c></rc>
    <rc><c>Ge</c><c>   2</c></rc>
    <rc><c>Ge</c><c>   2</c></rc>
    <rc><c>Ge</c><c>   2</c></rc>
    <rc><c>Ge</c><c>   2</c></rc>
    <rc><c>Ge</c><c>   2</c></rc>
    <rc><c>Ge</c><c>   2</c></rc>
    <rc><c>Ge</c><c>   2</c></rc>
    <rc><c>Ge</c><c>   2</c></rc>
    <rc><c>Ge</c><c>   2</c></rc>
   </set>
  </array>
  <array name="atomtypes" >
   <dimension dim="1">type</dimension>
   <field type="int">atomspertype</field>
   <field type="string">element</field>
   <field>mass</field>
   <field>valence</field>
   <field type="string">pseudopotential</field>
   <set>
    <rc><c> 108</c><c>Si</c><c>     28.08500000</c><c>      4.00000000</c><c>  PAW_PBE Si 05Jan2001                  </c></rc>
    <rc><c>  48</c><c>Ge</c><c>     72.61000000</c><c>      4.00000000</c><c>  PAW_PBE Ge 05Jan2001                  </c></rc>
   </set>
  </array>
 </atominfo>
 <structure name="initialpos" >
  <crystal>
   <varray name="basis" >
    <v>      16.29300118       0.00000000       0.00000000 </v>
    <v>       0.00000000      16.29300118       0.00000000 </v>
    <v>       0.00000000       0.00000000      10.12264442 </v>
   </varray>
   <i name="volume">   2687.17629315 </i>
   <varray name="rec_basis" >
    <v>       0.06137605       0.00000000       0.00000000 </v>
    <v>       0.00000000       0.06137605       0.00000000 </v>
    <v>       0.00000000       0.00000000       0.09878842 </v>
   </varray>
  </crystal>
  <varray name="positions" >
   <v>       0.00000000       0.99406773       0.00000000 </v>
   <v>       0.00000000       0.82740104       0.26825997 </v>
   <v>       0.00000000       0.66073430       0.53652000 </v>
   <v>       0.33333334       0.99406773       0.00000000 </v>
   <v>       0.33333334       0.82740104       0.26825997 </v>
   <v>       0.33333334       0.66073430       0.53652000 </v>
   <v>       0.66666669       0.99406773       0.00000000 </v>
   <v>       0.66666669       0.82740104       0.26825997 </v>
   <v>       0.66666669       0.66073430       0.53652000 </v>
   <v>       0.00000000       0.32740104       0.00000000 </v>
   <v>       0.00000000       0.16073437       0.26825997 </v>
   <v>       0.00000000       0.99406767       0.53652000 </v>
   <v>       0.33333334       0.32740104       0.00000000 </v>
   <v>       0.33333334       0.16073437       0.26825997 </v>
   <v>       0.33333334       0.99406767       0.53652000 </v>
   <v>       0.66666669       0.32740104       0.00000000 </v>
   <v>       0.66666669       0.16073437       0.26825997 </v>
   <v>       0.66666669       0.99406767       0.53652000 </v>
   <v>       0.00000000       0.66073442       0.00000000 </v>
   <v>       0.00000000       0.49406770       0.26825997 </v>
   <v>       0.00000000       0.32740104       0.53652000 </v>
   <v>       0.33333334       0.66073442       0.00000000 </v>
   <v>       0.33333334       0.49406770       0.26825997 </v>
   <v>       0.33333334       0.32740104       0.53652000 </v>
   <v>       0.66666669       0.66073442       0.00000000 </v>
   <v>       0.66666669       0.49406770       0.26825997 </v>
   <v>       0.66666669       0.32740104       0.53652000 </v>
   <v>       0.08333334       0.07740105       0.13413000 </v>
   <v>       0.08333334       0.91073436       0.40238991 </v>
   <v>       0.08333334       0.74406767       0.67064995 </v>
   <v>       0.41666669       0.07740105       0.13413000 </v>
   <v>       0.41666669       0.91073436       0.40238991 </v>
   <v>       0.41666669       0.74406767       0.67064995 </v>
   <v>       0.75000000       0.07740105       0.13413000 </v>
   <v>       0.75000000       0.91073436       0.40238991 </v>
   <v>       0.75000000       0.74406767       0.67064995 </v>
   <v>       0.08333334       0.41073436       0.13413000 </v>
   <v>       0.08333334       0.24406767       0.40238991 </v>
   <v>       0.08333334       0.07740098       0.67064995 </v>
   <v>       0.41666669       0.41073436       0.13413000 </v>
   <v>       0.41666669       0.24406767       0.40238991 </v>
   <v>       0.41666669       0.07740098       0.67064995 </v>
   <v>       0.75000000       0.41073436       0.13413000 </v>
   <v>       0.75000000       0.24406767       0.40238991 </v>
   <v>       0.75000000       0.07740098       0.67064995 </v>
   <v>       0.08333334       0.74406773       0.13413000 </v>
   <v>       0.08333334       0.57740104       0.40238991 </v>
   <v>       0.08333334       0.41073436       0.67064995 </v>
   <v>       0.41666669       0.74406773       0.13413000 </v>
   <v>       0.41666669       0.57740104       0.40238991 </v>
   <v>       0.41666669       0.41073436       0.67064995 </v>
   <v>       0.75000000       0.74406773       0.13413000 </v>
   <v>       0.75000000       0.57740104       0.40238991 </v>
   <v>       0.75000000       0.41073436       0.67064995 </v>
   <v>       0.16666667       0.16073438       0.00000000 </v>
   <v>       0.16666667       0.99406767       0.26825997 </v>
   <v>       0.16666667       0.82740098       0.53652000 </v>
   <v>       0.50000000       0.16073438       0.00000000 </v>
   <v>       0.50000000       0.99406767       0.26825997 </v>
   <v>       0.50000000       0.82740098       0.53652000 </v>
   <v>       0.83333337       0.16073438       0.00000000 </v>
   <v>       0.83333337       0.99406767       0.26825997 </v>
   <v>       0.83333337       0.82740098       0.53652000 </v>
   <v>       0.16666667       0.49406770       0.00000000 </v>
   <v>       0.16666667       0.32740104       0.26825997 </v>
   <v>       0.16666667       0.16073431       0.53652000 </v>
   <v>       0.50000000       0.49406770       0.00000000 </v>
   <v>       0.50000000       0.32740104       0.26825997 </v>
   <v>       0.50000000       0.16073431       0.53652000 </v>
   <v>       0.83333337       0.49406770       0.00000000 </v>
   <v>       0.83333337       0.32740104       0.26825997 </v>
   <v>       0.83333337       0.16073431       0.53652000 </v>
   <v>       0.16666667       0.82740104       0.00000000 </v>
   <v>       0.16666667       0.66073436       0.26825997 </v>
   <v>       0.16666667       0.49406764       0.53652000 </v>
   <v>       0.50000000       0.82740104       0.00000000 </v>
   <v>       0.50000000       0.66073436       0.26825997 </v>
   <v>       0.50000000       0.49406764       0.53652000 </v>
   <v>       0.83333337       0.82740104       0.00000000 </v>
   <v>       0.83333337       0.66073436       0.26825997 </v>
   <v>       0.83333337       0.49406764       0.53652000 </v>
   <v>       0.25000000       0.24406771       0.13413000 </v>
   <v>       0.25000000       0.07740103       0.40238991 </v>
   <v>       0.25000000       0.91073436       0.67064995 </v>
   <v>       0.58333337       0.24406771       0.13413000 </v>
   <v>       0.58333337       0.07740103       0.40238991 </v>
   <v>       0.58333337       0.91073436       0.67064995 </v>
   <v>       0.91666669       0.24406771       0.13413000 </v>
   <v>       0.91666669       0.07740103       0.40238991 </v>
   <v>       0.91666669       0.91073436       0.67064995 </v>
   <v>       0.25000000       0.57740116       0.13413000 </v>
   <v>       0.25000000       0.41073445       0.40238991 </v>
   <v>       0.25000000       0.24406774       0.67064995 </v>
   <v>       0.58333337       0.57740116       0.13413000 </v>
   <v>       0.58333337       0.41073445       0.40238991 </v>
   <v>       0.58333337       0.24406774       0.67064995 </v>
   <v>       0.91666669       0.57740116       0.13413000 </v>
   <v>       0.91666669       0.41073445       0.40238991 </v>
   <v>       0.91666669       0.24406774       0.67064995 </v>
   <v>       0.25000000       0.91073436       0.13413000 </v>
   <v>       0.25000000       0.74406767       0.40238991 </v>
   <v>       0.25000000       0.57740104       0.67064995 </v>
   <v>       0.58333337       0.91073436       0.13413000 </v>
   <v>       0.58333337       0.74406767       0.40238991 </v>
   <v>       0.58333337       0.57740104       0.67064995 </v>
   <v>       0.91666669       0.91073436       0.13413000 </v>
   <v>       0.91666669       0.74406767       0.40238991 </v>
   <v>       0.91666669       0.57740104       0.67064995 </v>
   <v>       0.41323769       0.91002428       0.67065000 </v>
   <v>       0.03823772       0.52113533       0.73652005 </v>
   <v>       0.66323775       0.13224643       0.80238998 </v>
   <v>       0.28823781       0.74335754       0.86826003 </v>
   <v>       0.91323781       0.35446858       0.93413007 </v>
   <v>       0.53823769       0.96557951       0.00000000 </v>
   <v>       0.91323775       0.91002428       0.67065000 </v>
   <v>       0.53823781       0.52113533       0.73652005 </v>
   <v>       0.16323775       0.13224638       0.80238998 </v>
   <v>       0.78823781       0.74335754       0.86826003 </v>
   <v>       0.41323793       0.35446858       0.93413007 </v>
   <v>       0.03823781       0.96557951       0.00000000 </v>
   <v>       0.78823769       0.66002423       0.67065000 </v>
   <v>       0.41323775       0.27113533       0.73652005 </v>
   <v>       0.03823778       0.88224638       0.80238998 </v>
   <v>       0.66323787       0.49335754       0.86826015 </v>
   <v>       0.28823799       0.10446864       0.93413007 </v>
   <v>       0.91323769       0.71557951       0.00000000 </v>
   <v>       0.28823769       0.66002423       0.67065000 </v>
   <v>       0.91323775       0.27113527       0.73652005 </v>
   <v>       0.53823775       0.88224632       0.80238998 </v>
   <v>       0.16323781       0.49335748       0.86826003 </v>
   <v>       0.78823793       0.10446852       0.93413007 </v>
   <v>       0.41323769       0.71557939       0.00000000 </v>
   <v>       0.53823769       0.66002423       0.67065000 </v>
   <v>       0.16323771       0.27113530       0.73652005 </v>
   <v>       0.78823775       0.88224632       0.80238998 </v>
   <v>       0.41323781       0.49335748       0.86826003 </v>
   <v>       0.03823793       0.10446858       0.93413007 </v>
   <v>       0.66323769       0.71557939       0.00000000 </v>
   <v>       0.03823770       0.66002423       0.67065000 </v>
   <v>       0.66323775       0.27113533       0.73652005 </v>
   <v>       0.28823775       0.88224638       0.80238998 </v>
   <v>       0.91323781       0.49335748       0.86826015 </v>
   <v>       0.53823793       0.10446858       0.93413007 </v>
   <v>       0.16323781       0.71557951       0.00000000 </v>
   <v>       0.66323763       0.91002428       0.67065000 </v>
   <v>       0.28823769       0.52113533       0.73652005 </v>
   <v>       0.91323769       0.13224643       0.80238998 </v>
   <v>       0.53823781       0.74335742       0.86826003 </v>
   <v>       0.16323793       0.35446858       0.93413007 </v>
   <v>       0.78823769       0.96557951       0.00000000 </v>
   <v>       0.16323771       0.91002428       0.67065000 </v>
   <v>       0.78823775       0.52113533       0.73652005 </v>
   <v>       0.41323781       0.13224643       0.80238998 </v>
   <v>       0.03823787       0.74335754       0.86826003 </v>
   <v>       0.66323793       0.35446858       0.93413007 </v>
   <v>       0.28823769       0.96557951       0.00000000 </v>
  </varray>
 </structure>
 <calculation>
  <scstep>
   <time name="dav">   34.73   35.02</time>
   <time name="total">   36.23   36.53</time>
   <energy>
    <i name="alphaZ">    743.66360518 </i>
    <i name="ewald"> -12771.44206302 </i>
    <i name="hartreedc">  -1640.73834414 </i>
    <i name="XCdc">  -1323.24719014 </i>
    <i name="pawpsdc">  13748.33917439 </i>
    <i name="pawaedc"> -11152.86130582 </i>
    <i name="eentropy">     -0.00041772 </i>
    <i name="bandstr">   3822.38598491 </i>
    <i name="atom">  16170.99902962 </i>
    <i name="e_fr_energy">   7597.09847325 </i>
    <i name="e_wo_entrp">   7597.09889097 </i>
    <i name="e_0_energy">   7597.09868211 </i>
   </energy>
  </scstep>
  <scstep>
   <time name="dav">   39.42   39.76</time>
   <time name="total">   39.42   39.76</time>
   <energy>
    <i name="e_fr_energy">   4326.17443371 </i>
    <i name="e_wo_entrp">   4326.17785072 </i>
    <i name="e_0_energy">   4326.17614222 </i>
   </energy>
  </scstep>
  <scstep>
   <time name="dav">   42.35   42.70</time>
   <time name="total">   42.35   42.70</time>
   <energy>
    <i name="e_fr_energy">   3987.48805862 </i>
    <i name="e_wo_entrp">   3987.49163958 </i>
    <i name="e_0_energy">   3987.48984910 </i>
   </energy>
  </scstep>
  <scstep>
   <time name="dav">   40.14   40.48</time>
   <time name="total">   40.15   40.48</time>
   <energy>
    <i name="e_fr_energy">   3970.34720676 </i>
    <i name="e_wo_entrp">   3970.35025126 </i>
    <i name="e_0_energy">   3970.34872901 </i>
   </energy>
  </scstep>
  <scstep>
   <time name="dav">   46.15   46.54</time>
   <time name="total">   47.77   48.17</time>
   <energy>
    <i name="e_fr_energy">   3969.55520910 </i>
    <i name="e_wo_entrp">   3969.55817532 </i>
    <i name="e_0_energy">   3969.55669221 </i>
   </energy>
  </scstep>
  <scstep>
   <time name="dav">   41.05   41.39</time>
   <time name="total">   44.09   44.46</time>
   <energy>
    <i name="e_fr_energy">   3941.01641624 </i>
    <i name="e_wo_entrp">   3941.01962072 </i>
    <i name="e_0_energy">   3941.01801848 </i>
   </energy>
  </scstep>
  <scstep>
   <time name="dav">   58.29   58.77</time>
   <time name="total">   61.34   61.84</time>
   <energy>
    <i name="e_fr_energy">   3732.76656293 </i>
    <i name="e_wo_entrp">   3732.76909985 </i>
    <i name="e_0_energy">   3732.76783139 </i>
   </energy>
  </scstep>
  <scstep>
   <time name="dav">   44.69   45.04</time>
   <time name="total">   47.72   48.10</time>
   <energy>
    <i name="e_fr_energy">   4113.96812064 </i>
    <i name="e_wo_entrp">   4113.97087103 </i>
    <i name="e_0_energy">   4113.96949583 </i>
   </energy>
  </scstep>
  <scstep>
   <time name="dav">   40.08   40.43</time>
   <time name="total">   43.13   43.50</time>
   <energy>
    <i name="e_fr_energy">   4081.89000441 </i>
    <i name="e_wo_entrp">   4081.89161615 </i>
    <i name="e_0_energy">   4081.89081028 </i>
   </energy>
  </scstep>
  <scstep>
   <time name="dav">   37.21   37.54</time>
   <time name="total">   40.25   40.61</time>
   <energy>
    <i name="e_fr_energy">   4077.88883045 </i>
    <i name="e_wo_entrp">   4077.89198198 </i>
    <i name="e_0_energy">   4077.89040621 </i>
   </energy>
  </scstep>
  <scstep>
   <time name="dav">   40.39   40.72</time>
   <time name="total">   43.44   43.79</time>
   <energy>
    <i name="e_fr_energy">   4080.90469438 </i>
    <i name="e_wo_entrp">   4080.90816488 </i>
    <i name="e_0_energy">   4080.90642963 </i>
   </energy>
  </scstep>
  <scstep>
   <time name="dav">   43.02   43.39</time>
   <time name="total">   46.08   46.47</time>
   <energy>
    <i name="e_fr_energy">   4076.53949172 </i>
    <i name="e_wo_entrp">   4076.54232738 </i>
    <i name="e_0_energy">   4076.54090955 </i>
   </energy>
  </scstep>
  <scstep>
   <time name="dav">   37.64   37.95</time>
   <time name="total">   40.68   41.01</time>
   <energy>
    <i name="e_fr_energy">   4078.79887479 </i>
    <i name="e_wo_entrp">   4078.80222240 </i>
    <i name="e_0_energy">   4078.80054859 </i>
   </energy>
  </scstep>
  <scstep>
   <time name="dav">   41.27   41.61</time>
   <time name="total">   44.33   44.68</time>
   <energy>
    <i name="e_fr_energy">   4081.45230631 </i>
    <i name="e_wo_entrp">   4081.45499294 </i>
    <i name="e_0_energy">   4081.45364963 </i>
   </energy>
  </scstep>
  <scstep>
   <time name="dav">   40.80   41.14</time>
   <time name="total">   43.86   44.22</time>
   <energy>
    <i name="e_fr_energy">   4081.19458512 </i>
    <i name="e_wo_entrp">   4081.19719695 </i>
    <i name="e_0_energy">   4081.19589103 </i>
   </energy>
  </scstep>
  <scstep>
   <time name="dav">   45.30   45.71</time>
   <time name="total">   48.35   48.78</time>
   <energy>
    <i name="e_fr_energy">   4081.45241411 </i>
    <i name="e_wo_entrp">   4081.45567939 </i>
    <i name="e_0_energy">   4081.45404675 </i>
   </energy>
  </scstep>
  <scstep>
   <time name="dav">   37.77   38.12</time>
   <time name="total">   40.82   41.19</time>
   <energy>
    <i name="e_fr_energy">   4081.70765818 </i>
    <i name="e_wo_entrp">   4081.71124695 </i>
    <i name="e_0_energy">   4081.70945257 </i>
   </energy>
  </scstep>
  <scstep>
   <time name="dav">   40.15   40.51</time>
   <time name="total">   43.21   43.58</time>
   <energy>
    <i name="e_fr_energy">   4081.65673595 </i>
    <i name="e_wo_entrp">   4081.66034220 </i>
    <i name="e_0_energy">   4081.65853907 </i>
   </energy>
  </scstep>
  <scstep>
   <time name="dav">   41.83   42.21</time>
   <time name="total">   44.88   45.28</time>
   <energy>
    <i name="e_fr_energy">   4081.71102857 </i>
    <i name="e_wo_entrp">   4081.71491739 </i>
    <i name="e_0_energy">   4081.71297298 </i>
   </energy>
  </scstep>
  <scstep>
   <time name="dav">   40.05   40.40</time>
   <time name="total">   43.10   43.47</time>
   <energy>
    <i name="e_fr_energy">   4081.73999308 </i>
    <i name="e_wo_entrp">   4081.74372885 </i>
    <i name="e_0_energy">   4081.74186096 </i>
   </energy>
  </scstep>
  <scstep>
   <time name="dav">   42.21   42.67</time>
   <time name="total">   45.26   45.74</time>
   <energy>
    <i name="e_fr_energy">   4081.64672750 </i>
    <i name="e_wo_entrp">   4081.64992835 </i>
    <i name="e_0_energy">   4081.64832793 </i>
   </energy>
  </scstep>
  <scstep>
   <time name="dav">   43.03   43.52</time>
   <time name="total">   46.08   46.59</time>
   <energy>
    <i name="e_fr_energy">   4081.83233742 </i>
    <i name="e_wo_entrp">   4081.83553949 </i>
    <i name="e_0_energy">   4081.83393845 </i>
   </energy>
  </scstep>
  <scstep>
   <time name="dav">   36.23   36.55</time>
   <time name="total">   39.28   39.62</time>
   <energy>
    <i name="e_fr_energy">   4081.82890853 </i>
    <i name="e_wo_entrp">   4081.83206790 </i>
    <i name="e_0_energy">   4081.83048821 </i>
   </energy>
  </scstep>
  <scstep>
   <time name="dav">   40.98   41.32</time>
   <time name="total">   44.03   44.39</time>
   <energy>
    <i name="e_fr_energy">   4081.83419142 </i>
    <i name="e_wo_entrp">   4081.83740650 </i>
    <i name="e_0_energy">   4081.83579896 </i>
   </energy>
  </scstep>
  <scstep>
   <time name="dav">   41.65   42.01</time>
   <time name="total">   44.70   45.08</time>
   <energy>
    <i name="e_fr_energy">   4081.83943014 </i>
    <i name="e_wo_entrp">   4081.84268525 </i>
    <i name="e_0_energy">   4081.84105769 </i>
   </energy>
  </scstep>
  <scstep>
   <time name="dav">   38.22   38.56</time>
   <time name="total">   41.28   41.64</time>
   <energy>
    <i name="e_fr_energy">   4081.84174756 </i>
    <i name="e_wo_entrp">   4081.84499373 </i>
    <i name="e_0_energy">   4081.84337064 </i>
   </energy>
  </scstep>
  <scstep>
   <time name="dav">   41.89   42.26</time>
   <time name="total">   44.95   45.34</time>
   <energy>
    <i name="e_fr_energy">   4081.84346758 </i>
    <i name="e_wo_entrp">   4081.84675677 </i>
    <i name="e_0_energy">   4081.84511218 </i>
   </energy>
  </scstep>
  <scstep>
   <time name="dav">   39.14   39.48</time>
   <time name="total">   42.19   42.55</time>
   <energy>
    <i name="e_fr_energy">   4081.84584605 </i>
    <i name="e_wo_entrp">   4081.84917997 </i>
    <i name="e_0_energy">   4081.84751301 </i>
   </energy>
  </scstep>
  <scstep>
   <time name="dav">   41.04   41.39</time>
   <time name="total">   44.09   44.46</time>
   <energy>
    <i name="e_fr_energy">   4081.84778330 </i>
    <i name="e_wo_entrp">   4081.85122298 </i>
    <i name="e_0_energy">   4081.84950314 </i>
   </energy>
  </scstep>
  <scstep>
   <time name="dav">   40.25   40.65</time>
   <time name="total">   43.30   43.72</time>
   <energy>
    <i name="e_fr_energy">   4081.84866351 </i>
    <i name="e_wo_entrp">   4081.85212773 </i>
    <i name="e_0_energy">   4081.85039562 </i>
   </energy>
  </scstep>
  <scstep>
   <time name="dav">   41.52   41.87</time>
   <time name="total">   44.58   44.95</time>
   <energy>
    <i name="e_fr_energy">   4081.84846288 </i>
    <i name="e_wo_entrp">   4081.85192602 </i>
    <i name="e_0_energy">   4081.85019445 </i>
   </energy>
  </scstep>
  <scstep>
   <time name="dav">   37.86   38.21</time>
   <time name="total">   40.92   41.29</time>
   <energy>
    <i name="e_fr_energy">   4081.84893034 </i>
    <i name="e_wo_entrp">   4081.85238109 </i>
    <i name="e_0_energy">   4081.85065571 </i>
   </energy>
  </scstep>
  <scstep>
   <time name="dav">   42.72   43.10</time>
   <time name="total">   45.77   46.18</time>
   <energy>
    <i name="e_fr_energy">   4081.84924619 </i>
    <i name="e_wo_entrp">   4081.85268008 </i>
    <i name="e_0_energy">   4081.85096313 </i>
   </energy>
  </scstep>
  <scstep>
   <time name="dav">   38.43   38.76</time>
   <time name="total">   41.49   41.84</time>
   <energy>
    <i name="e_fr_energy">   4081.84920485 </i>
    <i name="e_wo_entrp">   4081.85263653 </i>
    <i name="e_0_energy">   4081.85092069 </i>
   </energy>
  </scstep>
  <scstep>
   <time name="dav">   38.62   38.94</time>
   <time name="total">   41.68   42.02</time>
   <energy>
    <i name="e_fr_energy">   4081.84927124 </i>
    <i name="e_wo_entrp">   4081.85269946 </i>
    <i name="e_0_energy">   4081.85098535 </i>
   </energy>
  </scstep>
  <scstep>
   <time name="dav">   40.69   41.08</time>
   <time name="total">   43.75   44.16</time>
   <energy>
    <i name="e_fr_energy">   4081.84928837 </i>
    <i name="e_wo_entrp">   4081.85270966 </i>
    <i name="e_0_energy">   4081.85099902 </i>
   </energy>
  </scstep>
  <scstep>
   <time name="dav">   42.30   42.68</time>
   <time name="total">   45.37   45.76</time>
   <energy>
    <i name="e_fr_energy">   4081.84929296 </i>
    <i name="e_wo_entrp">   4081.85270598 </i>
    <i name="e_0_energy">   4081.85099947 </i>
   </energy>
  </scstep>
  <scstep>
   <time name="dav">   41.99   42.34</time>
   <time name="total">   45.05   45.43</time>
   <energy>
    <i name="e_fr_energy">   4081.84929417 </i>
    <i name="e_wo_entrp">   4081.85270210 </i>
    <i name="e_0_energy">   4081.85099813 </i>
   </energy>
  </scstep>
  <scstep>
   <time name="dav">   37.27   37.59</time>
   <time name="total">   40.34   40.68</time>
   <energy>
    <i name="e_fr_energy">   4081.84929345 </i>
    <i name="e_wo_entrp">   4081.85270188 </i>
    <i name="e_0_energy">   4081.85099766 </i>
   </energy>
  </scstep>
  <scstep>
   <time name="dav">   41.71   42.06</time>
   <time name="total">   44.77   45.15</time>
   <energy>
    <i name="e_fr_energy">   4081.84929204 </i>
    <i name="e_wo_entrp">   4081.85269969 </i>
    <i name="e_0_energy">   4081.85099586 </i>
   </energy>
  </scstep>
  <scstep>
   <time name="dav">   36.99   37.30</time>
   <time name="total">   40.05   40.38</time>
   <energy>
    <i name="e_fr_energy">   4081.84929219 </i>
    <i name="e_wo_entrp">   4081.85270018 </i>
    <i name="e_0_energy">   4081.85099619 </i>
   </energy>
  </scstep>
  <scstep>
   <time name="dav">   38.35   38.68</time>
   <time name="total">   41.41   41.76</time>
   <energy>
    <i name="e_fr_energy">   4081.84929234 </i>
    <i name="e_wo_entrp">   4081.85270152 </i>
    <i name="e_0_energy">   4081.85099693 </i>
   </energy>
  </scstep>
  <scstep>
   <time name="dav">   30.46   30.72</time>
   <time name="total">   31.91   32.18</time>
   <energy>
    <i name="alphaZ">    743.66360518 </i>
    <i name="ewald"> -12771.44206302 </i>
    <i name="hartreedc">  -1983.52526867 </i>
    <i name="XCdc">  -1272.19322697 </i>
    <i name="pawpsdc"> 904580.76279990 </i>
    <i name="pawaedc">-902057.66020787 </i>
    <i name="eentropy">     -0.00340955 </i>
    <i name="bandstr">    671.24803378 </i>
    <i name="atom">  16170.99902962 </i>
    <i name="e_fr_energy">   4081.84929240 </i>
    <i name="e_wo_entrp">   4081.85270195 </i>
    <i name="e_0_energy">   4081.85099718 </i>
   </energy>
  </scstep>
  <structure>
   <crystal>
    <varray name="basis" >
     <v>      16.29300118       0.00000000       0.00000000 </v>
     <v>       0.00000000      16.29300118       0.00000000 </v>
     <v>       0.00000000       0.00000000      10.12264442 </v>
    </varray>
    <i name="volume">   2687.17629315 </i>
    <varray name="rec_basis" >
     <v>       0.06137605       0.00000000       0.00000000 </v>
     <v>       0.00000000       0.06137605       0.00000000 </v>
     <v>       0.00000000       0.00000000       0.09878842 </v>
    </varray>
   </crystal>
   <varray name="positions" >
    <v>       0.00000000       0.99406773       0.00000000 </v>
    <v>       0.00000000       0.82740104       0.26825997 </v>
    <v>       0.00000000       0.66073430       0.53652000 </v>
    <v>       0.33333334       0.99406773       0.00000000 </v>
    <v>       0.33333334       0.82740104       0.26825997 </v>
    <v>       0.33333334       0.66073430       0.53652000 </v>
    <v>       0.66666669       0.99406773       0.00000000 </v>
    <v>       0.66666669       0.82740104       0.26825997 </v>
    <v>       0.66666669       0.66073430       0.53652000 </v>
    <v>       0.00000000       0.32740104       0.00000000 </v>
    <v>       0.00000000       0.16073437       0.26825997 </v>
    <v>       0.00000000       0.99406767       0.53652000 </v>
    <v>       0.33333334       0.32740104       0.00000000 </v>
    <v>       0.33333334       0.16073437       0.26825997 </v>
    <v>       0.33333334       0.99406767       0.53652000 </v>
    <v>       0.66666669       0.32740104       0.00000000 </v>
    <v>       0.66666669       0.16073437       0.26825997 </v>
    <v>       0.66666669       0.99406767       0.53652000 </v>
    <v>       0.00000000       0.66073442       0.00000000 </v>
    <v>       0.00000000       0.49406770       0.26825997 </v>
    <v>       0.00000000       0.32740104       0.53652000 </v>
    <v>       0.33333334       0.66073442       0.00000000 </v>
    <v>       0.33333334       0.49406770       0.26825997 </v>
    <v>       0.33333334       0.32740104       0.53652000 </v>
    <v>       0.66666669       0.66073442       0.00000000 </v>
    <v>       0.66666669       0.49406770       0.26825997 </v>
    <v>       0.66666669       0.32740104       0.53652000 </v>
    <v>       0.08333334       0.07740105       0.13413000 </v>
    <v>       0.08333334       0.91073436       0.40238991 </v>
    <v>       0.08333334       0.74406767       0.67064995 </v>
    <v>       0.41666669       0.07740105       0.13413000 </v>
    <v>       0.41666669       0.91073436       0.40238991 </v>
    <v>       0.41666669       0.74406767       0.67064995 </v>
    <v>       0.75000000       0.07740105       0.13413000 </v>
    <v>       0.75000000       0.91073436       0.40238991 </v>
    <v>       0.75000000       0.74406767       0.67064995 </v>
    <v>       0.08333334       0.41073436       0.13413000 </v>
    <v>       0.08333334       0.24406767       0.40238991 </v>
    <v>       0.08333334       0.07740098       0.67064995 </v>
    <v>       0.41666669       0.41073436       0.13413000 </v>
    <v>       0.41666669       0.24406767       0.40238991 </v>
    <v>       0.41666669       0.07740098       0.67064995 </v>
    <v>       0.75000000       0.41073436       0.13413000 </v>
    <v>       0.75000000       0.24406767       0.40238991 </v>
    <v>       0.75000000       0.07740098       0.67064995 </v>
    <v>       0.08333334       0.74406773       0.13413000 </v>
    <v>       0.08333334       0.57740104       0.40238991 </v>
    <v>       0.08333334       0.41073436       0.67064995 </v>
    <v>       0.41666669       0.74406773       0.13413000 </v>
    <v>       0.41666669       0.57740104       0.40238991 </v>
    <v>       0.41666669       0.41073436       0.67064995 </v>
    <v>       0.75000000       0.74406773       0.13413000 </v>
    <v>       0.75000000       0.57740104       0.40238991 </v>
    <v>       0.75000000       0.41073436       0.67064995 </v>
    <v>       0.16666667       0.16073438       0.00000000 </v>
    <v>       0.16666667       0.99406767       0.26825997 </v>
    <v>       0.16666667       0.82740098       0.53652000 </v>
    <v>       0.50000000       0.16073438       0.00000000 </v>
    <v>       0.50000000       0.99406767       0.26825997 </v>
    <v>       0.50000000       0.82740098       0.53652000 </v>
    <v>       0.83333337       0.16073438       0.00000000 </v>
    <v>       0.83333337       0.99406767       0.26825997 </v>
    <v>       0.83333337       0.82740098       0.53652000 </v>
    <v>       0.16666667       0.49406770       0.00000000 </v>
    <v>       0.16666667       0.32740104       0.26825997 </v>
    <v>       0.16666667       0.16073431       0.53652000 </v>
    <v>       0.50000000       0.49406770       0.00000000 </v>
    <v>       0.50000000       0.32740104       0.26825997 </v>
    <v>       0.50000000       0.16073431       0.53652000 </v>
    <v>       0.83333337       0.49406770       0.00000000 </v>
    <v>       0.83333337       0.32740104       0.26825997 </v>
    <v>       0.83333337       0.16073431       0.53652000 </v>
    <v>       0.16666667       0.82740104       0.00000000 </v>
    <v>       0.16666667       0.66073436       0.26825997 </v>
    <v>       0.16666667       0.49406764       0.53652000 </v>
    <v>       0.50000000       0.82740104       0.00000000 </v>
    <v>       0.50000000       0.66073436       0.26825997 </v>
    <v>       0.50000000       0.49406764       0.53652000 </v>
    <v>       0.83333337       0.82740104       0.00000000 </v>
    <v>       0.83333337       0.66073436       0.26825997 </v>
    <v>       0.83333337       0.49406764       0.53652000 </v>
    <v>       0.25000000       0.24406771       0.13413000 </v>
    <v>       0.25000000       0.07740103       0.40238991 </v>
    <v>       0.25000000       0.91073436       0.67064995 </v>
    <v>       0.58333337       0.24406771       0.13413000 </v>
    <v>       0.58333337       0.07740103       0.40238991 </v>
    <v>       0.58333337       0.91073436       0.67064995 </v>
    <v>       0.91666669       0.24406771       0.13413000 </v>
    <v>       0.91666669       0.07740103       0.40238991 </v>
    <v>       0.91666669       0.91073436       0.67064995 </v>
    <v>       0.25000000       0.57740116       0.13413000 </v>
    <v>       0.25000000       0.41073445       0.40238991 </v>
    <v>       0.25000000       0.24406774       0.67064995 </v>
    <v>       0.58333337       0.57740116       0.13413000 </v>
    <v>       0.58333337       0.41073445       0.40238991 </v>
    <v>       0.58333337       0.24406774       0.67064995 </v>
    <v>       0.91666669       0.57740116       0.13413000 </v>
    <v>       0.91666669       0.41073445       0.40238991 </v>
    <v>       0.91666669       0.24406774       0.67064995 </v>
    <v>       0.25000000       0.91073436       0.13413000 </v>
    <v>       0.25000000       0.74406767       0.40238991 </v>
    <v>       0.25000000       0.57740104       0.67064995 </v>
    <v>       0.58333337       0.91073436       0.13413000 </v>
    <v>       0.58333337       0.74406767       0.40238991 </v>
    <v>       0.58333337       0.57740104       0.67064995 </v>
    <v>       0.91666669       0.91073436       0.13413000 </v>
    <v>       0.91666669       0.74406767       0.40238991 </v>
    <v>       0.91666669       0.57740104       0.67064995 </v>
    <v>       0.41323769       0.91002428       0.67065000 </v>
    <v>       0.03823772       0.52113533       0.73652005 </v>
    <v>       0.66323775       0.13224643       0.80238998 </v>
    <v>       0.28823781       0.74335754       0.86826003 </v>
    <v>       0.91323781       0.35446858       0.93413007 </v>
    <v>       0.53823769       0.96557951       0.00000000 </v>
    <v>       0.91323775       0.91002428       0.67065000 </v>
    <v>       0.53823781       0.52113533       0.73652005 </v>
    <v>       0.16323775       0.13224638       0.80238998 </v>
    <v>       0.78823781       0.74335754       0.86826003 </v>
    <v>       0.41323793       0.35446858       0.93413007 </v>
    <v>       0.03823781       0.96557951       0.00000000 </v>
    <v>       0.78823769       0.66002423       0.67065000 </v>
    <v>       0.41323775       0.27113533       0.73652005 </v>
    <v>       0.03823778       0.88224638       0.80238998 </v>
    <v>       0.66323787       0.49335754       0.86826015 </v>
    <v>       0.28823799       0.10446864       0.93413007 </v>
    <v>       0.91323769       0.71557951       0.00000000 </v>
    <v>       0.28823769       0.66002423       0.67065000 </v>
    <v>       0.91323775       0.27113527       0.73652005 </v>
    <v>       0.53823775       0.88224632       0.80238998 </v>
    <v>       0.16323781       0.49335748       0.86826003 </v>
    <v>       0.78823793       0.10446852       0.93413007 </v>
    <v>       0.41323769       0.71557939       0.00000000 </v>
    <v>       0.53823769       0.66002423       0.67065000 </v>
    <v>       0.16323771       0.27113530       0.73652005 </v>
    <v>       0.78823775       0.88224632       0.80238998 </v>
    <v>       0.41323781       0.49335748       0.86826003 </v>
    <v>       0.03823793       0.10446858       0.93413007 </v>
    <v>       0.66323769       0.71557939       0.00000000 </v>
    <v>       0.03823770       0.66002423       0.67065000 </v>
    <v>       0.66323775       0.27113533       0.73652005 </v>
    <v>       0.28823775       0.88224638       0.80238998 </v>
    <v>       0.91323781       0.49335748       0.86826015 </v>
    <v>       0.53823793       0.10446858       0.93413007 </v>
    <v>       0.16323781       0.71557951       0.00000000 </v>
    <v>       0.66323763       0.91002428       0.67065000 </v>
    <v>       0.28823769       0.52113533       0.73652005 </v>
    <v>       0.91323769       0.13224643       0.80238998 </v>
    <v>       0.53823781       0.74335742       0.86826003 </v>
    <v>       0.16323793       0.35446858       0.93413007 </v>
    <v>       0.78823769       0.96557951       0.00000000 </v>
    <v>       0.16323771       0.91002428       0.67065000 </v>
    <v>       0.78823775       0.52113533       0.73652005 </v>
    <v>       0.41323781       0.13224643       0.80238998 </v>
    <v>       0.03823787       0.74335754       0.86826003 </v>
    <v>       0.66323793       0.35446858       0.93413007 </v>
    <v>       0.28823769       0.96557951       0.00000000 </v>
   </varray>
  </structure>
  <varray name="forces" >
   <v>    -284.16906032     205.03975680       2.16804511 </v>
   <v>       0.14950849      -0.01929573       0.36380393 </v>
   <v>     -21.20092878       0.88046653     -47.57541358 </v>
   <v>     234.75065596     143.46088981       1.59549030 </v>
   <v>       0.14191169       0.14882594       0.22687681 </v>
   <v>      20.42040920       1.45370040     -38.37321650 </v>
   <v>      -1.69908364       2.25600702      -0.01953411 </v>
   <v>       0.14407934      -0.01626782       0.28091474 </v>
   <v>      -0.37716733      -0.29248770      -1.76144656 </v>
   <v>      27.89189513      -8.74369715      13.49618193 </v>
   <v>      -0.01475878      -0.06735644       0.33675412 </v>
   <v>      -1.52484263      -1.20543376       0.90039077 </v>
   <v>     -38.61878572     -12.72885771      20.14841578 </v>
   <v>       0.05334177      -0.19571724       0.17350361 </v>
   <v>      -0.70691249       1.49378945      -1.70720566 </v>
   <v>      23.24087776    -184.95057701     280.25133645 </v>
   <v>       0.07869384       0.13015431       0.14106875 </v>
   <v>       1.27677086       6.97273512      -7.29101540 </v>
   <v>      19.19065856     -19.31913134       4.65080242 </v>
   <v>      -0.01570835       0.18516518       0.39021633 </v>
   <v>      -0.09972939       0.13825259      -0.76531102 </v>
   <v>     -27.73257852     -24.57567191       3.44623484 </v>
   <v>      -0.07137679      -0.08854336       0.19448518 </v>
   <v>      -0.50563955       0.02121878      -0.89289047 </v>
   <v>      15.67894863    -257.85137341       0.05424479 </v>
   <v>      -0.04079634      -0.00397631       0.10226796 </v>
   <v>       0.25296817       1.49811558      -3.27264601 </v>
   <v>       1.29031052       0.37256414       4.47659705 </v>
   <v>      -0.03044000       0.10086778      -0.45747999 </v>
   <v>      20.11015537      34.51189471      -3.64278926 </v>
   <v>      -0.36147192       0.28927611       0.79252447 </v>
   <v>       0.11146611      -0.02833456      -1.03736022 </v>
   <v>       0.44042813       0.61162268      -0.04037269 </v>
   <v>      -1.85714433       0.67233490       5.68444052 </v>
   <v>      -0.03893120      -0.01792236      -0.63663422 </v>
   <v>     -21.62945449      43.97201431      -4.75995693 </v>
   <v>      -0.26893555       0.02691362       1.18342001 </v>
   <v>       0.15147555      -0.11620036      -0.15642884 </v>
   <v>      -2.66481763      -1.75000280      -3.55376991 </v>
   <v>       0.40416929       1.26957091       4.08927900 </v>
   <v>      -0.03577619      -0.03800825      -0.23368269 </v>
   <v>       1.61033000     -18.79037621     -28.48200510 </v>
   <v>       0.23996091       0.12906945       0.83881015 </v>
   <v>       0.18488057       0.12002991      -0.11577818 </v>
   <v>       2.82668300      -1.67835780      -2.50620488 </v>
   <v>      -6.34173590       1.99319469       8.59941859 </v>
   <v>       0.05934637      -0.18361757      -0.61362369 </v>
   <v>       1.96861622      -4.74735729      -2.05047439 </v>
   <v>       2.53484920      20.17334151      59.91214508 </v>
   <v>       0.12631098      -0.00068059      -0.11666783 </v>
   <v>      -0.09509035       0.20491615      -1.51737011 </v>
   <v>       4.42635430       1.97309437       5.69784270 </v>
   <v>       0.27311583      -0.14916905      -0.43540619 </v>
   <v>      -2.04616353      -6.47783592      -1.95367592 </v>
   <v>      -0.06605799       2.34406668       7.06640774 </v>
   <v>       0.06652786      -0.06965644       0.43282557 </v>
   <v>      -0.32089049      -7.52907934      -7.95365048 </v>
   <v>     -46.93322806      69.71912988      51.27916684 </v>
   <v>       0.17160426       0.05280443       0.74878111 </v>
   <v>       0.51753288      -0.73120010      -2.27684864 </v>
   <v>      44.26607132      56.01334755      41.15242069 </v>
   <v>       0.41888809       0.36866311       0.58137972 </v>
   <v>       1.21815330       1.11338198      -0.32385332 </v>
   <v>       3.77803079       1.86806775      86.83491410 </v>
   <v>      -0.09459159       0.25587133       0.23327260 </v>
   <v>       0.04313869      -0.29763838      -1.49828583 </v>
   <v>       6.61797889      -0.30634186       6.73466425 </v>
   <v>      -0.13397904       0.19914723       0.14307832 </v>
   <v>       0.24892469      -0.21121999      -0.44369378 </v>
   <v>      -8.88870923       0.92827853       9.68759589 </v>
   <v>      -0.20302035      -0.14934633       0.15874684 </v>
   <v>      -0.09616710      -0.20409115      -0.61866315 </v>
   <v>      -0.26458156      15.71188051       0.24382976 </v>
   <v>      -0.05965173      -0.06125624       0.80250489 </v>
   <v>      -0.57402378      -0.20836400      -1.05004798 </v>
   <v>      -2.28595618       3.91916750       6.02280647 </v>
   <v>       0.11187954       0.03321025       0.56388357 </v>
   <v>      -1.24206211      -1.55413352      -4.02539593 </v>
   <v>       2.59363246       3.47325151       5.96113713 </v>
   <v>       0.10253609      -0.25089940       0.33939258 </v>
[...]
       <r>    -2.7735    35.7663   122.4086 </r>
       <r>    -2.7060    39.5678   125.0834 </r>
       <r>    -2.6386    34.9656   127.4453 </r>
       <r>    -2.5712    36.0759   129.8772 </r>
       <r>    -2.5038    42.8749   132.7761 </r>
       <r>    -2.4364    18.1216   134.0008 </r>
       <r>    -2.3690    40.4798   136.7421 </r>
       <r>    -2.3016    28.4118   138.6580 </r>
       <r>    -2.2342    29.8685   140.6729 </r>
       <r>    -2.1668    30.7972   142.7490 </r>
       <r>    -2.0993    41.4436   145.5493 </r>
       <r>    -2.0319    26.7497   147.3537 </r>
       <r>    -1.9645    34.9668   149.7109 </r>
       <r>    -1.8971    39.3016   152.3607 </r>
       <r>    -1.8297    35.7462   154.7706 </r>
       <r>    -1.7623    47.1507   157.9506 </r>
       <r>    -1.6949    38.6226   160.5619 </r>
       <r>    -1.6275    41.7267   163.3774 </r>
       <r>    -1.5601    34.7364   165.7220 </r>
       <r>    -1.4926    42.1938   168.5691 </r>
       <r>    -1.4252    34.0187   170.8722 </r>
       <r>    -1.3578    33.0000   173.0971 </r>
       <r>    -1.2904    33.5574   175.3706 </r>
       <r>    -1.2230    30.7579   177.4446 </r>
       <r>    -1.1556    50.9076   180.8797 </r>
       <r>    -1.0882    35.3205   183.2618 </r>
       <r>    -1.0208    31.8212   185.4125 </r>
       <r>    -0.9534    47.6976   188.6279 </r>
       <r>    -0.8859    38.8570   191.2559 </r>
       <r>    -0.8185    41.8475   194.0817 </r>
       <r>    -0.7511    42.0733   196.9205 </r>
       <r>    -0.6837    43.9441   199.8873 </r>
       <r>    -0.6163    46.8571   203.0463 </r>
       <r>    -0.5489    45.0104   206.0860 </r>
       <r>    -0.4815    46.7964   209.2525 </r>
       <r>    -0.4141    26.2944   211.0356 </r>
       <r>    -0.3467    38.7566   213.6500 </r>
       <r>    -0.2792    57.1437   217.5087 </r>
       <r>    -0.2118    34.2600   219.8298 </r>
       <r>    -0.1444    47.1352   223.0181 </r>
       <r>    -0.0770    46.3368   226.1458 </r>
       <r>    -0.0096    41.7863   228.9751 </r>
       <r>     0.0578    46.6435   232.1239 </r>
       <r>     0.1252    50.0213   235.5039 </r>
       <r>     0.1926    48.1588   238.7514 </r>
       <r>     0.2600    45.9109   241.8571 </r>
       <r>     0.3275    44.7863   244.8902 </r>
       <r>     0.3949    46.5930   248.0310 </r>
       <r>     0.4623    30.3097   250.0770 </r>
       <r>     0.5297    46.9411   253.2415 </r>
       <r>     0.5971    46.5105   256.3773 </r>
       <r>     0.6645    50.8407   259.8073 </r>
       <r>     0.7319    43.5160   262.7454 </r>
       <r>     0.7993    49.1699   266.0622 </r>
       <r>     0.8667    46.6973   269.2205 </r>
       <r>     0.9342    51.6961   272.7090 </r>
       <r>     1.0016    42.1765   275.5548 </r>
       <r>     1.0690    47.3657   278.7490 </r>
       <r>     1.1364    50.8561   282.1802 </r>
       <r>     1.2038    54.3978   285.8483 </r>
       <r>     1.2712    43.8339   288.8118 </r>
       <r>     1.3386    46.4772   291.9449 </r>
       <r>     1.4060    45.9596   295.0543 </r>
       <r>     1.4734    57.8238   298.9525 </r>
       <r>     1.5409    47.4226   302.1556 </r>
       <r>     1.6083    50.8467   305.5858 </r>
       <r>     1.6757    45.7291   308.6844 </r>
       <r>     1.7431    44.0199   311.6522 </r>
       <r>     1.8105    65.6926   316.0877 </r>
       <r>     1.8779    42.3653   318.9437 </r>
       <r>     1.9453    57.9603   322.8568 </r>
       <r>     2.0127    41.7319   325.6721 </r>
       <r>     2.0801    54.8315   329.3754 </r>
       <r>     2.1476    60.1030   333.4281 </r>
       <r>     2.2150    49.8264   336.7929 </r>
       <r>     2.2824    52.5021   340.3369 </r>
       <r>     2.3498    52.9231   343.9128 </r>
       <r>     2.4172    53.4330   347.5169 </r>
       <r>     2.4846    47.1049   350.6928 </r>
       <r>     2.5520    54.8532   354.3967 </r>
       <r>     2.6194    56.4835   358.2063 </r>
       <r>     2.6868    60.2968   362.2719 </r>
       <r>     2.7543    51.5682   365.7588 </r>
       <r>     2.8217    50.5992   369.1701 </r>
       <r>     2.8891    69.3888   373.8482 </r>
       <r>     2.9565    54.3146   377.5102 </r>
       <r>     3.0239    49.5158   380.8548 </r>
       <r>     3.0913    63.7193   385.1614 </r>
       <r>     3.1587    67.2812   389.7061 </r>
       <r>     3.2261    61.9476   393.8854 </r>
       <r>     3.2935    63.8519   398.1897 </r>
       <r>     3.3610    63.3638   402.4650 </r>
       <r>     3.4284    64.5785   406.8241 </r>
       <r>     3.4958    64.0990   411.1520 </r>
       <r>     3.5632    63.3110   415.4308 </r>
       <r>     3.6306    58.4186   419.3729 </r>
       <r>     3.6980    67.8175   423.9468 </r>
       <r>     3.7654    69.5741   428.6414 </r>
       <r>     3.8328    71.8547   433.4861 </r>
       <r>     3.9002    66.8232   437.9934 </r>
       <r>     3.9677    61.5900   442.1583 </r>
       <r>     4.0351    71.9746   447.0131 </r>
       <r>     4.1025    67.7425   451.5858 </r>
       <r>     4.1699    64.0563   455.9100 </r>
       <r>     4.2373    57.5968   459.8002 </r>
       <r>     4.3047    71.7375   464.6450 </r>
       <r>     4.3721    63.3310   468.9208 </r>
       <r>     4.4395    63.5733   473.2192 </r>
       <r>     4.5069    57.9948   477.1371 </r>
       <r>     4.5743    66.5294   481.6327 </r>
       <r>     4.6418    53.4335   485.2427 </r>
       <r>     4.7092    61.1370   489.3733 </r>
       <r>     4.7766    54.4319   493.0466 </r>
       <r>     4.8440    62.0019   497.2415 </r>
       <r>     4.9114    57.8522   501.1442 </r>
       <r>     4.9788    72.1978   506.0140 </r>
       <r>     5.0462    51.0864   509.4728 </r>
       <r>     5.1136    56.2808   513.2697 </r>
       <r>     5.1810    50.7857   516.7012 </r>
       <r>     5.2485    67.0255   521.2237 </r>
       <r>     5.3159    47.1401   524.4171 </r>
       <r>     5.3833    53.6109   528.0313 </r>
       <r>     5.4507    62.7801   532.2638 </r>
       <r>     5.5181    60.3667   536.3548 </r>
       <r>     5.5855    49.6267   539.7057 </r>
       <r>     5.6529    43.7175   542.6528 </r>
       <r>     5.7203    52.2382   546.1772 </r>
       <r>     5.7877    62.5681   550.3958 </r>
       <r>     5.8552    51.8907   553.8944 </r>
       <r>     5.9226    44.8379   556.9347 </r>
       <r>     5.9900    64.3591   561.2737 </r>
       <r>     6.0574    44.9374   564.3055 </r>
       <r>     6.1248    50.1918   567.6919 </r>
       <r>     6.1922    49.5019   571.0373 </r>
       <r>     6.2596    59.8452   575.0842 </r>
       <r>     6.3270    47.2633   578.2706 </r>
       <r>     6.3944    45.5490   581.3465 </r>
       <r>     6.4619    50.2424   584.7409 </r>
       <r>     6.5293    54.2811   588.4017 </r>
       <r>     6.5967    56.3353   592.2114 </r>
       <r>     6.6641    54.8470   595.9142 </r>
       <r>     6.7315    51.7932   599.4056 </r>
       <r>     6.7989    44.9816   602.4452 </r>
       <r>     6.8663    65.2915   606.8498 </r>
       <r>     6.9337    40.7138   609.5971 </r>
       <r>     7.0011    47.7693   612.8245 </r>
       <r>     7.0686    60.3981   616.8967 </r>
       <r>     7.1360    58.5655   620.8447 </r>
       <r>     7.2034    59.7407   624.8833 </r>
       <r>     7.2708    55.3305   628.6146 </r>
       <r>     7.3382    54.3007   632.2826 </r>
       <r>     7.4056    49.5228   635.6249 </r>
       <r>     7.4730    59.2751   639.6242 </r>
       <r>     7.5404    45.0808   642.6794 </r>
       <r>     7.6078    57.2353   646.5403 </r>
       <r>     7.6753    66.1358   650.9992 </r>
       <r>     7.7427    48.7309   654.2856 </r>
       <r>     7.8101    59.9179   658.3290 </r>
       <r>     7.8775    63.1461   662.5859 </r>
       <r>     7.9449    59.6742   666.6147 </r>
       <r>     8.0123    69.7368   671.3336 </r>
       <r>     8.0797    49.2264   674.6641 </r>
       <r>     8.1471    57.3820   678.5391 </r>
       <r>     8.2145    70.5022   683.3097 </r>
       <r>     8.2820    55.8941   687.0852 </r>
       <r>     8.3494    68.6029   691.7098 </r>
       <r>     8.4168    58.1399   695.6297 </r>
       <r>     8.4842    59.9266   699.6716 </r>
       <r>     8.5516    71.7080   704.5078 </r>
       <r>     8.6190    56.7644   708.3350 </r>
       <r>     8.6864    70.9513   713.1212 </r>
       <r>     8.7538    77.9915   718.3819 </r>
       <r>     8.8212    66.3047   722.8577 </r>
       <r>     8.8887    75.8972   727.9925 </r>
       <r>     8.9561    79.2555   733.3495 </r>
       <r>     9.0235    73.6917   738.3254 </r>
       <r>     9.0909    84.0053   744.0000 </r>
       <r>     9.1583    70.1435   748.7370 </r>
       <r>     9.2257    43.3306   751.6646 </r>
       <r>     9.2931     4.9431   752.0000 </r>
       <r>     9.3605     0.0000   752.0000 </r>
       <r>     9.4279     0.0000   752.0000 </r>
       <r>     9.4954     0.0000   752.0000 </r>
       <r>     9.5628     0.0000   752.0000 </r>
       <r>     9.6302     0.0000   752.0000 </r>
       <r>     9.6976     0.0000   752.0000 </r>
       <r>     9.7650     0.0000   752.0000 </r>
       <r>     9.8324     0.0000   752.0000 </r>
       <r>     9.8998     0.0000   752.0000 </r>
       <r>     9.9672     0.0000   752.0000 </r>
       <r>    10.0346     0.0000   752.0000 </r>
       <r>    10.1021     0.0000   752.0000 </r>
       <r>    10.1695     0.0000   752.0000 </r>
      </set>
     </set>
    </array>
   </total>
  </dos>
 </calculation>
 <structure name="finalpos" >
  <crystal>
   <varray name="basis" >
    <v>      16.29300118       0.00000000       0.00000000 </v>
    <v>       0.00000000      16.29300118       0.00000000 </v>
    <v>       0.00000000       0.00000000      10.12264442 </v>
   </varray>
   <i name="volume">   2687.17629315 </i>
   <varray name="rec_basis" >
    <v>       0.06137605       0.00000000       0.00000000 </v>
    <v>       0.00000000       0.06137605       0.00000000 </v>
    <v>       0.00000000       0.00000000       0.09878842 </v>
   </varray>
  </crystal>
  <varray name="positions" >
   <v>       0.00000000       0.99406773       0.00000000 </v>
   <v>       0.00000000       0.82740104       0.26825997 </v>
   <v>       0.00000000       0.66073430       0.53652000 </v>
   <v>       0.33333334       0.99406773       0.00000000 </v>
   <v>       0.33333334       0.82740104       0.26825997 </v>
   <v>       0.33333334       0.66073430       0.53652000 </v>
   <v>       0.66666669       0.99406773       0.00000000 </v>
   <v>       0.66666669       0.82740104       0.26825997 </v>
   <v>       0.66666669       0.66073430       0.53652000 </v>
   <v>       0.00000000       0.32740104       0.00000000 </v>
   <v>       0.00000000       0.16073437       0.26825997 </v>
   <v>       0.00000000       0.99406767       0.53652000 </v>
   <v>       0.33333334       0.32740104       0.00000000 </v>
   <v>       0.33333334       0.16073437       0.26825997 </v>
   <v>       0.33333334       0.99406767       0.53652000 </v>
   <v>       0.66666669       0.32740104       0.00000000 </v>
   <v>       0.66666669       0.16073437       0.26825997 </v>
   <v>       0.66666669       0.99406767       0.53652000 </v>
   <v>       0.00000000       0.66073442       0.00000000 </v>
   <v>       0.00000000       0.49406770       0.26825997 </v>
   <v>       0.00000000       0.32740104       0.53652000 </v>
   <v>       0.33333334       0.66073442       0.00000000 </v>
   <v>       0.33333334       0.49406770       0.26825997 </v>
   <v>       0.33333334       0.32740104       0.53652000 </v>
   <v>       0.66666669       0.66073442       0.00000000 </v>
   <v>       0.66666669       0.49406770       0.26825997 </v>
   <v>       0.66666669       0.32740104       0.53652000 </v>
   <v>       0.08333334       0.07740105       0.13413000 </v>
   <v>       0.08333334       0.91073436       0.40238991 </v>
   <v>       0.08333334       0.74406767       0.67064995 </v>
   <v>       0.41666669       0.07740105       0.13413000 </v>
   <v>       0.41666669       0.91073436       0.40238991 </v>
   <v>       0.41666669       0.74406767       0.67064995 </v>
   <v>       0.75000000       0.07740105       0.13413000 </v>
   <v>       0.75000000       0.91073436       0.40238991 </v>
   <v>       0.75000000       0.74406767       0.67064995 </v>
   <v>       0.08333334       0.41073436       0.13413000 </v>
   <v>       0.08333334       0.24406767       0.40238991 </v>
   <v>       0.08333334       0.07740098       0.67064995 </v>
   <v>       0.41666669       0.41073436       0.13413000 </v>
   <v>       0.41666669       0.24406767       0.40238991 </v>
   <v>       0.41666669       0.07740098       0.67064995 </v>
   <v>       0.75000000       0.41073436       0.13413000 </v>
   <v>       0.75000000       0.24406767       0.40238991 </v>
   <v>       0.75000000       0.07740098       0.67064995 </v>
   <v>       0.08333334       0.74406773       0.13413000 </v>
   <v>       0.08333334       0.57740104       0.40238991 </v>
   <v>       0.08333334       0.41073436       0.67064995 </v>
   <v>       0.41666669       0.74406773       0.13413000 </v>
   <v>       0.41666669       0.57740104       0.40238991 </v>
   <v>       0.41666669       0.41073436       0.67064995 </v>
   <v>       0.75000000       0.74406773       0.13413000 </v>
   <v>       0.75000000       0.57740104       0.40238991 </v>
   <v>       0.75000000       0.41073436       0.67064995 </v>
   <v>       0.16666667       0.16073438       0.00000000 </v>
   <v>       0.16666667       0.99406767       0.26825997 </v>
   <v>       0.16666667       0.82740098       0.53652000 </v>
   <v>       0.50000000       0.16073438       0.00000000 </v>
   <v>       0.50000000       0.99406767       0.26825997 </v>
   <v>       0.50000000       0.82740098       0.53652000 </v>
   <v>       0.83333337       0.16073438       0.00000000 </v>
   <v>       0.83333337       0.99406767       0.26825997 </v>
   <v>       0.83333337       0.82740098       0.53652000 </v>
   <v>       0.16666667       0.49406770       0.00000000 </v>
   <v>       0.16666667       0.32740104       0.26825997 </v>
   <v>       0.16666667       0.16073431       0.53652000 </v>
   <v>       0.50000000       0.49406770       0.00000000 </v>
   <v>       0.50000000       0.32740104       0.26825997 </v>
   <v>       0.50000000       0.16073431       0.53652000 </v>
   <v>       0.83333337       0.49406770       0.00000000 </v>
   <v>       0.83333337       0.32740104       0.26825997 </v>
   <v>       0.83333337       0.16073431       0.53652000 </v>
   <v>       0.16666667       0.82740104       0.00000000 </v>
   <v>       0.16666667       0.66073436       0.26825997 </v>
   <v>       0.16666667       0.49406764       0.53652000 </v>
   <v>       0.50000000       0.82740104       0.00000000 </v>
   <v>       0.50000000       0.66073436       0.26825997 </v>
   <v>       0.50000000       0.49406764       0.53652000 </v>
   <v>       0.83333337       0.82740104       0.00000000 </v>
   <v>       0.83333337       0.66073436       0.26825997 </v>
   <v>       0.83333337       0.49406764       0.53652000 </v>
   <v>       0.25000000       0.24406771       0.13413000 </v>
   <v>       0.25000000       0.07740103       0.40238991 </v>
   <v>       0.25000000       0.91073436       0.67064995 </v>
   <v>       0.58333337       0.24406771       0.13413000 </v>
   <v>       0.58333337       0.07740103       0.40238991 </v>
   <v>       0.58333337       0.91073436       0.67064995 </v>
   <v>       0.91666669       0.24406771       0.13413000 </v>
   <v>       0.91666669       0.07740103       0.40238991 </v>
   <v>       0.91666669       0.91073436       0.67064995 </v>
   <v>       0.25000000       0.57740116       0.13413000 </v>
   <v>       0.25000000       0.41073445       0.40238991 </v>
   <v>       0.25000000       0.24406774       0.67064995 </v>
   <v>       0.58333337       0.57740116       0.13413000 </v>
   <v>       0.58333337       0.41073445       0.40238991 </v>
   <v>       0.58333337       0.24406774       0.67064995 </v>
   <v>       0.91666669       0.57740116       0.13413000 </v>
   <v>       0.91666669       0.41073445       0.40238991 </v>
   <v>       0.91666669       0.24406774       0.67064995 </v>
   <v>       0.25000000       0.91073436       0.13413000 </v>
   <v>       0.25000000       0.74406767       0.40238991 </v>
   <v>       0.25000000       0.57740104       0.67064995 </v>
   <v>       0.58333337       0.91073436       0.13413000 </v>
   <v>       0.58333337       0.74406767       0.40238991 </v>
   <v>       0.58333337       0.57740104       0.67064995 </v>
   <v>       0.91666669       0.91073436       0.13413000 </v>
   <v>       0.91666669       0.74406767       0.40238991 </v>
   <v>       0.91666669       0.57740104       0.67064995 </v>
   <v>       0.41323769       0.91002428       0.67065000 </v>
   <v>       0.03823772       0.52113533       0.73652005 </v>
   <v>       0.66323775       0.13224643       0.80238998 </v>
   <v>       0.28823781       0.74335754       0.86826003 </v>
   <v>       0.91323781       0.35446858       0.93413007 </v>
   <v>       0.53823769       0.96557951       0.00000000 </v>
   <v>       0.91323775       0.91002428       0.67065000 </v>
   <v>       0.53823781       0.52113533       0.73652005 </v>
   <v>       0.16323775       0.13224638       0.80238998 </v>
   <v>       0.78823781       0.74335754       0.86826003 </v>
   <v>       0.41323793       0.35446858       0.93413007 </v>
   <v>       0.03823781       0.96557951       0.00000000 </v>
   <v>       0.78823769       0.66002423       0.67065000 </v>
   <v>       0.41323775       0.27113533       0.73652005 </v>
   <v>       0.03823778       0.88224638       0.80238998 </v>
   <v>       0.66323787       0.49335754       0.86826015 </v>
   <v>       0.28823799       0.10446864       0.93413007 </v>
   <v>       0.91323769       0.71557951       0.00000000 </v>
   <v>       0.28823769       0.66002423       0.67065000 </v>
   <v>       0.91323775       0.27113527       0.73652005 </v>
   <v>       0.53823775       0.88224632       0.80238998 </v>
   <v>       0.16323781       0.49335748       0.86826003 </v>
   <v>       0.78823793       0.10446852       0.93413007 </v>
   <v>       0.41323769       0.71557939       0.00000000 </v>
   <v>       0.53823769       0.66002423       0.67065000 </v>
   <v>       0.16323771       0.27113530       0.73652005 </v>
   <v>       0.78823775       0.88224632       0.80238998 </v>
   <v>       0.41323781       0.49335748       0.86826003 </v>
   <v>       0.03823793       0.10446858       0.93413007 </v>
   <v>       0.66323769       0.71557939       0.00000000 </v>
   <v>       0.03823770       0.66002423       0.67065000 </v>
   <v>       0.66323775       0.27113533       0.73652005 </v>
   <v>       0.28823775       0.88224638       0.80238998 </v>
   <v>       0.91323781       0.49335748       0.86826015 </v>
   <v>       0.53823793       0.10446858       0.93413007 </v>
   <v>       0.16323781       0.71557951       0.00000000 </v>
   <v>       0.66323763       0.91002428       0.67065000 </v>
   <v>       0.28823769       0.52113533       0.73652005 </v>
   <v>       0.91323769       0.13224643       0.80238998 </v>
   <v>       0.53823781       0.74335742       0.86826003 </v>
   <v>       0.16323793       0.35446858       0.93413007 </v>
   <v>       0.78823769       0.96557951       0.00000000 </v>
   <v>       0.16323771       0.91002428       0.67065000 </v>
   <v>       0.78823775       0.52113533       0.73652005 </v>
   <v>       0.41323781       0.13224643       0.80238998 </v>
   <v>       0.03823787       0.74335754       0.86826003 </v>
   <v>       0.66323793       0.35446858       0.93413007 </v>
   <v>       0.28823769       0.96557951       0.00000000 </v>
  </varray>
 </structure>
</modeling>
