 120 120   0   0
  0.1318225E+02  0.1330318E-08  0.1629300E-08  0.7994749E-09  0.5000000E-15
  1.000000000000000E-004
  CAR 
 Si and Ge interface calculation         
      7.73457806    -14.88031032  301      4.32939090      1.00000000
    -14.880  0.0000E+00  0.0000E+00  0.0000E+00  0.0000E+00
    -14.805  0.0000E+00  0.0000E+00  0.0000E+00  0.0000E+00
    -14.730  0.0000E+00  0.0000E+00  0.0000E+00  0.0000E+00
    -14.654  0.0000E+00  0.0000E+00  0.0000E+00  0.0000E+00
    -14.579  0.0000E+00  0.0000E+00  0.0000E+00  0.0000E+00
    -14.503  0.0000E+00  0.0000E+00  0.0000E+00  0.0000E+00
    -14.428  0.0000E+00  0.0000E+00  0.0000E+00  0.0000E+00
    -14.353  0.0000E+00  0.0000E+00  0.0000E+00  0.0000E+00
    -14.277  0.0000E+00  0.0000E+00  0.0000E+00  0.0000E+00
    -14.202  0.0000E+00  0.0000E+00  0.0000E+00  0.0000E+00
    -14.126  0.0000E+00  0.0000E+00  0.0000E+00  0.0000E+00
    -14.051  0.0000E+00  0.0000E+00  0.0000E+00  0.0000E+00
    -13.976  0.0000E+00  0.0000E+00  0.0000E+00  0.0000E+00
    -13.900  0.1509E-10  0.9205E-15  0.1138E-11  0.6939E-16
    -13.825  0.4422E+01  0.4395E+01  0.3333E+00  0.3313E+00
    -13.750  0.1382E+02  0.1216E+02  0.1375E+01  0.1250E+01
    -13.674  0.1260E+02  0.1339E+02  0.2333E+01  0.2322E+01
    -13.599  0.1036E+01  0.6185E-01  0.2411E+01  0.2338E+01
    -13.523  0.2549E+02  0.2647E+02  0.4333E+01  0.4333E+01
    -13.448  0.7345E+01  0.3586E+01  0.4887E+01  0.4604E+01
    -13.373  0.1241E+02  0.1445E+02  0.5936E+01  0.5693E+01
    -13.297  0.1297E+02  0.1374E+02  0.6977E+01  0.6729E+01
    -13.222  0.1356E+02  0.1685E+02  0.8000E+01  0.8000E+01
    -13.147  0.1436E+02  0.1183E+02  0.9082E+01  0.8892E+01
    -13.071  0.7647E+01  0.8726E+01  0.9667E+01  0.9667E+01
    -12.996  0.2120E-02  0.6631E-05  0.9667E+01  0.9667E+01
    -12.920  0.2577E+02  0.2293E+02  0.1161E+02  0.1140E+02
    -12.845  0.2116E+02  0.1982E+02  0.1320E+02  0.1289E+02
    -12.770  0.1353E+02  0.1641E+02  0.1435E+02  0.1413E+02
    -12.694  0.1227E+02  0.1197E+02  0.1529E+02  0.1503E+02
    -12.619  0.9433E+01  0.1241E+02  0.1600E+02  0.1600E+02
    -12.543  0.1768E+02  0.1769E+02  0.1733E+02  0.1733E+02
    -12.468  0.8843E+01  0.8709E+01  0.1800E+02  0.1799E+02
    -12.393  0.6631E+01  0.2562E+01  0.1850E+02  0.1819E+02
    -12.317  0.9433E+01  0.1509E+02  0.1933E+02  0.1933E+02
    -12.242  0.2449E+02  0.2179E+02  0.2118E+02  0.2098E+02
    -12.167  0.2317E+02  0.2253E+02  0.2293E+02  0.2275E+02
    -12.091  0.4773E+01  0.3538E+01  0.2336E+02  0.2306E+02
    -12.016  0.8627E+01  0.1242E+02  0.2401E+02  0.2400E+02
    -11.940  0.5448E+01  0.4467E+01  0.2442E+02  0.2434E+02
    -11.865  0.8432E+01  0.7387E+01  0.2506E+02  0.2489E+02
    -11.790  0.1228E+02  0.1467E+02  0.2600E+02  0.2600E+02
    -11.714  0.7204E+01  0.5419E+01  0.2654E+02  0.2641E+02
    -11.639  0.1023E+02  0.1064E+02  0.2731E+02  0.2724E+02
    -11.563  0.0000E+00  0.0000E+00  0.2733E+02  0.2733E+02
    -11.488  0.1701E+01  0.2189E+00  0.2746E+02  0.2735E+02
    -11.413  0.1155E+02  0.1280E+02  0.2833E+02  0.2831E+02
    -11.337  0.8004E+01  0.5193E+01  0.2894E+02  0.2872E+02
    -11.262  0.8843E+01  0.1249E+02  0.2967E+02  0.2967E+02
    -11.187  0.6873E-13  0.0000E+00  0.2967E+02  0.2967E+02
    -11.111  0.1986E+02  0.1150E+02  0.3116E+02  0.3053E+02
    -11.036  0.2469E+02  0.2892E+02  0.3305E+02  0.3277E+02
    -10.960  0.2314E+02  0.2444E+02  0.3480E+02  0.3462E+02
    -10.885  0.1610E+02  0.1757E+02  0.3603E+02  0.3600E+02
    -10.810  0.4053E+01  0.4385E+01  0.3633E+02  0.3633E+02
    -10.734  0.8586E+01  0.6257E+01  0.3698E+02  0.3681E+02
    -10.659  0.8834E+01  0.1143E+02  0.3767E+02  0.3767E+02
    -10.583  0.1767E+02  0.1733E+02  0.3900E+02  0.3897E+02
    -10.508  0.1912E+02  0.1296E+02  0.4044E+02  0.3998E+02
    -10.433  0.7734E+00  0.9234E+01  0.4072E+02  0.4067E+02
    -10.357  0.3901E+02  0.3924E+02  0.4367E+02  0.4363E+02
    -10.282  0.0000E+00  0.0000E+00  0.4367E+02  0.4367E+02
    -10.207  0.6409E+01  0.2220E+01  0.4415E+02  0.4383E+02
    -10.131  0.1900E+01  0.6624E+01  0.4433E+02  0.4433E+02
    -10.056  0.3261E+01  0.1205E+01  0.4458E+02  0.4442E+02
     -9.980  0.1801E+02  0.1844E+02  0.4596E+02  0.4581E+02
     -9.905  0.5420E+01  0.4724E+01  0.4641E+02  0.4617E+02
     -9.830  0.1669E+02  0.1985E+02  0.4767E+02  0.4767E+02
     -9.754  0.4422E+01  0.4420E+01  0.4800E+02  0.4800E+02
     -9.679  0.2140E+02  0.1396E+02  0.4961E+02  0.4905E+02
     -9.604  0.2173E+02  0.2952E+02  0.5133E+02  0.5130E+02
     -9.528  0.1331E+02  0.1180E+02  0.5234E+02  0.5222E+02
     -9.453  0.1651E+02  0.1476E+02  0.5359E+02  0.5335E+02
     -9.377  0.2385E+02  0.2271E+02  0.5539E+02  0.5507E+02
     -9.302  0.1730E+02  0.2124E+02  0.5669E+02  0.5667E+02
     -9.227  0.1535E+02  0.1327E+02  0.5785E+02  0.5767E+02
     -9.151  0.3289E+02  0.3182E+02  0.6033E+02  0.6007E+02
     -9.076  0.1274E+02  0.7986E+01  0.6129E+02  0.6082E+02
     -9.000  0.4383E+02  0.4456E+02  0.6463E+02  0.6417E+02
     -8.925  0.2192E+02  0.2664E+02  0.6633E+02  0.6629E+02
     -8.850  0.4421E+01  0.4320E+01  0.6667E+02  0.6666E+02
     -8.774  0.1522E+02  0.7727E+01  0.6781E+02  0.6725E+02
     -8.699  0.1158E+02  0.1752E+02  0.6871E+02  0.6861E+02
     -8.624  0.2145E+02  0.2131E+02  0.7033E+02  0.7027E+02
     -8.548  0.1665E+02  0.4817E+01  0.7159E+02  0.7070E+02
     -8.473  0.2261E+02  0.3478E+02  0.7333E+02  0.7333E+02
     -8.397  0.1413E-03  0.2534E-07  0.7333E+02  0.7333E+02
     -8.322  0.3684E+02  0.3062E+02  0.7611E+02  0.7564E+02
     -8.247  0.1232E+02  0.1576E+02  0.7711E+02  0.7687E+02
     -8.171  0.1210E+02  0.1496E+02  0.7805E+02  0.7800E+02
     -8.096  0.3443E+02  0.3420E+02  0.8064E+02  0.8058E+02
     -8.020  0.9100E+01  0.8872E+01  0.8133E+02  0.8128E+02
     -7.945  0.1143E+02  0.6301E+01  0.8220E+02  0.8181E+02
     -7.870  0.3042E-09  0.6578E+01  0.8233E+02  0.8233E+02
     -7.794  0.4419E+01  0.4275E+01  0.8267E+02  0.8266E+02
     -7.719  0.4422E+01  0.4379E+01  0.8300E+02  0.8300E+02
     -7.644  0.0000E+00  0.0000E+00  0.8300E+02  0.8300E+02
     -7.568  0.2275E-08  0.1146E-12  0.8300E+02  0.8300E+02
     -7.493  0.7503E+01  0.5102E+01  0.8357E+02  0.8338E+02
     -7.417  0.5763E+01  0.8158E+01  0.8400E+02  0.8400E+02
     -7.342  0.5420E-01  0.3101E-02  0.8400E+02  0.8400E+02
     -7.267  0.1341E+02  0.1292E+02  0.8502E+02  0.8497E+02
     -7.191  0.4605E+01  0.4467E+01  0.8536E+02  0.8534E+02
     -7.116  0.4032E+01  0.4370E+01  0.8567E+02  0.8567E+02
     -7.040  0.1326E+02  0.1314E+02  0.8667E+02  0.8666E+02
     -6.965  0.8841E+01  0.8770E+01  0.8733E+02  0.8733E+02
     -6.890  0.8841E+01  0.8844E+01  0.8800E+02  0.8800E+02
     -6.814  0.1373E+02  0.1331E+02  0.8903E+02  0.8900E+02
     -6.739  0.8383E+01  0.8783E+01  0.8967E+02  0.8967E+02
     -6.664  0.9605E+01  0.8519E+01  0.9039E+02  0.9031E+02
     -6.588  0.1047E+02  0.1109E+02  0.9118E+02  0.9116E+02
     -6.513  0.1634E+02  0.1657E+02  0.9242E+02  0.9242E+02
     -6.437  0.7080E+01  0.5196E+01  0.9295E+02  0.9281E+02
     -6.362  0.2688E+02  0.2565E+02  0.9503E+02  0.9477E+02
     -6.287  0.2492E+02  0.2486E+02  0.9695E+02  0.9667E+02
     -6.211  0.2302E+02  0.2583E+02  0.9873E+02  0.9862E+02
     -6.136  0.4113E+02  0.3757E+02  0.1019E+03  0.1015E+03
     -6.061  0.1787E+02  0.2152E+02  0.1033E+03  0.1031E+03
     -5.985  0.1586E+02  0.1402E+02  0.1045E+03  0.1042E+03
     -5.910  0.2397E+02  0.2453E+02  0.1063E+03  0.1060E+03
     -5.834  0.2257E+02  0.2092E+02  0.1080E+03  0.1077E+03
     -5.759  0.2437E+02  0.2787E+02  0.1098E+03  0.1098E+03
     -5.684  0.2605E+02  0.2412E+02  0.1118E+03  0.1116E+03
     -5.608  0.3730E+02  0.3645E+02  0.1146E+03  0.1144E+03
     -5.533  0.2774E+02  0.2844E+02  0.1167E+03  0.1165E+03
     -5.457  0.2903E+02  0.2985E+02  0.1189E+03  0.1188E+03
     -5.382  0.3353E+02  0.3079E+02  0.1215E+03  0.1211E+03
     -5.307  0.2178E+02  0.2200E+02  0.1232E+03  0.1228E+03
     -5.231  0.3181E+02  0.3432E+02  0.1256E+03  0.1254E+03
     -5.156  0.2975E+02  0.2751E+02  0.1278E+03  0.1275E+03
     -5.081  0.3511E+02  0.3747E+02  0.1305E+03  0.1304E+03
     -5.005  0.2883E+02  0.2717E+02  0.1327E+03  0.1325E+03
     -4.930  0.3337E+02  0.3274E+02  0.1353E+03  0.1351E+03
     -4.854  0.2724E+02  0.2795E+02  0.1373E+03  0.1372E+03
     -4.779  0.1848E+02  0.1417E+02  0.1387E+03  0.1383E+03
     -4.704  0.2142E+02  0.2460E+02  0.1404E+03  0.1402E+03
     -4.628  0.3388E+02  0.3188E+02  0.1430E+03  0.1426E+03
     -4.553  0.3266E+02  0.3585E+02  0.1455E+03  0.1453E+03
     -4.477  0.3039E+02  0.2620E+02  0.1478E+03  0.1474E+03
     -4.402  0.2902E+02  0.3153E+02  0.1500E+03  0.1497E+03
     -4.327  0.3386E+02  0.3302E+02  0.1526E+03  0.1522E+03
     -4.251  0.2528E+02  0.2767E+02  0.1545E+03  0.1543E+03
     -4.176  0.2974E+02  0.2785E+02  0.1568E+03  0.1565E+03
     -4.101  0.2516E+02  0.2897E+02  0.1587E+03  0.1587E+03
     -4.025  0.2600E+02  0.2434E+02  0.1607E+03  0.1605E+03
     -3.950  0.3322E+02  0.3398E+02  0.1632E+03  0.1631E+03
     -3.874  0.3940E+02  0.3905E+02  0.1662E+03  0.1660E+03
     -3.799  0.2584E+02  0.2373E+02  0.1682E+03  0.1678E+03
     -3.724  0.2597E+02  0.2700E+02  0.1702E+03  0.1699E+03
     -3.648  0.2579E+02  0.2645E+02  0.1722E+03  0.1720E+03
     -3.573  0.2123E+02  0.1961E+02  0.1738E+03  0.1735E+03
     -3.497  0.3620E+02  0.3787E+02  0.1766E+03  0.1764E+03
     -3.422  0.2095E+02  0.2307E+02  0.1782E+03  0.1782E+03
     -3.347  0.3501E+02  0.3276E+02  0.1808E+03  0.1806E+03
     -3.271  0.1575E+02  0.1413E+02  0.1821E+03  0.1818E+03
     -3.196  0.3154E+02  0.2976E+02  0.1845E+03  0.1841E+03
     -3.121  0.2242E+02  0.2620E+02  0.1862E+03  0.1860E+03
     -3.045  0.2981E+02  0.2771E+02  0.1885E+03  0.1882E+03
     -2.970  0.3128E+02  0.3005E+02  0.1908E+03  0.1905E+03
     -2.894  0.2411E+02  0.2635E+02  0.1927E+03  0.1925E+03
     -2.819  0.3212E+02  0.3148E+02  0.1952E+03  0.1949E+03
     -2.744  0.1517E+02  0.1682E+02  0.1963E+03  0.1962E+03
     -2.668  0.1702E+02  0.1787E+02  0.1977E+03  0.1975E+03
     -2.593  0.3545E+02  0.3290E+02  0.2003E+03  0.2000E+03
     -2.518  0.2316E+02  0.2540E+02  0.2022E+03  0.2019E+03
     -2.442  0.3594E+02  0.3479E+02  0.2049E+03  0.2046E+03
     -2.367  0.3945E+02  0.3820E+02  0.2079E+03  0.2075E+03
     -2.291  0.2926E+02  0.3033E+02  0.2102E+03  0.2099E+03
     -2.216  0.2779E+02  0.2748E+02  0.2123E+03  0.2120E+03
     -2.141  0.3453E+02  0.3094E+02  0.2149E+03  0.2144E+03
     -2.065  0.2276E+02  0.2810E+02  0.2167E+03  0.2166E+03
     -1.990  0.3430E+02  0.3359E+02  0.2193E+03  0.2191E+03
     -1.914  0.4702E+02  0.4442E+02  0.2229E+03  0.2225E+03
     -1.839  0.2943E+02  0.2792E+02  0.2251E+03  0.2247E+03
     -1.764  0.4031E+02  0.3826E+02  0.2282E+03  0.2276E+03
     -1.688  0.3352E+02  0.4071E+02  0.2308E+03  0.2307E+03
     -1.613  0.2930E+02  0.2537E+02  0.2330E+03  0.2327E+03
     -1.538  0.4743E+02  0.4606E+02  0.2366E+03  0.2362E+03
     -1.462  0.3695E+02  0.3740E+02  0.2395E+03  0.2390E+03
     -1.387  0.4090E+02  0.4129E+02  0.2426E+03  0.2422E+03
     -1.311  0.4200E+02  0.4415E+02  0.2458E+03  0.2456E+03
     -1.236  0.3335E+02  0.3098E+02  0.2484E+03  0.2479E+03
     -1.161  0.4809E+02  0.4600E+02  0.2520E+03  0.2514E+03
     -1.085  0.4016E+02  0.4284E+02  0.2551E+03  0.2548E+03
     -1.010  0.4723E+02  0.4684E+02  0.2587E+03  0.2583E+03
     -0.934  0.2021E+02  0.2279E+02  0.2603E+03  0.2601E+03
     -0.859  0.3419E+02  0.3226E+02  0.2629E+03  0.2626E+03
     -0.784  0.4232E+02  0.4089E+02  0.2662E+03  0.2657E+03
     -0.708  0.3770E+02  0.3977E+02  0.2690E+03  0.2687E+03
     -0.633  0.3070E+02  0.3134E+02  0.2714E+03  0.2711E+03
     -0.558  0.3446E+02  0.3287E+02  0.2740E+03  0.2736E+03
     -0.482  0.3397E+02  0.3607E+02  0.2766E+03  0.2764E+03
     -0.407  0.3740E+02  0.3650E+02  0.2795E+03  0.2792E+03
     -0.331  0.3268E+02  0.2932E+02  0.2819E+03  0.2814E+03
     -0.256  0.3139E+02  0.3432E+02  0.2843E+03  0.2841E+03
     -0.181  0.2977E+02  0.3025E+02  0.2866E+03  0.2863E+03
     -0.105  0.3329E+02  0.3317E+02  0.2891E+03  0.2889E+03
     -0.030  0.4143E+02  0.3944E+02  0.2922E+03  0.2919E+03
      0.046  0.4478E+02  0.4548E+02  0.2957E+03  0.2953E+03
      0.121  0.3299E+02  0.3171E+02  0.2982E+03  0.2978E+03
      0.196  0.3638E+02  0.3704E+02  0.3010E+03  0.3006E+03
      0.272  0.4355E+02  0.4274E+02  0.3043E+03  0.3039E+03
      0.347  0.4381E+02  0.4286E+02  0.3077E+03  0.3071E+03
      0.422  0.3653E+02  0.3974E+02  0.3104E+03  0.3102E+03
      0.498  0.3967E+02  0.3715E+02  0.3135E+03  0.3130E+03
      0.573  0.3976E+02  0.4084E+02  0.3166E+03  0.3161E+03
      0.649  0.4004E+02  0.4074E+02  0.3197E+03  0.3192E+03
      0.724  0.4145E+02  0.3883E+02  0.3228E+03  0.3221E+03
      0.799  0.2197E+02  0.2634E+02  0.3246E+03  0.3242E+03
      0.875  0.3439E+02  0.3253E+02  0.3272E+03  0.3267E+03
      0.950  0.3869E+02  0.4106E+02  0.3302E+03  0.3298E+03
      1.025  0.3162E+02  0.3212E+02  0.3326E+03  0.3323E+03
      1.101  0.4268E+02  0.4236E+02  0.3359E+03  0.3355E+03
      1.176  0.4484E+02  0.4382E+02  0.3393E+03  0.3389E+03
      1.252  0.4556E+02  0.4289E+02  0.3427E+03  0.3422E+03
      1.327  0.3298E+02  0.2930E+02  0.3453E+03  0.3445E+03
      1.402  0.4476E+02  0.4639E+02  0.3487E+03  0.3481E+03
      1.478  0.3740E+02  0.3830E+02  0.3516E+03  0.3510E+03
      1.553  0.4187E+02  0.4237E+02  0.3548E+03  0.3542E+03
      1.629  0.4845E+02  0.4741E+02  0.3585E+03  0.3579E+03
      1.704  0.3882E+02  0.4461E+02  0.3614E+03  0.3612E+03
      1.779  0.3993E+02  0.3455E+02  0.3644E+03  0.3638E+03
      1.855  0.5599E+02  0.5280E+02  0.3687E+03  0.3678E+03
      1.930  0.5016E+02  0.5440E+02  0.3726E+03  0.3720E+03
      2.005  0.4848E+02  0.4778E+02  0.3764E+03  0.3756E+03
      2.081  0.3540E+02  0.3578E+02  0.3791E+03  0.3784E+03
      2.156  0.4465E+02  0.4414E+02  0.3825E+03  0.3818E+03
      2.232  0.4217E+02  0.4403E+02  0.3858E+03  0.3852E+03
      2.307  0.4770E+02  0.5060E+02  0.3895E+03  0.3890E+03
      2.382  0.4429E+02  0.4140E+02  0.3929E+03  0.3921E+03
      2.458  0.4307E+02  0.4790E+02  0.3962E+03  0.3958E+03
      2.533  0.5337E+02  0.4164E+02  0.4002E+03  0.3990E+03
      2.609  0.4879E+02  0.6272E+02  0.4040E+03  0.4038E+03
      2.684  0.4488E+02  0.3556E+02  0.4074E+03  0.4065E+03
      2.759  0.5280E+02  0.5158E+02  0.4114E+03  0.4105E+03
      2.835  0.3899E+02  0.3901E+02  0.4145E+03  0.4134E+03
      2.910  0.4400E+02  0.4769E+02  0.4179E+03  0.4170E+03
      2.985  0.4427E+02  0.4841E+02  0.4213E+03  0.4207E+03
      3.061  0.4960E+02  0.4722E+02  0.4251E+03  0.4244E+03
      3.136  0.3717E+02  0.4068E+02  0.4280E+03  0.4275E+03
      3.212  0.4255E+02  0.3273E+02  0.4312E+03  0.4301E+03
      3.287  0.4527E+02  0.4913E+02  0.4347E+03  0.4338E+03
      3.362  0.3227E+02  0.3784E+02  0.4372E+03  0.4367E+03
      3.438  0.3909E+02  0.3730E+02  0.4402E+03  0.4396E+03
      3.513  0.3870E+02  0.4055E+02  0.4432E+03  0.4428E+03
      3.589  0.5634E+02  0.5010E+02  0.4474E+03  0.4466E+03
      3.664  0.4046E+02  0.4042E+02  0.4505E+03  0.4496E+03
      3.739  0.5322E+02  0.5171E+02  0.4546E+03  0.4536E+03
      3.815  0.3342E+02  0.4031E+02  0.4572E+03  0.4567E+03
      3.890  0.4808E+02  0.4290E+02  0.4609E+03  0.4600E+03
      3.965  0.3855E+02  0.3687E+02  0.4638E+03  0.4628E+03
      4.041  0.4427E+02  0.4950E+02  0.4672E+03  0.4666E+03
      4.116  0.4495E+02  0.3525E+02  0.4707E+03  0.4693E+03
      4.192  0.3710E+02  0.4262E+02  0.4735E+03  0.4727E+03
      4.267  0.4749E+02  0.4569E+02  0.4772E+03  0.4762E+03
      4.342  0.5036E+02  0.4363E+02  0.4810E+03  0.4795E+03
      4.418  0.5317E+02  0.5346E+02  0.4851E+03  0.4836E+03
      4.493  0.4960E+02  0.5163E+02  0.4889E+03  0.4875E+03
      4.568  0.5437E+02  0.5180E+02  0.4930E+03  0.4915E+03
      4.644  0.3647E+02  0.4653E+02  0.4959E+03  0.4951E+03
      4.719  0.4845E+02  0.4382E+02  0.4996E+03  0.4985E+03
      4.795  0.3537E+02  0.3578E+02  0.5023E+03  0.5012E+03
      4.870  0.3817E+02  0.4929E+02  0.5053E+03  0.5049E+03
      4.945  0.5437E+02  0.4794E+02  0.5094E+03  0.5086E+03
      5.021  0.3999E+02  0.3679E+02  0.5124E+03  0.5115E+03
      5.096  0.4844E+02  0.4733E+02  0.5161E+03  0.5151E+03
      5.172  0.3154E+02  0.3488E+02  0.5186E+03  0.5178E+03
      5.247  0.4949E+02  0.4894E+02  0.5223E+03  0.5215E+03
      5.322  0.3785E+02  0.3926E+02  0.5252E+03  0.5245E+03
      5.398  0.4413E+02  0.3917E+02  0.5286E+03  0.5275E+03
      5.473  0.3704E+02  0.4383E+02  0.5314E+03  0.5308E+03
      5.548  0.3403E+02  0.3573E+02  0.5340E+03  0.5336E+03
      5.624  0.4383E+02  0.3942E+02  0.5373E+03  0.5366E+03
      5.699  0.3733E+02  0.3960E+02  0.5401E+03  0.5396E+03
      5.775  0.3888E+02  0.2963E+02  0.5431E+03  0.5419E+03
      5.850  0.3617E+02  0.4614E+02  0.5458E+03  0.5454E+03
      5.925  0.2972E+02  0.2544E+02  0.5480E+03  0.5474E+03
      6.001  0.3870E+02  0.3573E+02  0.5510E+03  0.5502E+03
      6.076  0.3917E+02  0.3949E+02  0.5540E+03  0.5532E+03
      6.152  0.3647E+02  0.3601E+02  0.5567E+03  0.5560E+03
      6.227  0.4575E+02  0.4861E+02  0.5602E+03  0.5597E+03
      6.302  0.3461E+02  0.3424E+02  0.5628E+03  0.5623E+03
      6.378  0.3855E+02  0.3580E+02  0.5657E+03  0.5650E+03
      6.453  0.4388E+02  0.3849E+02  0.5691E+03  0.5680E+03
      6.528  0.3504E+02  0.4248E+02  0.5718E+03  0.5712E+03
      6.604  0.2969E+02  0.2897E+02  0.5740E+03  0.5734E+03
      6.679  0.2412E+02  0.2641E+02  0.5759E+03  0.5754E+03
      6.755  0.1535E+01  0.6877E+01  0.5760E+03  0.5760E+03
      6.830  0.0000E+00  0.0000E+00  0.5760E+03  0.5760E+03
      6.905  0.0000E+00  0.0000E+00  0.5760E+03  0.5760E+03
      6.981  0.0000E+00  0.0000E+00  0.5760E+03  0.5760E+03
      7.056  0.0000E+00  0.0000E+00  0.5760E+03  0.5760E+03
      7.132  0.0000E+00  0.0000E+00  0.5760E+03  0.5760E+03
      7.207  0.0000E+00  0.0000E+00  0.5760E+03  0.5760E+03
      7.282  0.0000E+00  0.0000E+00  0.5760E+03  0.5760E+03
      7.358  0.0000E+00  0.0000E+00  0.5760E+03  0.5760E+03
      7.433  0.0000E+00  0.0000E+00  0.5760E+03  0.5760E+03
      7.508  0.0000E+00  0.0000E+00  0.5760E+03  0.5760E+03
      7.584  0.0000E+00  0.0000E+00  0.5760E+03  0.5760E+03
      7.659  0.0000E+00  0.0000E+00  0.5760E+03  0.5760E+03
      7.735  0.0000E+00  0.0000E+00  0.5760E+03  0.5760E+03
