<?xml version="1.0" encoding="ISO-8859-1"?>
<modeling>
 <generator>
  <i name="program" type="string">vasp </i>
  <i name="version" type="string">6.4.3  </i>
  <i name="subversion" type="string">19Mar24 (build Oct 22 2024 11:23:12) complex                          parallel </i>
  <i name="platform" type="string">LinuxIFC </i>
  <i name="date" type="string">2025 06 04 </i>
  <i name="time" type="string">05:50:03 </i>
 </generator>
 <incar>
  <i type="string" name="SYSTEM">Si and Ge interface calculation</i>
  <i type="int" name="ISTART">     0</i>
  <i type="logical" name="ADDGRID"> T  </i>
  <i type="int" name="ISPIN">     2</i>
  <i name="AMIX">      0.60000000</i>
  <i type="int" name="ICHARG">     2</i>
  <i type="int" name="NELM">   100</i>
  <i name="EDIFF">      0.00000010</i>
  <i name="ENCUT">    700.00000000</i>
  <i name="ENAUG">    900.00000000</i>
  <i type="int" name="NBANDS">   231</i>
  <i name="NUPDOWN">      1.00000000</i>
  <i name="NELECT">    384.00000000</i>
  <i type="string" name="LREAL">AUTO</i>
  <i type="int" name="ISMEAR">     0</i>
  <i name="SIGMA">      0.01000000</i>
  <i type="int" name="LMAXMIX">     6</i>
  <i type="logical" name="LWAVE"> F  </i>
  <i type="logical" name="LVTOT"> F  </i>
  <i type="logical" name="LVHAR"> T  </i>
  <i type="logical" name="LASPH"> T  </i>
  <i type="logical" name="LMIXTAU"> T  </i>
 </incar>
 <primitive_cell>
  <structure name="primitive_cell" >
   <crystal>
    <varray name="basis" >
     <v>      12.65122604       0.00000000       0.00000000 </v>
     <v>       2.53024530      12.39562035       0.00000000 </v>
     <v>       0.00000000       0.00000000      13.93391037 </v>
    </varray>
    <i name="volume">   2185.11296711 </i>
    <varray name="rec_basis" >
     <v>       0.07904372      -0.01613473       0.00000000 </v>
     <v>       0.00000000       0.08067366       0.00000000 </v>
     <v>       0.00000000       0.00000000       0.07176736 </v>
    </varray>
   </crystal>
   <varray name="positions" >
    <v>       0.87670398       0.78624117       0.50000000 </v>
    <v>       0.99259037       0.94813251       0.00000002 </v>
    <v>       0.95092356       0.65646577       0.08288376 </v>
    <v>       0.90925682       0.36479890       0.16576751 </v>
    <v>       0.86759007       0.07313222       0.24865122 </v>
    <v>       0.75170398       0.16124129       0.50000000 </v>
    <v>       0.37670398       0.28624117       0.50000000 </v>
    <v>       0.49259037       0.44813251       0.00000003 </v>
    <v>       0.45092362       0.15646577       0.08288376 </v>
    <v>       0.40925688       0.86479896       0.16576751 </v>
    <v>       0.36759013       0.57313228       0.24865122 </v>
    <v>       0.32592338       0.28146553       0.33153492 </v>
    <v>       0.25170410       0.66124117       0.50000000 </v>
    <v>       0.36759040       0.82313263       0.00000001 </v>
    <v>       0.32592362       0.53146583       0.08288376 </v>
    <v>       0.28425688       0.23979901       0.16576754 </v>
    <v>       0.24259017       0.94813240       0.24865119 </v>
    <v>       0.20092338       0.65646565       0.33153492 </v>
    <v>       0.75170398       0.16124129       0.50000000 </v>
    <v>       0.86759049       0.32313258       0.00000001 </v>
    <v>       0.82592368       0.03146578       0.08288376 </v>
    <v>       0.78425688       0.73979890       0.16576751 </v>
    <v>       0.33503711       0.99457449       0.58288372 </v>
    <v>       0.29337048       0.70290768       0.66576755 </v>
    <v>       0.50170398       0.41124117       0.50000000 </v>
    <v>       0.24259035       0.69813263       0.00000000 </v>
    <v>       0.20092359       0.40646580       0.08288375 </v>
    <v>       0.15925685       0.11479896       0.16576751 </v>
    <v>       0.58503717       0.74457443       0.58288372 </v>
    <v>       0.07592334       0.53146553       0.33153489 </v>
    <v>       0.00170398       0.91124129       0.50000000 </v>
    <v>       0.74259043       0.19813251       0.00000002 </v>
    <v>       0.70092362       0.90646571       0.08288377 </v>
    <v>       0.65925688       0.61479890       0.16576751 </v>
    <v>       0.62670398       0.03624129       0.50000000 </v>
    <v>       0.57592344       0.03146547       0.33153489 </v>
    <v>       0.08503711       0.24457431       0.58288372 </v>
    <v>       0.11759036       0.07313251       0.00000002 </v>
    <v>       0.07592360       0.78146577       0.08288376 </v>
    <v>       0.03425685       0.48979896       0.16576751 </v>
    <v>       0.99259007       0.19813222       0.24865122 </v>
    <v>       0.12670398       0.53624117       0.50000000 </v>
    <v>       0.41837048       0.82790774       0.66576755 </v>
    <v>       0.61759049       0.57313258       0.00000001 </v>
    <v>       0.57592362       0.28146583       0.08288375 </v>
    <v>       0.53425694       0.98979902       0.16576754 </v>
    <v>       0.49259019       0.69813228       0.24865125 </v>
    <v>       0.91837048       0.32790768       0.66576755 </v>
    <v>       0.91837013       0.07790732       0.91441870 </v>
    <v>       0.28425661       0.98979878       0.41441870 </v>
    <v>       0.90925658       0.61479878       0.41441870 </v>
    <v>       0.79337037       0.20290756       0.66576755 </v>
    <v>       0.50170362       0.16124082       0.74865127 </v>
    <v>       0.21003699       0.11957407       0.83153498 </v>
    <v>       0.41837013       0.57790744       0.91441870 </v>
    <v>       0.78425658       0.48979867       0.41441864 </v>
    <v>       0.11759009       0.82313240       0.24865118 </v>
    <v>       0.70092338       0.15646553       0.33153489 </v>
    <v>       0.00170374       0.66124094       0.74865127 </v>
    <v>       0.71003687       0.61957419       0.83153498 </v>
    <v>       0.79337025       0.45290744       0.91441870 </v>
    <v>       0.15925664       0.36479878       0.41441870 </v>
    <v>       0.96003723       0.61957443       0.58288372 </v>
    <v>       0.66837048       0.57790768       0.66576755 </v>
    <v>       0.37670386       0.53624100       0.74865127 </v>
    <v>       0.08503711       0.49457419       0.83153498 </v>
    <v>       0.29337013       0.95290744       0.91441858 </v>
    <v>       0.65925658       0.86479867       0.41441864 </v>
    <v>       0.46003720       0.11957455       0.58288372 </v>
    <v>       0.16837048       0.07790768       0.66576755 </v>
    <v>       0.87670374       0.03624105       0.74865127 </v>
    <v>       0.58503699       0.99457419       0.83153498 </v>
    <v>       0.66837013       0.32790738       0.91441870 </v>
    <v>       0.95092338       0.90646553       0.33153492 </v>
    <v>       0.83503723       0.49457440       0.58288372 </v>
    <v>       0.54337048       0.45290765       0.66576755 </v>
    <v>       0.25170374       0.41124091       0.74865115 </v>
    <v>       0.96003699       0.36957416       0.83153486 </v>
    <v>       0.16837013       0.82790750       0.91441870 </v>
    <v>       0.61759025       0.32313234       0.24865122 </v>
    <v>       0.74259013       0.44813234       0.24865119 </v>
    <v>       0.04337037       0.95290768       0.66576755 </v>
    <v>       0.75170374       0.91124105       0.74865127 </v>
    <v>       0.46003690       0.86957425       0.83153498 </v>
    <v>       0.04337013       0.20290732       0.91441870 </v>
    <v>       0.03425656       0.23979878       0.41441864 </v>
    <v>       0.28425661       0.98979878       0.41441870 </v>
    <v>       0.45092344       0.40646553       0.33153495 </v>
    <v>       0.62670362       0.28624094       0.74865115 </v>
    <v>       0.33503699       0.24457419       0.83153498 </v>
    <v>       0.54337025       0.70290750       0.91441870 </v>
    <v>       0.53425670       0.73979867       0.41441870 </v>
    <v>       0.71003723       0.86957443       0.58288372 </v>
    <v>       0.40925661       0.11479884       0.41441870 </v>
    <v>       0.12670374       0.78624100       0.74865127 </v>
    <v>       0.83503699       0.74457425       0.83153498 </v>
   </varray>
  </structure>
  <varray name="primitive_index" >
   <v type="int" >        1 </v>
   <v type="int" >        2 </v>
   <v type="int" >        3 </v>
   <v type="int" >        4 </v>
   <v type="int" >        5 </v>
   <v type="int" >        6 </v>
   <v type="int" >        7 </v>
   <v type="int" >        8 </v>
   <v type="int" >        9 </v>
   <v type="int" >       10 </v>
   <v type="int" >       11 </v>
   <v type="int" >       12 </v>
   <v type="int" >       13 </v>
   <v type="int" >       14 </v>
   <v type="int" >       15 </v>
   <v type="int" >       16 </v>
   <v type="int" >       17 </v>
   <v type="int" >       18 </v>
   <v type="int" >       19 </v>
   <v type="int" >       20 </v>
   <v type="int" >       21 </v>
   <v type="int" >       22 </v>
   <v type="int" >       23 </v>
   <v type="int" >       24 </v>
   <v type="int" >       25 </v>
   <v type="int" >       26 </v>
   <v type="int" >       27 </v>
   <v type="int" >       28 </v>
   <v type="int" >       29 </v>
   <v type="int" >       30 </v>
   <v type="int" >       31 </v>
   <v type="int" >       32 </v>
   <v type="int" >       33 </v>
   <v type="int" >       34 </v>
   <v type="int" >       35 </v>
   <v type="int" >       36 </v>
   <v type="int" >       37 </v>
   <v type="int" >       38 </v>
   <v type="int" >       39 </v>
   <v type="int" >       40 </v>
   <v type="int" >       41 </v>
   <v type="int" >       42 </v>
   <v type="int" >       43 </v>
   <v type="int" >       44 </v>
   <v type="int" >       45 </v>
   <v type="int" >       46 </v>
   <v type="int" >       47 </v>
   <v type="int" >       48 </v>
   <v type="int" >       49 </v>
   <v type="int" >       50 </v>
   <v type="int" >       51 </v>
   <v type="int" >       52 </v>
   <v type="int" >       53 </v>
   <v type="int" >       54 </v>
   <v type="int" >       55 </v>
   <v type="int" >       56 </v>
   <v type="int" >       57 </v>
   <v type="int" >       58 </v>
   <v type="int" >       59 </v>
   <v type="int" >       60 </v>
   <v type="int" >       61 </v>
   <v type="int" >       62 </v>
   <v type="int" >       63 </v>
   <v type="int" >       64 </v>
   <v type="int" >       65 </v>
   <v type="int" >       66 </v>
   <v type="int" >       67 </v>
   <v type="int" >       68 </v>
   <v type="int" >       69 </v>
   <v type="int" >       70 </v>
   <v type="int" >       71 </v>
   <v type="int" >       72 </v>
   <v type="int" >       73 </v>
   <v type="int" >       74 </v>
   <v type="int" >       75 </v>
   <v type="int" >       76 </v>
   <v type="int" >       77 </v>
   <v type="int" >       78 </v>
   <v type="int" >       79 </v>
   <v type="int" >       80 </v>
   <v type="int" >       81 </v>
   <v type="int" >       82 </v>
   <v type="int" >       83 </v>
   <v type="int" >       84 </v>
   <v type="int" >       85 </v>
   <v type="int" >       86 </v>
   <v type="int" >       87 </v>
   <v type="int" >       88 </v>
   <v type="int" >       89 </v>
   <v type="int" >       90 </v>
   <v type="int" >       91 </v>
   <v type="int" >       92 </v>
   <v type="int" >       93 </v>
   <v type="int" >       94 </v>
   <v type="int" >       95 </v>
   <v type="int" >       96 </v>
  </varray>
 </primitive_cell>
 <kpoints>
  <generation param="Gamma">
   <v type="int" name="divisions">       3        3        2 </v>
   <v name="usershift">      0.00000000       0.00000000       0.00000000 </v>
   <v name="genvec1">      0.33333333      -0.00000000       0.00000000 </v>
   <v name="genvec2">      0.00000000       0.33333333       0.00000000 </v>
   <v name="genvec3">      0.00000000       0.00000000       0.50000000 </v>
   <v name="shift">      0.00000000       0.00000000       0.00000000 </v>
  </generation>
  <varray name="kpointlist" >
   <v>       0.00000000       0.00000000       0.00000000 </v>
   <v>       0.33333333       0.00000000       0.00000000 </v>
   <v>       0.00000000      -0.33333333       0.00000000 </v>
   <v>       0.33333333       0.33333333       0.00000000 </v>
   <v>      -0.33333333       0.33333333       0.00000000 </v>
   <v>       0.00000000       0.00000000       0.50000000 </v>
   <v>       0.33333333       0.00000000       0.50000000 </v>
   <v>       0.00000000      -0.33333333       0.50000000 </v>
   <v>       0.33333333       0.33333333       0.50000000 </v>
   <v>      -0.33333333       0.33333333       0.50000000 </v>
  </varray>
  <varray name="weights" >
   <v>       0.05555556 </v>
   <v>       0.11111111 </v>
   <v>       0.11111111 </v>
   <v>       0.11111111 </v>
   <v>       0.11111111 </v>
   <v>       0.05555556 </v>
   <v>       0.11111111 </v>
   <v>       0.11111111 </v>
   <v>       0.11111111 </v>
   <v>       0.11111111 </v>
  </varray>
 </kpoints>
 <parameters>
  <separator name="general" >
   <i type="string" name="SYSTEM">Si and Ge interface calculation</i>
   <i type="logical" name="LCOMPAT"> F  </i>
  </separator>
  <separator name="electronic" >
   <i type="string" name="PREC">normal</i>
   <i name="ENMAX">    700.00000000</i>
   <i name="ENAUG">    900.00000000</i>
   <i name="EDIFF">      0.00000010</i>
   <i type="int" name="IALGO">    38</i>
   <i type="int" name="IWAVPR">    10</i>
   <i type="int" name="NBANDS">   232</i>
   <i type="int" name="NBANDSLOW">    -1</i>
   <i type="int" name="NBANDSHIGH">    -1</i>
   <i name="NELECT">    384.00000000</i>
   <i type="int" name="TURBO">     0</i>
   <i type="int" name="IRESTART">     0</i>
   <i type="int" name="NREBOOT">     0</i>
   <i type="int" name="NMIN">     0</i>
   <i name="EREF">      0.00000000</i>
   <separator name="electronic smearing" >
    <i type="int" name="ISMEAR">     0</i>
    <i name="SIGMA">      0.01000000</i>
    <i name="KSPACING">      0.50000000</i>
    <i type="logical" name="KGAMMA"> T  </i>
    <i type="logical" name="KBLOWUP"> T  </i>
   </separator>
   <separator name="electronic projectors" >
    <i type="logical" name="LREAL"> T  </i>
    <v name="ROPT">     -0.00050000</v>
    <i type="int" name="LMAXPAW">  -100</i>
    <i type="int" name="LMAXMIX">     6</i>
    <i type="logical" name="NLSPLINE"> F  </i>
   </separator>
   <separator name="electronic startup" >
    <i type="int" name="ISTART">     0</i>
    <i type="int" name="ICHARG">     2</i>
    <i type="int" name="INIWAV">     1</i>
   </separator>
   <separator name="electronic spin" >
    <i type="int" name="ISPIN">     2</i>
    <i type="logical" name="LNONCOLLINEAR"> F  </i>
    <v name="MAGMOM">      0.01041667      0.01041667      0.01041667      0.01041667      0.01041667      0.01041667      0.01041667      0.01041667      0.01041667      0.01041667      0.01041667      0.01041667      0.01041667      0.01041667      0.01041667      0.01041667      0.01041667      0.01041667      0.01041667      0.01041667
      0.01041667      0.01041667      0.01041667      0.01041667      0.01041667      0.01041667      0.01041667      0.01041667      0.01041667      0.01041667      0.01041667      0.01041667      0.01041667      0.01041667      0.01041667      0.01041667      0.01041667      0.01041667      0.01041667      0.01041667
      0.01041667      0.01041667      0.01041667      0.01041667      0.01041667      0.01041667      0.01041667      0.01041667      0.01041667      0.01041667      0.01041667      0.01041667      0.01041667      0.01041667      0.01041667      0.01041667      0.01041667      0.01041667      0.01041667      0.01041667
      0.01041667      0.01041667      0.01041667      0.01041667      0.01041667      0.01041667      0.01041667      0.01041667      0.01041667      0.01041667      0.01041667      0.01041667      0.01041667      0.01041667      0.01041667      0.01041667      0.01041667      0.01041667      0.01041667      0.01041667
      0.01041667      0.01041667      0.01041667      0.01041667      0.01041667      0.01041667      0.01041667      0.01041667      0.01041667      0.01041667      0.01041667      0.01041667      0.01041667      0.01041667      0.01041667      0.01041667</v>
    <i name="NUPDOWN">      1.00000000</i>
    <i type="logical" name="LSORBIT"> F  </i>
    <v name="SAXIS">      0.00000000      0.00000000      1.00000000</v>
    <i type="logical" name="LSPIRAL"> F  </i>
    <v name="QSPIRAL">      0.00000000      0.00000000      0.00000000</v>
    <i type="logical" name="LZEROZ"> F  </i>
   </separator>
   <separator name="electronic exchange-correlation" >
    <i type="logical" name="LASPH"> T  </i>
   </separator>
   <separator name="electronic convergence" >
    <i type="int" name="NELM">   100</i>
    <i type="int" name="NELMDL">    -5</i>
    <i type="int" name="NELMIN">     2</i>
    <i name="ENINI">    700.00000000</i>
    <separator name="electronic convergence detail" >
     <i type="logical" name="LDIAG"> T  </i>
     <i type="logical" name="LSUBROT"> F  </i>
     <i name="WEIMIN">      0.00000000</i>
     <i name="EBREAK">      0.00000000</i>
     <i name="DEPER">      0.30000000</i>
     <i type="int" name="NRMM">     4</i>
     <i name="TIME">      0.40000000</i>
    </separator>
   </separator>
   <separator name="electronic mixer" >
    <i name="AMIX">      0.60000000</i>
    <i name="BMIX">      1.00000000</i>
    <i name="AMIN">      0.10000000</i>
    <i name="AMIX_MAG">      2.40000000</i>
    <i name="BMIX_MAG">      1.00000000</i>
    <separator name="electronic mixer details" >
     <i type="int" name="IMIX">     4</i>
     <i type="logical" name="MIXFIRST"> F  </i>
     <i type="int" name="MAXMIX">   -45</i>
     <i name="WC">    100.00000000</i>
     <i type="int" name="INIMIX">     1</i>
     <i type="int" name="MIXPRE">     1</i>
     <i type="int" name="MREMOVE">     5</i>
    </separator>
   </separator>
   <separator name="electronic dipolcorrection" >
    <i type="logical" name="LDIPOL"> F  </i>
    <i type="logical" name="LMONO"> F  </i>
    <i type="int" name="IDIPOL">     0</i>
    <i name="EPSILON">      1.00000000</i>
    <v name="DIPOL">   -100.00000000   -100.00000000   -100.00000000</v>
    <i name="EFIELD">      0.00000000</i>
    <i type="logical" name="LVACPOTAV"> F  </i>
   </separator>
  </separator>
  <separator name="grids" >
   <i type="int" name="NGX">    84</i>
   <i type="int" name="NGY">    84</i>
   <i type="int" name="NGZ">    90</i>
   <i type="int" name="NGXF">   168</i>
   <i type="int" name="NGYF">   168</i>
   <i type="int" name="NGZF">   180</i>
   <i type="logical" name="ADDGRID"> T  </i>
  </separator>
  <separator name="ionic" >
   <i type="int" name="NSW">     0</i>
   <i type="int" name="IBRION">    -1</i>
   <i type="int" name="MDALGO">     0</i>
   <i type="int" name="ISIF">     2</i>
   <i name="PSTRESS">      0.00000000</i>
   <i name="EDIFFG">      0.00000100</i>
   <i type="int" name="NFREE">     0</i>
   <i name="POTIM">      0.50000000</i>
   <i name="SMASS">     -3.00000000</i>
   <i name="SCALEE">      1.00000000</i>
  </separator>
  <separator name="ionic md" >
   <i name="TEBEG">      0.00010000</i>
   <i name="TEEND">      0.00010000</i>
   <i type="int" name="NBLOCK">     1</i>
   <i type="int" name="KBLOCK">     1</i>
   <i type="int" name="NPACO">   256</i>
   <i name="APACO">     10.00000000</i>
  </separator>
  <separator name="symmetry" >
   <i type="int" name="ISYM">     2</i>
   <i name="SYMPREC">      0.00001000</i>
  </separator>
  <separator name="dos" >
   <i type="int" name="LORBIT">     0</i>
   <v name="RWIGS">     -1.00000000</v>
   <i type="int" name="NEDOS">   301</i>
   <i name="EMIN">     10.00000000</i>
   <i name="EMAX">    -10.00000000</i>
   <i name="EFERMI">      0.00000000</i>
  </separator>
  <separator name="writing" >
   <i type="int" name="NWRITE">     2</i>
   <i type="logical" name="LWAVE"> F  </i>
   <i type="logical" name="LDOWNSAMPLE"> F  </i>
   <i type="logical" name="LCHARG"> T  </i>
   <i type="logical" name="LPARD"> F  </i>
   <i type="logical" name="LVTOT"> F  </i>
   <i type="logical" name="LVHAR"> T  </i>
   <i type="logical" name="LELF"> F  </i>
   <i type="logical" name="LOPTICS"> F  </i>
   <v name="STM">      0.00000000      0.00000000      0.00000000      0.00000000      0.00000000      0.00000000      0.00000000</v>
  </separator>
  <separator name="performance" >
   <i type="int" name="NPAR">     4</i>
   <i type="int" name="NSIM">     4</i>
   <i type="int" name="NBLK">    -1</i>
   <i type="logical" name="LPLANE"> T  </i>
   <i type="logical" name="LSCALAPACK"> T  </i>
   <i type="logical" name="LSCAAWARE"> F  </i>
   <i type="logical" name="LSCALU"> F  </i>
   <i type="logical" name="LASYNC"> F  </i>
   <i type="logical" name="LORBITALREAL"> F  </i>
  </separator>
  <separator name="miscellaneous" >
   <i type="int" name="IDIOT">     3</i>
   <i type="int" name="PHON_NSTRUCT">    -1</i>
   <i type="logical" name="LMUSIC"> F  </i>
   <v name="POMASS">     72.61000000</v>
   <v name="DARWINR">      0.00000000</v>
   <v name="DARWINV">      1.00000000</v>
   <i type="logical" name="LCORR"> T  </i>
  </separator>
  <i type="logical" name="GGA_COMPAT"> T  </i>
  <i type="logical" name="LBERRY"> F  </i>
  <i type="int" name="ICORELEVEL">     0</i>
  <i type="logical" name="LDAU"> F  </i>
  <i type="int" name="I_CONSTRAINED_M">     0</i>
  <separator name="electronic exchange-correlation" >
   <i type="string" name="GGA    ">PE</i>
   <i type="string" name="XC_C">1</i>
   <i type="int" name="VOSKOWN">     0</i>
   <i type="logical" name="LHFCALC"> F  </i>
   <i type="string" name="PRECFOCK"></i>
   <i type="logical" name="LSYMGRAD"> F  </i>
   <i type="logical" name="LHFONE"> F  </i>
   <i type="logical" name="LRHFCALC"> F  </i>
   <i type="logical" name="LTHOMAS"> F  </i>
   <i type="logical" name="LMODELHF"> F  </i>
   <i type="logical" name="LFOCKACE"> F  </i>
   <i name="ENCUT4O">     -1.00000000</i>
   <i type="int" name="EXXOEP">     0</i>
   <i type="int" name="FOURORBIT">     0</i>
   <i name="AEXX">      0.00000000</i>
   <i name="HFALPHA">      0.00000000</i>
   <i name="MCALPHA">      0.00000000</i>
   <i name="ALDAX">      1.00000000</i>
   <i name="AGGAX">      1.00000000</i>
   <i name="AMGGAX">      1.00000000</i>
   <i name="ALDAC">      1.00000000</i>
   <i name="AGGAC">      1.00000000</i>
   <i name="AMGGAC">      1.00000000</i>
   <i type="int" name="NKREDX">     1</i>
   <i type="int" name="NKREDY">     1</i>
   <i type="int" name="NKREDZ">     1</i>
   <i type="logical" name="SHIFTRED"> F  </i>
   <i type="logical" name="ODDONLY"> F  </i>
   <i type="logical" name="EVENONLY"> F  </i>
   <i type="int" name="LMAXFOCK">     0</i>
   <i type="int" name="NMAXFOCKAE">     0</i>
   <i type="logical" name="LFOCKAEDFT"> F  </i>
   <i name="HFSCREEN">      0.00000000</i>
   <i name="HFSCREENC">      0.00000000</i>
   <i type="int" name="NBANDSGWLOW">     0</i>
  </separator>
  <separator name="vdW DFT" >
   <i type="logical" name="LUSE_VDW"> F  </i>
   <i type="int" name="IVDW_NL">    -1</i>
   <i type="logical" name="LSPIN_VDW"> F  </i>
   <i name="ZAB_VDW">     -0.84910000</i>
   <i name="GAMMA_VDW">      1.39626340</i>
   <i name="ALPHA_VDW">      0.00000000</i>
   <i name="PARAM1">      0.12340000</i>
   <i name="PARAM2">      1.00000000</i>
   <i name="BPARAM">      6.30000000</i>
   <i name="CPARAM">      0.00930000</i>
  </separator>
  <separator name="model GW" >
   <i type="int" name="MODEL_GW">     0</i>
   <i name="MODEL_EPS0">     13.65695604</i>
   <i name="MODEL_ALPHA">      1.00000000</i>
  </separator>
  <separator name="linear response parameters" >
   <i type="logical" name="LEPSILON"> F  </i>
   <i type="logical" name="LRPA"> F  </i>
   <i type="logical" name="LNABLA"> F  </i>
   <i type="logical" name="LVEL"> F  </i>
   <i name="CSHIFT">      0.10000000</i>
   <i name="OMEGAMAX">     -1.00000000</i>
   <i name="DEG_THRESHOLD">      0.00200000</i>
   <i name="RTIME">     -0.10000000</i>
   <i name="WPLASMAI">      0.00000000</i>
   <v name="DFIELD">      0.00000000      0.00000000      0.00000000</v>
   <v name="WPLASMA">      0.00000000      0.00000000      0.00000000      0.00000000      0.00000000      0.00000000      0.00000000      0.00000000      0.00000000</v>
  </separator>
  <separator name="orbital magnetization" >
   <i type="logical" name="NUCIND"> F  </i>
   <v name="MAGPOS">      0.00000000      0.00000000      0.00000000</v>
   <i type="logical" name="LNICSALL"> T  </i>
   <i type="logical" name="ORBITALMAG"> F  </i>
   <i type="logical" name="LMAGBLOCH"> F  </i>
   <i type="logical" name="LCHIMAG"> F  </i>
   <i type="logical" name="LGAUGE"> T  </i>
   <i type="int" name="MAGATOM">     0</i>
   <v name="MAGDIPOL">      0.00000000      0.00000000      0.00000000</v>
   <v name="AVECCONST">      0.00000000      0.00000000      0.00000000</v>
  </separator>
  <separator name="response functions" >
   <i type="logical" name="LALL_IN_ONE"> F  </i>
   <i type="int" name="IALL_IN_ONE">    -1</i>
   <i type="int" name="NBANDS_WAVE">    -1</i>
   <i type="logical" name="LFINITE_TEMPERATURE"> F  </i>
   <i type="logical" name="LADDER"> F  </i>
   <i type="logical" name="LRPAFORCE"> F  </i>
   <i type="logical" name="LFXC"> F  </i>
   <i type="logical" name="LHARTREE"> T  </i>
   <i type="int" name="IBSE">     0</i>
   <v type="int" name="KPOINT">    -1     0     0     0</v>
   <i type="logical" name="LTCTC"> F  </i>
   <i type="logical" name="LTCTE"> F  </i>
   <i type="logical" name="LTETE"> F  </i>
   <i type="logical" name="LTRIPLET"> F  </i>
   <i type="logical" name="LFXCEPS"> F  </i>
   <i type="logical" name="LFXHEG"> F  </i>
   <i type="int" name="NATURALO">     2</i>
   <i type="logical" name="LHOLEGF"> F  </i>
   <i type="logical" name="L2ORDER"> F  </i>
   <i type="logical" name="LDMP1"> F  </i>
   <i type="logical" name="LMP2LT"> F  </i>
   <i type="logical" name="LSMP2LT"> F  </i>
   <i type="logical" name="LGWLF"> F  </i>
   <i name="ENCUTGW">     -1.60000002</i>
   <i name="ENCUTGWSOFT">     -1.60000002</i>
   <i name="ENCUTLF">     -1.00000000</i>
   <i type="logical" name="ESF_SPLINES"> F  </i>
   <i name="ESF_CONV">      0.01000000</i>
   <i type="int" name="ESF_NINTER">    15</i>
   <i type="int" name="LMAXMP2">    -1</i>
   <i name="SCISSOR">      0.00000000</i>
   <i type="int" name="NOMEGA">     0</i>
   <i type="int" name="NOMEGAR">     0</i>
   <i type="int" name="NBANDSGW">    -1</i>
   <i type="int" name="NBANDSO">    -1</i>
   <i type="int" name="NBANDSV">    -1</i>
   <i type="int" name="NELMGW">     1</i>
   <i type="int" name="NELMHF">     1</i>
   <i type="int" name="DIM">     3</i>
   <i type="int" name="IESPILON">     4</i>
   <i type="int" name="ANTIRES">     0</i>
   <i name="OMEGAMAX">    -30.00000000</i>
   <i name="OMEGAMIN">    -30.00000000</i>
   <i name="OMEGATL">   -200.00000000</i>
   <i type="int" name="OMEGAGRID">     0</i>
   <i name="CSHIFT">     -0.10000000</i>
   <i type="logical" name="LSELFENERGY"> F  </i>
   <i type="logical" name="LSPECTRAL"> F  </i>
   <i type="logical" name="LSPECTRALGW"> F  </i>
   <i type="logical" name="LSINGLES"> F  </i>
   <i type="logical" name="LFERMIGW"> F  </i>
   <i type="logical" name="ODDONLYGW"> F  </i>
   <i type="logical" name="EVENONLYGW"> F  </i>
   <i type="int" name="NKREDLFX">     1</i>
   <i type="int" name="NKREDLFY">     1</i>
   <i type="int" name="NKREDLFZ">     1</i>
   <i type="int" name="MAXMEM">  2800</i>
   <i type="int" name="TELESCOPE">     0</i>
   <i type="int" name="NTAUPAR">    -1</i>
   <i type="int" name="NOMEGAPAR">    -1</i>
   <i name="DAMP_NEWTON">      0.80000001</i>
   <i name="LAMBDA">      1.00000000</i>
  </separator>
  <separator name="External order field" >
   <i name="OFIELD_KAPPA">      0.00000000</i>
   <v name="OFIELD_K">      0.00000000      0.00000000      0.00000000</v>
   <i name="OFIELD_Q6_NEAR">      0.00000000</i>
   <i name="OFIELD_Q6_FAR">      0.00000000</i>
   <i name="OFIELD_A">      0.00000000</i>
  </separator>
  <separator name="optional k-points parameters" >
   <i type="int" name="KPOINTS_OPT_MODE">     1</i>
   <i type="logical" name="LKPOINTS_OPT"> F  </i>
  </separator>
 </parameters>
 <atominfo>
  <atoms>      96 </atoms>
  <types>       1 </types>
  <array name="atoms" >
   <dimension dim="1">ion</dimension>
   <field type="string">element</field>
   <field type="int">atomtype</field>
   <set>
    <rc><c>Ge</c><c>   1</c></rc>
    <rc><c>Ge</c><c>   1</c></rc>
    <rc><c>Ge</c><c>   1</c></rc>
    <rc><c>Ge</c><c>   1</c></rc>
    <rc><c>Ge</c><c>   1</c></rc>
    <rc><c>Ge</c><c>   1</c></rc>
    <rc><c>Ge</c><c>   1</c></rc>
    <rc><c>Ge</c><c>   1</c></rc>
    <rc><c>Ge</c><c>   1</c></rc>
    <rc><c>Ge</c><c>   1</c></rc>
    <rc><c>Ge</c><c>   1</c></rc>
    <rc><c>Ge</c><c>   1</c></rc>
    <rc><c>Ge</c><c>   1</c></rc>
    <rc><c>Ge</c><c>   1</c></rc>
    <rc><c>Ge</c><c>   1</c></rc>
    <rc><c>Ge</c><c>   1</c></rc>
    <rc><c>Ge</c><c>   1</c></rc>
    <rc><c>Ge</c><c>   1</c></rc>
    <rc><c>Ge</c><c>   1</c></rc>
    <rc><c>Ge</c><c>   1</c></rc>
    <rc><c>Ge</c><c>   1</c></rc>
    <rc><c>Ge</c><c>   1</c></rc>
    <rc><c>Ge</c><c>   1</c></rc>
    <rc><c>Ge</c><c>   1</c></rc>
    <rc><c>Ge</c><c>   1</c></rc>
    <rc><c>Ge</c><c>   1</c></rc>
    <rc><c>Ge</c><c>   1</c></rc>
    <rc><c>Ge</c><c>   1</c></rc>
    <rc><c>Ge</c><c>   1</c></rc>
    <rc><c>Ge</c><c>   1</c></rc>
    <rc><c>Ge</c><c>   1</c></rc>
    <rc><c>Ge</c><c>   1</c></rc>
    <rc><c>Ge</c><c>   1</c></rc>
    <rc><c>Ge</c><c>   1</c></rc>
    <rc><c>Ge</c><c>   1</c></rc>
    <rc><c>Ge</c><c>   1</c></rc>
    <rc><c>Ge</c><c>   1</c></rc>
    <rc><c>Ge</c><c>   1</c></rc>
    <rc><c>Ge</c><c>   1</c></rc>
    <rc><c>Ge</c><c>   1</c></rc>
    <rc><c>Ge</c><c>   1</c></rc>
    <rc><c>Ge</c><c>   1</c></rc>
    <rc><c>Ge</c><c>   1</c></rc>
    <rc><c>Ge</c><c>   1</c></rc>
    <rc><c>Ge</c><c>   1</c></rc>
    <rc><c>Ge</c><c>   1</c></rc>
    <rc><c>Ge</c><c>   1</c></rc>
    <rc><c>Ge</c><c>   1</c></rc>
    <rc><c>Ge</c><c>   1</c></rc>
    <rc><c>Ge</c><c>   1</c></rc>
    <rc><c>Ge</c><c>   1</c></rc>
    <rc><c>Ge</c><c>   1</c></rc>
    <rc><c>Ge</c><c>   1</c></rc>
    <rc><c>Ge</c><c>   1</c></rc>
    <rc><c>Ge</c><c>   1</c></rc>
    <rc><c>Ge</c><c>   1</c></rc>
    <rc><c>Ge</c><c>   1</c></rc>
    <rc><c>Ge</c><c>   1</c></rc>
    <rc><c>Ge</c><c>   1</c></rc>
    <rc><c>Ge</c><c>   1</c></rc>
    <rc><c>Ge</c><c>   1</c></rc>
    <rc><c>Ge</c><c>   1</c></rc>
    <rc><c>Ge</c><c>   1</c></rc>
    <rc><c>Ge</c><c>   1</c></rc>
    <rc><c>Ge</c><c>   1</c></rc>
    <rc><c>Ge</c><c>   1</c></rc>
    <rc><c>Ge</c><c>   1</c></rc>
    <rc><c>Ge</c><c>   1</c></rc>
    <rc><c>Ge</c><c>   1</c></rc>
    <rc><c>Ge</c><c>   1</c></rc>
    <rc><c>Ge</c><c>   1</c></rc>
    <rc><c>Ge</c><c>   1</c></rc>
    <rc><c>Ge</c><c>   1</c></rc>
    <rc><c>Ge</c><c>   1</c></rc>
    <rc><c>Ge</c><c>   1</c></rc>
    <rc><c>Ge</c><c>   1</c></rc>
    <rc><c>Ge</c><c>   1</c></rc>
    <rc><c>Ge</c><c>   1</c></rc>
    <rc><c>Ge</c><c>   1</c></rc>
    <rc><c>Ge</c><c>   1</c></rc>
    <rc><c>Ge</c><c>   1</c></rc>
    <rc><c>Ge</c><c>   1</c></rc>
    <rc><c>Ge</c><c>   1</c></rc>
    <rc><c>Ge</c><c>   1</c></rc>
    <rc><c>Ge</c><c>   1</c></rc>
    <rc><c>Ge</c><c>   1</c></rc>
    <rc><c>Ge</c><c>   1</c></rc>
    <rc><c>Ge</c><c>   1</c></rc>
    <rc><c>Ge</c><c>   1</c></rc>
    <rc><c>Ge</c><c>   1</c></rc>
    <rc><c>Ge</c><c>   1</c></rc>
    <rc><c>Ge</c><c>   1</c></rc>
    <rc><c>Ge</c><c>   1</c></rc>
    <rc><c>Ge</c><c>   1</c></rc>
    <rc><c>Ge</c><c>   1</c></rc>
    <rc><c>Ge</c><c>   1</c></rc>
   </set>
  </array>
  <array name="atomtypes" >
   <dimension dim="1">type</dimension>
   <field type="int">atomspertype</field>
   <field type="string">element</field>
   <field>mass</field>
   <field>valence</field>
   <field type="string">pseudopotential</field>
   <set>
    <rc><c>  96</c><c>Ge</c><c>     72.61000000</c><c>      4.00000000</c><c>  PAW_PBE Ge 05Jan2001                  </c></rc>
   </set>
  </array>
 </atominfo>
 <structure name="initialpos" >
  <crystal>
   <varray name="basis" >
    <v>      12.65122604       0.00000000       0.00000000 </v>
    <v>       2.53024530      12.39562035       0.00000000 </v>
    <v>       0.00000000       0.00000000      13.93391037 </v>
   </varray>
   <i name="volume">   2185.11296711 </i>
   <varray name="rec_basis" >
    <v>       0.07904372      -0.01613473       0.00000000 </v>
    <v>       0.00000000       0.08067366       0.00000000 </v>
    <v>       0.00000000       0.00000000       0.07176736 </v>
   </varray>
  </crystal>
  <varray name="positions" >
   <v>       0.87670398       0.78624117       0.50000000 </v>
   <v>       0.99259037       0.94813251       0.00000002 </v>
   <v>       0.95092356       0.65646577       0.08288376 </v>
   <v>       0.90925682       0.36479890       0.16576751 </v>
   <v>       0.86759007       0.07313222       0.24865122 </v>
   <v>       0.75170398       0.16124129       0.50000000 </v>
   <v>       0.37670398       0.28624117       0.50000000 </v>
   <v>       0.49259037       0.44813251       0.00000003 </v>
   <v>       0.45092362       0.15646577       0.08288376 </v>
   <v>       0.40925688       0.86479896       0.16576751 </v>
   <v>       0.36759013       0.57313228       0.24865122 </v>
   <v>       0.32592338       0.28146553       0.33153492 </v>
   <v>       0.25170410       0.66124117       0.50000000 </v>
   <v>       0.36759040       0.82313263       0.00000001 </v>
   <v>       0.32592362       0.53146583       0.08288376 </v>
   <v>       0.28425688       0.23979901       0.16576754 </v>
   <v>       0.24259017       0.94813240       0.24865119 </v>
   <v>       0.20092338       0.65646565       0.33153492 </v>
   <v>       0.75170398       0.16124129       0.50000000 </v>
   <v>       0.86759049       0.32313258       0.00000001 </v>
   <v>       0.82592368       0.03146578       0.08288376 </v>
   <v>       0.78425688       0.73979890       0.16576751 </v>
   <v>       0.33503711       0.99457449       0.58288372 </v>
   <v>       0.29337048       0.70290768       0.66576755 </v>
   <v>       0.50170398       0.41124117       0.50000000 </v>
   <v>       0.24259035       0.69813263       0.00000000 </v>
   <v>       0.20092359       0.40646580       0.08288375 </v>
   <v>       0.15925685       0.11479896       0.16576751 </v>
   <v>       0.58503717       0.74457443       0.58288372 </v>
   <v>       0.07592334       0.53146553       0.33153489 </v>
   <v>       0.00170398       0.91124129       0.50000000 </v>
   <v>       0.74259043       0.19813251       0.00000002 </v>
   <v>       0.70092362       0.90646571       0.08288377 </v>
   <v>       0.65925688       0.61479890       0.16576751 </v>
   <v>       0.62670398       0.03624129       0.50000000 </v>
   <v>       0.57592344       0.03146547       0.33153489 </v>
   <v>       0.08503711       0.24457431       0.58288372 </v>
   <v>       0.11759036       0.07313251       0.00000002 </v>
   <v>       0.07592360       0.78146577       0.08288376 </v>
   <v>       0.03425685       0.48979896       0.16576751 </v>
   <v>       0.99259007       0.19813222       0.24865122 </v>
   <v>       0.12670398       0.53624117       0.50000000 </v>
   <v>       0.41837048       0.82790774       0.66576755 </v>
   <v>       0.61759049       0.57313258       0.00000001 </v>
   <v>       0.57592362       0.28146583       0.08288375 </v>
   <v>       0.53425694       0.98979902       0.16576754 </v>
   <v>       0.49259019       0.69813228       0.24865125 </v>
   <v>       0.91837048       0.32790768       0.66576755 </v>
   <v>       0.91837013       0.07790732       0.91441870 </v>
   <v>       0.28425661       0.98979878       0.41441870 </v>
   <v>       0.90925658       0.61479878       0.41441870 </v>
   <v>       0.79337037       0.20290756       0.66576755 </v>
   <v>       0.50170362       0.16124082       0.74865127 </v>
   <v>       0.21003699       0.11957407       0.83153498 </v>
   <v>       0.41837013       0.57790744       0.91441870 </v>
   <v>       0.78425658       0.48979867       0.41441864 </v>
   <v>       0.11759009       0.82313240       0.24865118 </v>
   <v>       0.70092338       0.15646553       0.33153489 </v>
   <v>       0.00170374       0.66124094       0.74865127 </v>
   <v>       0.71003687       0.61957419       0.83153498 </v>
   <v>       0.79337025       0.45290744       0.91441870 </v>
   <v>       0.15925664       0.36479878       0.41441870 </v>
   <v>       0.96003723       0.61957443       0.58288372 </v>
   <v>       0.66837048       0.57790768       0.66576755 </v>
   <v>       0.37670386       0.53624099       0.74865127 </v>
   <v>       0.08503711       0.49457419       0.83153498 </v>
   <v>       0.29337013       0.95290744       0.91441858 </v>
   <v>       0.65925658       0.86479867       0.41441864 </v>
   <v>       0.46003720       0.11957455       0.58288372 </v>
   <v>       0.16837048       0.07790768       0.66576755 </v>
   <v>       0.87670374       0.03624105       0.74865127 </v>
   <v>       0.58503699       0.99457419       0.83153498 </v>
   <v>       0.66837013       0.32790738       0.91441870 </v>
   <v>       0.95092338       0.90646553       0.33153492 </v>
   <v>       0.83503723       0.49457440       0.58288372 </v>
   <v>       0.54337048       0.45290765       0.66576755 </v>
   <v>       0.25170374       0.41124091       0.74865115 </v>
   <v>       0.96003699       0.36957416       0.83153486 </v>
   <v>       0.16837013       0.82790750       0.91441870 </v>
   <v>       0.61759025       0.32313234       0.24865122 </v>
   <v>       0.74259013       0.44813234       0.24865119 </v>
   <v>       0.04337037       0.95290768       0.66576755 </v>
   <v>       0.75170374       0.91124105       0.74865127 </v>
   <v>       0.46003690       0.86957425       0.83153498 </v>
   <v>       0.04337013       0.20290732       0.91441870 </v>
   <v>       0.03425656       0.23979878       0.41441864 </v>
   <v>       0.28425661       0.98979878       0.41441870 </v>
   <v>       0.45092344       0.40646553       0.33153495 </v>
   <v>       0.62670362       0.28624094       0.74865115 </v>
   <v>       0.33503699       0.24457419       0.83153498 </v>
   <v>       0.54337025       0.70290750       0.91441870 </v>
   <v>       0.53425670       0.73979867       0.41441870 </v>
   <v>       0.71003723       0.86957443       0.58288372 </v>
   <v>       0.40925661       0.11479884       0.41441870 </v>
   <v>       0.12670374       0.78624099       0.74865127 </v>
   <v>       0.83503699       0.74457425       0.83153498 </v>
  </varray>
 </structure>
 <calculation>
  <scstep>
   <time name="dav">   19.33   19.49</time>
   <time name="total">   21.01   21.17</time>
   <energy>
    <i name="alphaZ">    806.12556457 </i>
    <i name="ewald"> -10208.53027697 </i>
    <i name="hartreedc">  -1093.00967376 </i>
    <i name="XCdc">   -727.88392948 </i>
    <i name="pawpsdc">   8461.93788731 </i>
    <i name="pawaedc">  -7071.13096423 </i>
    <i name="eentropy">     -0.00085999 </i>
    <i name="bandstr">   1422.74322251 </i>
    <i name="atom">  10079.60734648 </i>
    <i name="e_fr_energy">   1669.85831646 </i>
    <i name="e_wo_entrp">   1669.85917644 </i>
    <i name="e_0_energy">   1669.85874645 </i>
   </energy>
  </scstep>
  <scstep>
   <time name="dav">   21.75   21.93</time>
   <time name="total">   21.75   21.93</time>
   <energy>
    <i name="e_fr_energy">   -440.33834609 </i>
    <i name="e_wo_entrp">   -440.33690775 </i>
    <i name="e_0_energy">   -440.33762692 </i>
   </energy>
  </scstep>
  <scstep>
   <time name="dav">   22.78   22.97</time>
   <time name="total">   22.78   22.97</time>
   <energy>
    <i name="e_fr_energy">   -661.93950290 </i>
    <i name="e_wo_entrp">   -661.93738516 </i>
    <i name="e_0_energy">   -661.93844403 </i>
   </energy>
  </scstep>
  <scstep>
   <time name="dav">   22.20   22.38</time>
   <time name="total">   22.20   22.38</time>
   <energy>
    <i name="e_fr_energy">   -671.43765288 </i>
    <i name="e_wo_entrp">   -671.43537641 </i>
    <i name="e_0_energy">   -671.43651464 </i>
   </energy>
  </scstep>
  <scstep>
   <time name="dav">   23.49   23.68</time>
   <time name="total">   24.60   24.80</time>
   <energy>
    <i name="e_fr_energy">   -671.85075598 </i>
    <i name="e_wo_entrp">   -671.84852010 </i>
    <i name="e_0_energy">   -671.84963804 </i>
   </energy>
  </scstep>
  <scstep>
   <time name="dav">   21.47   21.64</time>
   <time name="total">   24.20   24.39</time>
   <energy>
    <i name="e_fr_energy">   -662.46199386 </i>
    <i name="e_wo_entrp">   -662.45895164 </i>
    <i name="e_0_energy">   -662.46047275 </i>
   </energy>
  </scstep>
  <scstep>
   <time name="dav">   27.77   27.99</time>
   <time name="total">   30.50   30.74</time>
   <energy>
    <i name="e_fr_energy">   -669.66092691 </i>
    <i name="e_wo_entrp">   -669.65949984 </i>
    <i name="e_0_energy">   -669.66021337 </i>
   </energy>
  </scstep>
  <scstep>
   <time name="dav">   26.29   26.50</time>
   <time name="total">   29.02   29.24</time>
   <energy>
    <i name="e_fr_energy">   -658.30998342 </i>
    <i name="e_wo_entrp">   -658.30686458 </i>
    <i name="e_0_energy">   -658.30842400 </i>
   </energy>
  </scstep>
  <scstep>
   <time name="dav">   21.13   21.30</time>
   <time name="total">   23.87   24.06</time>
   <energy>
    <i name="e_fr_energy">   -661.20781308 </i>
    <i name="e_wo_entrp">   -661.20672714 </i>
    <i name="e_0_energy">   -661.20727011 </i>
   </energy>
  </scstep>
  <scstep>
   <time name="dav">   21.43   21.60</time>
   <time name="total">   24.17   24.36</time>
   <energy>
    <i name="e_fr_energy">   -660.20345692 </i>
    <i name="e_wo_entrp">   -660.20239885 </i>
    <i name="e_0_energy">   -660.20292788 </i>
   </energy>
  </scstep>
  <scstep>
   <time name="dav">   21.35   21.52</time>
   <time name="total">   24.10   24.29</time>
   <energy>
    <i name="e_fr_energy">   -659.19568261 </i>
    <i name="e_wo_entrp">   -659.19455220 </i>
    <i name="e_0_energy">   -659.19511741 </i>
   </energy>
  </scstep>
  <scstep>
   <time name="dav">   20.60   20.77</time>
   <time name="total">   23.32   23.50</time>
   <energy>
    <i name="e_fr_energy">   -656.62150777 </i>
    <i name="e_wo_entrp">   -656.61998455 </i>
    <i name="e_0_energy">   -656.62074616 </i>
   </energy>
  </scstep>
  <scstep>
   <time name="dav">   22.78   22.96</time>
   <time name="total">   25.50   25.70</time>
   <energy>
    <i name="e_fr_energy">   -656.33864708 </i>
    <i name="e_wo_entrp">   -656.33698002 </i>
    <i name="e_0_energy">   -656.33781355 </i>
   </energy>
  </scstep>
  <scstep>
   <time name="dav">   22.02   22.19</time>
   <time name="total">   24.73   24.92</time>
   <energy>
    <i name="e_fr_energy">   -656.29386578 </i>
    <i name="e_wo_entrp">   -656.29210143 </i>
    <i name="e_0_energy">   -656.29298361 </i>
   </energy>
  </scstep>
  <scstep>
   <time name="dav">   21.61   21.78</time>
   <time name="total">   24.34   24.53</time>
   <energy>
    <i name="e_fr_energy">   -656.26695552 </i>
    <i name="e_wo_entrp">   -656.26513271 </i>
    <i name="e_0_energy">   -656.26604412 </i>
   </energy>
  </scstep>
  <scstep>
   <time name="dav">   23.26   23.45</time>
   <time name="total">   26.00   26.20</time>
   <energy>
    <i name="e_fr_energy">   -656.26281901 </i>
    <i name="e_wo_entrp">   -656.26097941 </i>
    <i name="e_0_energy">   -656.26189921 </i>
   </energy>
  </scstep>
  <scstep>
   <time name="dav">   22.62   22.80</time>
   <time name="total">   25.34   25.54</time>
   <energy>
    <i name="e_fr_energy">   -656.26287035 </i>
    <i name="e_wo_entrp">   -656.26103136 </i>
    <i name="e_0_energy">   -656.26195085 </i>
   </energy>
  </scstep>
  <scstep>
   <time name="dav">   23.04   23.22</time>
   <time name="total">   25.76   25.96</time>
   <energy>
    <i name="e_fr_energy">   -656.26290800 </i>
    <i name="e_wo_entrp">   -656.26106458 </i>
    <i name="e_0_energy">   -656.26198629 </i>
   </energy>
  </scstep>
  <scstep>
   <time name="dav">   28.08   28.31</time>
   <time name="total">   30.81   31.05</time>
   <energy>
    <i name="e_fr_energy">   -656.26277717 </i>
    <i name="e_wo_entrp">   -656.26093168 </i>
    <i name="e_0_energy">   -656.26185442 </i>
   </energy>
  </scstep>
  <scstep>
   <time name="dav">   22.18   22.36</time>
   <time name="total">   24.91   25.11</time>
   <energy>
    <i name="e_fr_energy">   -656.26278513 </i>
    <i name="e_wo_entrp">   -656.26093794 </i>
    <i name="e_0_energy">   -656.26186154 </i>
   </energy>
  </scstep>
  <scstep>
   <time name="dav">   22.35   22.53</time>
   <time name="total">   25.08   25.28</time>
   <energy>
    <i name="e_fr_energy">   -656.26278570 </i>
    <i name="e_wo_entrp">   -656.26093804 </i>
    <i name="e_0_energy">   -656.26186187 </i>
   </energy>
  </scstep>
  <scstep>
   <time name="dav">   21.64   21.82</time>
   <time name="total">   24.38   24.57</time>
   <energy>
    <i name="e_fr_energy">   -656.26278163 </i>
    <i name="e_wo_entrp">   -656.26093269 </i>
    <i name="e_0_energy">   -656.26185716 </i>
   </energy>
  </scstep>
  <scstep>
   <time name="dav">   22.17   22.35</time>
   <time name="total">   24.94   25.13</time>
   <energy>
    <i name="e_fr_energy">   -656.26278068 </i>
    <i name="e_wo_entrp">   -656.26093087 </i>
    <i name="e_0_energy">   -656.26185577 </i>
   </energy>
  </scstep>
  <scstep>
   <time name="dav">   16.80   16.94</time>
   <time name="total">   18.45   18.59</time>
   <energy>
    <i name="alphaZ">    806.12556457 </i>
    <i name="ewald"> -10208.53027697 </i>
    <i name="hartreedc">  -1208.85014100 </i>
    <i name="XCdc">   -701.41787495 </i>
    <i name="pawpsdc">  27752.76778280 </i>
    <i name="pawaedc"> -26390.65981387 </i>
    <i name="eentropy">     -0.00184985 </i>
    <i name="bandstr">   -785.30351779 </i>
    <i name="atom">  10079.60734648 </i>
    <i name="e_fr_energy">   -656.26278058 </i>
    <i name="e_wo_entrp">   -656.26093073 </i>
    <i name="e_0_energy">   -656.26185566 </i>
   </energy>
  </scstep>
  <structure>
   <crystal>
    <varray name="basis" >
     <v>      12.65122604       0.00000000       0.00000000 </v>
     <v>       2.53024530      12.39562035       0.00000000 </v>
     <v>       0.00000000       0.00000000      13.93391037 </v>
    </varray>
    <i name="volume">   2185.11296711 </i>
    <varray name="rec_basis" >
     <v>       0.07904372      -0.01613473       0.00000000 </v>
     <v>       0.00000000       0.08067366       0.00000000 </v>
     <v>       0.00000000       0.00000000       0.07176736 </v>
    </varray>
   </crystal>
   <varray name="positions" >
    <v>       0.87670398       0.78624117       0.50000000 </v>
    <v>       0.99259037       0.94813251       0.00000002 </v>
    <v>       0.95092356       0.65646577       0.08288376 </v>
    <v>       0.90925682       0.36479890       0.16576751 </v>
    <v>       0.86759007       0.07313222       0.24865122 </v>
    <v>       0.75170398       0.16124129       0.50000000 </v>
    <v>       0.37670398       0.28624117       0.50000000 </v>
    <v>       0.49259037       0.44813251       0.00000003 </v>
    <v>       0.45092362       0.15646577       0.08288376 </v>
    <v>       0.40925688       0.86479896       0.16576751 </v>
    <v>       0.36759013       0.57313228       0.24865122 </v>
    <v>       0.32592338       0.28146553       0.33153492 </v>
    <v>       0.25170410       0.66124117       0.50000000 </v>
    <v>       0.36759040       0.82313263       0.00000001 </v>
    <v>       0.32592362       0.53146583       0.08288376 </v>
    <v>       0.28425688       0.23979901       0.16576754 </v>
    <v>       0.24259017       0.94813240       0.24865119 </v>
    <v>       0.20092338       0.65646565       0.33153492 </v>
    <v>       0.75170398       0.16124129       0.50000000 </v>
    <v>       0.86759049       0.32313258       0.00000001 </v>
    <v>       0.82592368       0.03146578       0.08288376 </v>
    <v>       0.78425688       0.73979890       0.16576751 </v>
    <v>       0.33503711       0.99457449       0.58288372 </v>
    <v>       0.29337048       0.70290768       0.66576755 </v>
    <v>       0.50170398       0.41124117       0.50000000 </v>
    <v>       0.24259035       0.69813263       0.00000000 </v>
    <v>       0.20092359       0.40646580       0.08288375 </v>
    <v>       0.15925685       0.11479896       0.16576751 </v>
    <v>       0.58503717       0.74457443       0.58288372 </v>
    <v>       0.07592334       0.53146553       0.33153489 </v>
    <v>       0.00170398       0.91124129       0.50000000 </v>
    <v>       0.74259043       0.19813251       0.00000002 </v>
    <v>       0.70092362       0.90646571       0.08288377 </v>
    <v>       0.65925688       0.61479890       0.16576751 </v>
    <v>       0.62670398       0.03624129       0.50000000 </v>
    <v>       0.57592344       0.03146547       0.33153489 </v>
    <v>       0.08503711       0.24457431       0.58288372 </v>
    <v>       0.11759036       0.07313251       0.00000002 </v>
    <v>       0.07592360       0.78146577       0.08288376 </v>
    <v>       0.03425685       0.48979896       0.16576751 </v>
    <v>       0.99259007       0.19813222       0.24865122 </v>
    <v>       0.12670398       0.53624117       0.50000000 </v>
    <v>       0.41837048       0.82790774       0.66576755 </v>
    <v>       0.61759049       0.57313258       0.00000001 </v>
    <v>       0.57592362       0.28146583       0.08288375 </v>
    <v>       0.53425694       0.98979902       0.16576754 </v>
    <v>       0.49259019       0.69813228       0.24865125 </v>
    <v>       0.91837048       0.32790768       0.66576755 </v>
    <v>       0.91837013       0.07790732       0.91441870 </v>
    <v>       0.28425661       0.98979878       0.41441870 </v>
    <v>       0.90925658       0.61479878       0.41441870 </v>
    <v>       0.79337037       0.20290756       0.66576755 </v>
    <v>       0.50170362       0.16124082       0.74865127 </v>
    <v>       0.21003699       0.11957407       0.83153498 </v>
    <v>       0.41837013       0.57790744       0.91441870 </v>
    <v>       0.78425658       0.48979867       0.41441864 </v>
    <v>       0.11759009       0.82313240       0.24865118 </v>
    <v>       0.70092338       0.15646553       0.33153489 </v>
    <v>       0.00170374       0.66124094       0.74865127 </v>
    <v>       0.71003687       0.61957419       0.83153498 </v>
    <v>       0.79337025       0.45290744       0.91441870 </v>
    <v>       0.15925664       0.36479878       0.41441870 </v>
    <v>       0.96003723       0.61957443       0.58288372 </v>
    <v>       0.66837048       0.57790768       0.66576755 </v>
    <v>       0.37670386       0.53624099       0.74865127 </v>
    <v>       0.08503711       0.49457419       0.83153498 </v>
    <v>       0.29337013       0.95290744       0.91441858 </v>
    <v>       0.65925658       0.86479867       0.41441864 </v>
    <v>       0.46003720       0.11957455       0.58288372 </v>
    <v>       0.16837048       0.07790768       0.66576755 </v>
    <v>       0.87670374       0.03624105       0.74865127 </v>
    <v>       0.58503699       0.99457419       0.83153498 </v>
    <v>       0.66837013       0.32790738       0.91441870 </v>
    <v>       0.95092338       0.90646553       0.33153492 </v>
    <v>       0.83503723       0.49457440       0.58288372 </v>
    <v>       0.54337048       0.45290765       0.66576755 </v>
    <v>       0.25170374       0.41124091       0.74865115 </v>
    <v>       0.96003699       0.36957416       0.83153486 </v>
    <v>       0.16837013       0.82790750       0.91441870 </v>
    <v>       0.61759025       0.32313234       0.24865122 </v>
    <v>       0.74259013       0.44813234       0.24865119 </v>
    <v>       0.04337037       0.95290768       0.66576755 </v>
    <v>       0.75170374       0.91124105       0.74865127 </v>
    <v>       0.46003690       0.86957425       0.83153498 </v>
    <v>       0.04337013       0.20290732       0.91441870 </v>
    <v>       0.03425656       0.23979878       0.41441864 </v>
    <v>       0.28425661       0.98979878       0.41441870 </v>
    <v>       0.45092344       0.40646553       0.33153495 </v>
    <v>       0.62670362       0.28624094       0.74865115 </v>
    <v>       0.33503699       0.24457419       0.83153498 </v>
    <v>       0.54337025       0.70290750       0.91441870 </v>
    <v>       0.53425670       0.73979867       0.41441870 </v>
    <v>       0.71003723       0.86957443       0.58288372 </v>
    <v>       0.40925661       0.11479884       0.41441870 </v>
    <v>       0.12670374       0.78624099       0.74865127 </v>
    <v>       0.83503699       0.74457425       0.83153498 </v>
   </varray>
  </structure>
  <varray name="forces" >
   <v>       0.35766718       0.82698418      -0.42686479 </v>
   <v>       1.39909398      -4.58487582       2.72833457 </v>
   <v>      -0.70194848      -0.18562837      -0.65370062 </v>
   <v>       0.25091370       0.05351290       0.26344857 </v>
   <v>       0.09128652       0.06886009      -0.06106054 </v>
   <v>       1.17605506       0.99158335       0.11234701 </v>
   <v>      -0.13955752       1.66350075       2.91832511 </v>
   <v>       1.51477102      -4.78306304       2.68042381 </v>
   <v>      -0.53988255      -0.44466027      -0.88420894 </v>
   <v>       0.26928865       0.05592690       0.27406533 </v>
   <v>       0.07169689       0.21586264      -0.02148168 </v>
   <v>      -0.39982065       0.46048400      -1.61616749 </v>
   <v>       0.29308468      -0.10571365       0.05734490 </v>
   <v>       2.30906008      -3.84082974       4.70205773 </v>
   <v>      -0.69413405      -0.02217849       1.26539783 </v>
   <v>       0.06095319       0.24265444      -0.43714579 </v>
   <v>      -0.25394318       0.04679312      -1.46455717 </v>
   <v>       0.25780452       0.39487088      -0.56200948 </v>
   <v>       1.17605506       0.99158335       0.11234701 </v>
   <v>       2.30136697      -3.72126602       4.62234051 </v>
   <v>      -0.71889564      -0.03000616       1.28753806 </v>
   <v>       0.43870101       0.49026303       0.29377650 </v>
   <v>       0.24553757      -0.16232991       2.41152463 </v>
   <v>       0.06724213       0.11987061      -0.11783822 </v>
   <v>       0.24399909      -0.01305016      -0.00475384 </v>
   <v>       1.45831282      -4.59430874       2.78232217 </v>
   <v>      -0.63266550      -0.46555063      -0.88727798 </v>
   <v>       0.11349226       0.15263219       0.17419194 </v>
   <v>      -0.34941359      -0.56583277       0.33055538 </v>
   <v>      -0.36964945       0.72904073      -1.91712006 </v>
   <v>       0.60533096      -0.22295224      -0.14998850 </v>
   <v>       1.42603603      -4.59953301       2.76012596 </v>
   <v>      -0.52985943      -0.60144222      -0.59449723 </v>
   <v>       0.33448534       0.18485462       0.30600484 </v>
   <v>      -1.41978840      -0.37590541       2.37467351 </v>
   <v>      -0.11288309       0.07681707      -1.47657761 </v>
   <v>       0.70016932       0.22298720      -0.04976122 </v>
   <v>       2.30755712      -3.71129770       4.64834583 </v>
   <v>      -0.70279579      -0.10363302       1.10424049 </v>
   <v>       0.21852002       0.14307557      -0.26236284 </v>
   <v>       0.07081710      -0.05870008      -0.00075681 </v>
   <v>       0.84017444      -0.20979238       2.37090969 </v>
   <v>      -0.03234816      -0.19459316      -0.17732767 </v>
   <v>       2.24584059      -3.74210738       4.52379449 </v>
   <v>      -0.72679780      -0.09169931       1.27136627 </v>
   <v>       0.07332658       0.17832550      -0.62462257 </v>
   <v>      -0.09701819      -0.23303447       0.11905600 </v>
   <v>       0.09285174      -0.04185875      -0.23371763 </v>
   <v>      -2.30755712       3.71129770      -4.64834583 </v>
   <v>      -1.17605506      -0.99158335      -0.11234701 </v>
   <v>      -0.84017444       0.20979238      -2.37090969 </v>
   <v>       0.25394318      -0.04679312       1.46455717 </v>
   <v>      -0.07332658      -0.17832550       0.62462257 </v>
   <v>       0.71889564       0.03000616      -1.28753806 </v>
   <v>      -2.24584059       3.74210738      -4.52379449 </v>
   <v>      -0.29308468       0.10571365      -0.05734490 </v>
   <v>      -0.09285174       0.04185875       0.23371763 </v>
   <v>      -0.24553757       0.16232991      -2.41152463 </v>
   <v>      -0.21852002      -0.14307557       0.26236284 </v>
   <v>       0.69413405       0.02217849      -1.26539783 </v>
   <v>      -1.45831282       4.59430874      -2.78232217 </v>
   <v>      -0.35766718      -0.82698418       0.42686479 </v>
   <v>       0.36964945      -0.72904073       1.91712006 </v>
   <v>      -0.07169689      -0.21586264       0.02148168 </v>
   <v>      -0.33448534      -0.18485462      -0.30600484 </v>
   <v>       0.70194848       0.18562837       0.65370062 </v>
   <v>      -1.42603603       4.59953301      -2.76012596 </v>
   <v>       0.13955752      -1.66350075      -2.91832511 </v>
   <v>       0.11288309      -0.07681707       1.47657761 </v>
   <v>      -0.09128652      -0.06886009       0.06106054 </v>
   <v>      -0.11349226      -0.15263219      -0.17419194 </v>
   <v>       0.53988255       0.44466027       0.88420894 </v>
   <v>      -2.30906008       3.84082974      -4.70205773 </v>
   <v>      -0.70016932      -0.22298720       0.04976122 </v>
   <v>      -0.25780452      -0.39487088       0.56200948 </v>
   <v>       0.09701819       0.23303447      -0.11905600 </v>
   <v>      -0.43870101      -0.49026303      -0.29377650 </v>
   <v>       0.70279579       0.10363302      -1.10424049 </v>
   <v>      -2.30136697       3.72126602      -4.62234051 </v>
   <v>       0.03234816       0.19459316       0.17732767 </v>
   <v>      -0.06724213      -0.11987061       0.11783822 </v>
   <v>      -0.07081710       0.05870008       0.00075681 </v>
   <v>      -0.06095319      -0.24265444       0.43714579 </v>
   <v>       0.72679780       0.09169931      -1.27136627 </v>
   <v>      -1.39909398       4.58487582      -2.72833457 </v>
   <v>      -0.60533096       0.22295224       0.14998850 </v>
   <v>      -1.17605506      -0.99158335      -0.11234701 </v>
   <v>       0.34941359       0.56583277      -0.33055538 </v>
   <v>      -0.26928865      -0.05592690      -0.27406533 </v>
   <v>       0.52985943       0.60144222       0.59449723 </v>
   <v>      -1.51477102       4.78306304      -2.68042381 </v>
   <v>      -0.24399909       0.01305016       0.00475384 </v>
   <v>       0.39982065      -0.46048400       1.61616749 </v>
   <v>       1.41978840       0.37590541      -2.37467351 </v>
   <v>      -0.25091370      -0.05351290      -0.26344857 </v>
   <v>       0.63266550       0.46555063       0.88727798 </v>
  </varray>
  <varray name="stress" >
   <v>      82.09274525      -7.80664121      12.27625793 </v>
   <v>      -7.80664258     105.90184405     -26.76059774 </v>
   <v>      12.27624814     -26.76057582     129.72381142 </v>
  </varray>
  <energy>
   <i name="e_fr_energy">   -656.26278058 </i>
   <i name="e_wo_entrp">   -656.26093073 </i>
   <i name="e_0_energy">   -656.26185566 </i>
  </energy>
  <time name="totalsc">  626.65  631.97</time>
  <eigenvalues>
   <array>
    <dimension dim="1">band</dimension>
    <dimension dim="2">kpoint</dimension>
    <dimension dim="3">spin</dimension>
    <field>eigene</field>
    <field>occ</field>
    <set>
     <set comment="spin 1">
      <set comment="kpoint 1">
       <r>  -10.2636    1.0000 </r>
       <r>  -10.1195    1.0000 </r>
       <r>   -9.7501    1.0000 </r>
       <r>   -9.7483    1.0000 </r>
       <r>   -9.3007    1.0000 </r>
       <r>   -9.2523    1.0000 </r>
       <r>   -8.8832    1.0000 </r>
       <r>   -8.7592    1.0000 </r>
       <r>   -8.4129    1.0000 </r>
       <r>   -8.2438    1.0000 </r>
       <r>   -8.1708    1.0000 </r>
       <r>   -8.1573    1.0000 </r>
       <r>   -8.1392    1.0000 </r>
       <r>   -8.0958    1.0000 </r>
       <r>   -8.0094    1.0000 </r>
       <r>   -7.9065    1.0000 </r>
       <r>   -7.7628    1.0000 </r>
       <r>   -7.7032    1.0000 </r>
       <r>   -7.6444    1.0000 </r>
       <r>   -7.5234    1.0000 </r>
       <r>   -7.3875    1.0000 </r>
       <r>   -7.3797    1.0000 </r>
       <r>   -7.2589    1.0000 </r>
       <r>   -7.2184    1.0000 </r>
       <r>   -7.0382    1.0000 </r>
       <r>   -6.9306    1.0000 </r>
       <r>   -6.8373    1.0000 </r>
       <r>   -6.8162    1.0000 </r>
       <r>   -6.7501    1.0000 </r>
       <r>   -6.6213    1.0000 </r>
       <r>   -6.5511    1.0000 </r>
       <r>   -6.4981    1.0000 </r>
       <r>   -6.3843    1.0000 </r>
       <r>   -6.3633    1.0000 </r>
       <r>   -6.3609    1.0000 </r>
       <r>   -6.3281    1.0000 </r>
       <r>   -6.1085    1.0000 </r>
       <r>   -6.1047    1.0000 </r>
       <r>   -6.0477    1.0000 </r>
       <r>   -5.8901    1.0000 </r>
       <r>   -5.8859    1.0000 </r>
       <r>   -5.7507    1.0000 </r>
       <r>   -5.6550    1.0000 </r>
       <r>   -5.5996    1.0000 </r>
       <r>   -5.5797    1.0000 </r>
       <r>   -5.5127    1.0000 </r>
       <r>   -5.4933    1.0000 </r>
       <r>   -5.3950    1.0000 </r>
       <r>   -5.3671    1.0000 </r>
       <r>   -5.1378    1.0000 </r>
       <r>   -5.0353    1.0000 </r>
       <r>   -5.0317    1.0000 </r>
       <r>   -4.9426    1.0000 </r>
       <r>   -4.8652    1.0000 </r>
       <r>   -4.8038    1.0000 </r>
       <r>   -4.7034    1.0000 </r>
       <r>   -4.5940    1.0000 </r>
       <r>   -4.5893    1.0000 </r>
       <r>   -4.4750    1.0000 </r>
       <r>   -4.3916    1.0000 </r>
       <r>   -4.2725    1.0000 </r>
       <r>   -4.2339    1.0000 </r>
       <r>   -4.1835    1.0000 </r>
       <r>   -4.1525    1.0000 </r>
       <r>   -4.1025    1.0000 </r>
       <r>   -3.8410    1.0000 </r>
       <r>   -3.7988    1.0000 </r>
       <r>   -3.7033    1.0000 </r>
       <r>   -3.6406    1.0000 </r>
       <r>   -3.4237    1.0000 </r>
       <r>   -3.3650    1.0000 </r>
       <r>   -3.2568    1.0000 </r>
       <r>   -3.2227    1.0000 </r>
       <r>   -2.9680    1.0000 </r>
       <r>   -2.9293    1.0000 </r>
       <r>   -2.8709    1.0000 </r>
       <r>   -2.8492    1.0000 </r>
       <r>   -2.8187    1.0000 </r>
       <r>   -2.7333    1.0000 </r>
       <r>   -2.6977    1.0000 </r>
       <r>   -2.6561    1.0000 </r>
       <r>   -2.6099    1.0000 </r>
       <r>   -2.4923    1.0000 </r>
       <r>   -2.3445    1.0000 </r>
       <r>   -2.3164    1.0000 </r>
       <r>   -2.1896    1.0000 </r>
       <r>   -2.1462    1.0000 </r>
       <r>   -2.0637    1.0000 </r>
       <r>   -2.0378    1.0000 </r>
       <r>   -1.8228    1.0000 </r>
       <r>   -1.6772    1.0000 </r>
       <r>   -1.6293    1.0000 </r>
       <r>   -1.5453    1.0000 </r>
       <r>   -1.5261    1.0000 </r>
       <r>   -1.4260    1.0000 </r>
       <r>   -1.3924    1.0000 </r>
       <r>   -1.3415    1.0000 </r>
       <r>   -1.2279    1.0000 </r>
       <r>   -1.0129    1.0000 </r>
       <r>   -0.8960    1.0000 </r>
       <r>   -0.8591    1.0000 </r>
       <r>   -0.7245    1.0000 </r>
       <r>   -0.6973    1.0000 </r>
       <r>   -0.6894    1.0000 </r>
       <r>   -0.6132    1.0000 </r>
       <r>   -0.5387    1.0000 </r>
       <r>   -0.5288    1.0000 </r>
       <r>   -0.4803    1.0000 </r>
       <r>   -0.4619    1.0000 </r>
       <r>   -0.4332    1.0000 </r>
       <r>   -0.3447    1.0000 </r>
       <r>   -0.2541    1.0000 </r>
       <r>   -0.1871    1.0000 </r>
       <r>   -0.1402    1.0000 </r>
       <r>   -0.1368    1.0000 </r>
       <r>   -0.0076    1.0000 </r>
       <r>   -0.0015    1.0000 </r>
       <r>   -0.0007    1.0000 </r>
       <r>    0.0356    1.0000 </r>
       <r>    0.1225    1.0000 </r>
       <r>    0.1577    1.0000 </r>
       <r>    0.2005    1.0000 </r>
       <r>    0.2788    1.0000 </r>
       <r>    0.3038    1.0000 </r>
       <r>    0.3304    1.0000 </r>
       <r>    0.3457    1.0000 </r>
       <r>    0.4215    1.0000 </r>
       <r>    0.4740    1.0000 </r>
       <r>    0.4978    1.0000 </r>
       <r>    0.5424    1.0000 </r>
       <r>    0.5481    1.0000 </r>
       <r>    0.6093    1.0000 </r>
       <r>    0.6949    1.0000 </r>
       <r>    0.7014    1.0000 </r>
       <r>    0.7294    1.0000 </r>
       <r>    0.8004    1.0000 </r>
       <r>    0.8177    1.0000 </r>
       <r>    0.8305    1.0000 </r>
       <r>    0.8851    1.0000 </r>
       <r>    0.9605    1.0000 </r>
       <r>    1.0735    1.0000 </r>
       <r>    1.0754    1.0000 </r>
       <r>    1.0825    1.0000 </r>
       <r>    1.1463    1.0000 </r>
       <r>    1.1766    1.0000 </r>
       <r>    1.2084    1.0000 </r>
       <r>    1.2702    1.0000 </r>
       <r>    1.3726    1.0000 </r>
       <r>    1.3817    1.0000 </r>
       <r>    1.4000    1.0000 </r>
       <r>    1.4107    1.0000 </r>
       <r>    1.4396    1.0000 </r>
       <r>    1.5391    1.0000 </r>
       <r>    1.5435    1.0000 </r>
       <r>    1.5526    1.0000 </r>
       <r>    1.6190    1.0000 </r>
       <r>    1.6599    1.0000 </r>
       <r>    1.6773    1.0000 </r>
       <r>    1.7810    1.0000 </r>
       <r>    1.8229    1.0000 </r>
       <r>    1.8567    1.0000 </r>
       <r>    1.8575    1.0000 </r>
       <r>    2.0129    1.0000 </r>
       <r>    2.0850    1.0000 </r>
       <r>    2.1131    1.0000 </r>
       <r>    2.1610    1.0000 </r>
       <r>    2.2012    1.0000 </r>
       <r>    2.3050    1.0000 </r>
       <r>    2.3384    1.0000 </r>
       <r>    2.3757    1.0000 </r>
       <r>    2.4792    1.0000 </r>
       <r>    2.5260    1.0000 </r>
       <r>    2.5781    1.0000 </r>
       <r>    2.6126    1.0000 </r>
       <r>    2.6485    1.0000 </r>
       <r>    2.6862    1.0000 </r>
       <r>    2.7120    1.0000 </r>
       <r>    2.7685    1.0000 </r>
       <r>    2.7944    1.0000 </r>
       <r>    2.8699    1.0000 </r>
       <r>    2.9402    1.0000 </r>
       <r>    2.9488    1.0000 </r>
       <r>    3.0934    1.0000 </r>
       <r>    3.1024    1.0000 </r>
       <r>    3.1817    1.0000 </r>
       <r>    3.2255    1.0000 </r>
       <r>    3.2714    1.0000 </r>
       <r>    3.3353    1.0000 </r>
       <r>    3.3985    1.0000 </r>
       <r>    3.4314    1.0000 </r>
       <r>    3.4642    1.0000 </r>
       <r>    3.5131    1.0000 </r>
       <r>    3.5707    1.0000 </r>
       <r>    3.6648    0.1841 </r>
       <r>    3.7413    0.0000 </r>
       <r>    3.7893    0.0000 </r>
       <r>    3.8839    0.0000 </r>
       <r>    3.8928    0.0000 </r>
       <r>    3.9666    0.0000 </r>
       <r>    3.9884    0.0000 </r>
       <r>    4.0771    0.0000 </r>
       <r>    4.1725    0.0000 </r>
       <r>    4.2198    0.0000 </r>
       <r>    4.2219    0.0000 </r>
       <r>    4.3212    0.0000 </r>
       <r>    4.3354    0.0000 </r>
       <r>    4.4367    0.0000 </r>
       <r>    4.4944    0.0000 </r>
       <r>    4.5034    0.0000 </r>
       <r>    4.5500    0.0000 </r>
       <r>    4.5834    0.0000 </r>
       <r>    4.6190    0.0000 </r>
       <r>    4.7440    0.0000 </r>
       <r>    4.7746    0.0000 </r>
       <r>    4.8369    0.0000 </r>
       <r>    4.8429    0.0000 </r>
       <r>    4.8893    0.0000 </r>
       <r>    4.9203    0.0000 </r>
       <r>    4.9630    0.0000 </r>
       <r>    5.0516    0.0000 </r>
       <r>    5.1246    0.0000 </r>
       <r>    5.1907    0.0000 </r>
       <r>    5.2284    0.0000 </r>
       <r>    5.2585    0.0000 </r>
       <r>    5.2783    0.0000 </r>
       <r>    5.3056    0.0000 </r>
       <r>    5.3384    0.0000 </r>
       <r>    5.3850    0.0000 </r>
       <r>    5.4387    0.0000 </r>
       <r>    5.4394    0.0000 </r>
       <r>    5.4890    0.0000 </r>
       <r>    5.5157    0.0000 </r>
      </set>
      <set comment="kpoint 2">
       <r>  -10.2064    1.0000 </r>
       <r>  -10.1152    1.0000 </r>
       <r>  -10.0173    1.0000 </r>
       <r>   -9.4143    1.0000 </r>
       <r>   -9.4087    1.0000 </r>
       <r>   -9.1104    1.0000 </r>
       <r>   -9.0547    1.0000 </r>
       <r>   -8.6849    1.0000 </r>
       <r>   -8.4536    1.0000 </r>
       <r>   -8.4437    1.0000 </r>
       <r>   -8.3226    1.0000 </r>
       <r>   -8.2355    1.0000 </r>
       <r>   -8.1216    1.0000 </r>
       <r>   -8.0221    1.0000 </r>
       <r>   -7.8790    1.0000 </r>
       <r>   -7.8061    1.0000 </r>
       <r>   -7.7433    1.0000 </r>
       <r>   -7.5573    1.0000 </r>
       <r>   -7.4933    1.0000 </r>
       <r>   -7.4836    1.0000 </r>
       <r>   -7.4288    1.0000 </r>
       <r>   -7.3254    1.0000 </r>
       <r>   -7.2306    1.0000 </r>
       <r>   -7.1491    1.0000 </r>
       <r>   -7.1316    1.0000 </r>
       <r>   -6.9903    1.0000 </r>
       <r>   -6.9098    1.0000 </r>
       <r>   -6.8392    1.0000 </r>
       <r>   -6.7440    1.0000 </r>
       <r>   -6.7143    1.0000 </r>
       <r>   -6.6052    1.0000 </r>
       <r>   -6.4663    1.0000 </r>
       <r>   -6.4345    1.0000 </r>
       <r>   -6.4143    1.0000 </r>
       <r>   -6.3097    1.0000 </r>
       <r>   -6.2818    1.0000 </r>
       <r>   -6.2374    1.0000 </r>
       <r>   -6.1139    1.0000 </r>
       <r>   -6.0715    1.0000 </r>
       <r>   -5.9391    1.0000 </r>
       <r>   -5.9341    1.0000 </r>
       <r>   -5.7934    1.0000 </r>
       <r>   -5.7542    1.0000 </r>
       <r>   -5.6349    1.0000 </r>
       <r>   -5.5474    1.0000 </r>
       <r>   -5.4890    1.0000 </r>
       <r>   -5.4325    1.0000 </r>
       <r>   -5.3119    1.0000 </r>
       <r>   -5.2457    1.0000 </r>
       <r>   -5.0663    1.0000 </r>
       <r>   -5.0188    1.0000 </r>
       <r>   -4.9883    1.0000 </r>
       <r>   -4.9320    1.0000 </r>
       <r>   -4.8486    1.0000 </r>
       <r>   -4.7807    1.0000 </r>
       <r>   -4.7229    1.0000 </r>
       <r>   -4.6804    1.0000 </r>
       <r>   -4.6242    1.0000 </r>
       <r>   -4.5299    1.0000 </r>
       <r>   -4.4399    1.0000 </r>
       <r>   -4.3891    1.0000 </r>
       <r>   -4.1999    1.0000 </r>
       <r>   -4.0666    1.0000 </r>
       <r>   -3.9597    1.0000 </r>
       <r>   -3.9284    1.0000 </r>
       <r>   -3.8055    1.0000 </r>
       <r>   -3.7414    1.0000 </r>
       <r>   -3.6455    1.0000 </r>
       <r>   -3.5244    1.0000 </r>
       <r>   -3.4632    1.0000 </r>
       <r>   -3.4368    1.0000 </r>
       <r>   -3.3188    1.0000 </r>
       <r>   -3.1489    1.0000 </r>
       <r>   -3.1175    1.0000 </r>
       <r>   -3.0759    1.0000 </r>
       <r>   -2.9565    1.0000 </r>
       <r>   -2.9204    1.0000 </r>
       <r>   -2.8638    1.0000 </r>
       <r>   -2.8372    1.0000 </r>
       <r>   -2.7465    1.0000 </r>
       <r>   -2.6085    1.0000 </r>
       <r>   -2.5695    1.0000 </r>
       <r>   -2.4992    1.0000 </r>
       <r>   -2.3852    1.0000 </r>
       <r>   -2.3399    1.0000 </r>
       <r>   -2.3034    1.0000 </r>
       <r>   -2.2147    1.0000 </r>
       <r>   -2.0898    1.0000 </r>
       <r>   -1.9191    1.0000 </r>
       <r>   -1.8246    1.0000 </r>
       <r>   -1.6787    1.0000 </r>
       <r>   -1.6124    1.0000 </r>
       <r>   -1.5604    1.0000 </r>
       <r>   -1.4470    1.0000 </r>
       <r>   -1.2999    1.0000 </r>
       <r>   -1.2182    1.0000 </r>
       <r>   -1.1372    1.0000 </r>
       <r>   -0.9945    1.0000 </r>
       <r>   -0.9421    1.0000 </r>
       <r>   -0.9001    1.0000 </r>
       <r>   -0.7676    1.0000 </r>
       <r>   -0.7392    1.0000 </r>
       <r>   -0.7069    1.0000 </r>
       <r>   -0.6844    1.0000 </r>
       <r>   -0.6575    1.0000 </r>
       <r>   -0.6336    1.0000 </r>
       <r>   -0.5911    1.0000 </r>
       <r>   -0.5043    1.0000 </r>
       <r>   -0.4629    1.0000 </r>
       <r>   -0.4229    1.0000 </r>
       <r>   -0.3691    1.0000 </r>
       <r>   -0.3308    1.0000 </r>
       <r>   -0.3074    1.0000 </r>
       <r>   -0.2110    1.0000 </r>
       <r>   -0.1703    1.0000 </r>
       <r>   -0.1294    1.0000 </r>
       <r>   -0.0681    1.0000 </r>
       <r>   -0.0287    1.0000 </r>
       <r>    0.0136    1.0000 </r>
       <r>    0.1052    1.0000 </r>
       <r>    0.1247    1.0000 </r>
       <r>    0.1488    1.0000 </r>
       <r>    0.2163    1.0000 </r>
       <r>    0.3092    1.0000 </r>
       <r>    0.3597    1.0000 </r>
       <r>    0.3685    1.0000 </r>
       <r>    0.4396    1.0000 </r>
       <r>    0.5089    1.0000 </r>
       <r>    0.5277    1.0000 </r>
       <r>    0.5610    1.0000 </r>
       <r>    0.5888    1.0000 </r>
       <r>    0.6235    1.0000 </r>
       <r>    0.6684    1.0000 </r>
       <r>    0.6827    1.0000 </r>
       <r>    0.6971    1.0000 </r>
       <r>    0.7608    1.0000 </r>
       <r>    0.8284    1.0000 </r>
       <r>    0.9178    1.0000 </r>
       <r>    0.9615    1.0000 </r>
       <r>    0.9751    1.0000 </r>
       <r>    1.0121    1.0000 </r>
       <r>    1.0416    1.0000 </r>
       <r>    1.0788    1.0000 </r>
       <r>    1.1053    1.0000 </r>
       <r>    1.1508    1.0000 </r>
       <r>    1.1746    1.0000 </r>
       <r>    1.2023    1.0000 </r>
       <r>    1.2725    1.0000 </r>
       <r>    1.2928    1.0000 </r>
       <r>    1.3804    1.0000 </r>
       <r>    1.4235    1.0000 </r>
       <r>    1.4472    1.0000 </r>
       <r>    1.4871    1.0000 </r>
       <r>    1.5471    1.0000 </r>
       <r>    1.5717    1.0000 </r>
       <r>    1.6501    1.0000 </r>
       <r>    1.6749    1.0000 </r>
       <r>    1.7344    1.0000 </r>
       <r>    1.7691    1.0000 </r>
       <r>    1.8236    1.0000 </r>
       <r>    1.8765    1.0000 </r>
       <r>    1.9706    1.0000 </r>
       <r>    1.9895    1.0000 </r>
       <r>    2.0269    1.0000 </r>
       <r>    2.1384    1.0000 </r>
       <r>    2.1664    1.0000 </r>
       <r>    2.1812    1.0000 </r>
       <r>    2.2641    1.0000 </r>
       <r>    2.3114    1.0000 </r>
       <r>    2.3516    1.0000 </r>
       <r>    2.3823    1.0000 </r>
       <r>    2.5026    1.0000 </r>
       <r>    2.5148    1.0000 </r>
       <r>    2.5660    1.0000 </r>
       <r>    2.6214    1.0000 </r>
       <r>    2.7046    1.0000 </r>
       <r>    2.7291    1.0000 </r>
       <r>    2.8241    1.0000 </r>
       <r>    2.9175    1.0000 </r>
       <r>    2.9721    1.0000 </r>
       <r>    3.0511    1.0000 </r>
       <r>    3.0805    1.0000 </r>
       <r>    3.1512    1.0000 </r>
       <r>    3.1583    1.0000 </r>
       <r>    3.2562    1.0000 </r>
       <r>    3.3231    1.0000 </r>
       <r>    3.3872    1.0000 </r>
       <r>    3.4388    1.0000 </r>
       <r>    3.4967    1.0000 </r>
       <r>    3.5160    1.0000 </r>
       <r>    3.5381    1.0000 </r>
       <r>    3.5521    1.0000 </r>
       <r>    3.6604    0.3918 </r>
       <r>    3.7380    0.0000 </r>
       <r>    3.7723    0.0000 </r>
       <r>    3.8074    0.0000 </r>
       <r>    3.8173    0.0000 </r>
       <r>    3.8894    0.0000 </r>
       <r>    3.9288    0.0000 </r>
       <r>    4.0203    0.0000 </r>
       <r>    4.0490    0.0000 </r>
       <r>    4.1079    0.0000 </r>
       <r>    4.1339    0.0000 </r>
       <r>    4.2556    0.0000 </r>
       <r>    4.3184    0.0000 </r>
       <r>    4.3782    0.0000 </r>
       <r>    4.4090    0.0000 </r>
       <r>    4.4277    0.0000 </r>
       <r>    4.4860    0.0000 </r>
       <r>    4.5432    0.0000 </r>
       <r>    4.5573    0.0000 </r>
       <r>    4.5806    0.0000 </r>
       <r>    4.6451    0.0000 </r>
       <r>    4.6913    0.0000 </r>
       <r>    4.7221    0.0000 </r>
       <r>    4.8033    0.0000 </r>
       <r>    4.8349    0.0000 </r>
       <r>    4.9625    0.0000 </r>
       <r>    4.9682    0.0000 </r>
       <r>    5.0290    0.0000 </r>
       <r>    5.0419    0.0000 </r>
       <r>    5.0725    0.0000 </r>
       <r>    5.1834    0.0000 </r>
       <r>    5.2347    0.0000 </r>
       <r>    5.2510    0.0000 </r>
       <r>    5.2909    0.0000 </r>
       <r>    5.3403    0.0000 </r>
       <r>    5.4279    0.0000 </r>
       <r>    5.4545    0.0000 </r>
       <r>    5.4943    0.0000 </r>
       <r>    5.5706    0.0000 </r>
       <r>    5.6506    0.0000 </r>
      </set>
      <set comment="kpoint 3">
       <r>  -10.2063    1.0000 </r>
       <r>  -10.1168    1.0000 </r>
       <r>  -10.0165    1.0000 </r>
       <r>   -9.4157    1.0000 </r>
       <r>   -9.4008    1.0000 </r>
       <r>   -9.1182    1.0000 </r>
       <r>   -9.0541    1.0000 </r>
       <r>   -8.6874    1.0000 </r>
       <r>   -8.4654    1.0000 </r>
       <r>   -8.3952    1.0000 </r>
       <r>   -8.2937    1.0000 </r>
       <r>   -8.2630    1.0000 </r>
       <r>   -8.1867    1.0000 </r>
       <r>   -8.0554    1.0000 </r>
       <r>   -7.8361    1.0000 </r>
       <r>   -7.7796    1.0000 </r>
       <r>   -7.7240    1.0000 </r>
       <r>   -7.5734    1.0000 </r>
       <r>   -7.5218    1.0000 </r>
       <r>   -7.4540    1.0000 </r>
       <r>   -7.4329    1.0000 </r>
       <r>   -7.3514    1.0000 </r>
       <r>   -7.2046    1.0000 </r>
       <r>   -7.1620    1.0000 </r>
       <r>   -7.0884    1.0000 </r>
       <r>   -7.0149    1.0000 </r>
       <r>   -6.9137    1.0000 </r>
       <r>   -6.8469    1.0000 </r>
       <r>   -6.7882    1.0000 </r>
       <r>   -6.7119    1.0000 </r>
       <r>   -6.6723    1.0000 </r>
       <r>   -6.4686    1.0000 </r>
       <r>   -6.4414    1.0000 </r>
       <r>   -6.3854    1.0000 </r>
       <r>   -6.3344    1.0000 </r>
       <r>   -6.2012    1.0000 </r>
       <r>   -6.1403    1.0000 </r>
       <r>   -6.0842    1.0000 </r>
       <r>   -5.9990    1.0000 </r>
       <r>   -5.9339    1.0000 </r>
       <r>   -5.8784    1.0000 </r>
       <r>   -5.7818    1.0000 </r>
       <r>   -5.7010    1.0000 </r>
       <r>   -5.6371    1.0000 </r>
       <r>   -5.5848    1.0000 </r>
       <r>   -5.5002    1.0000 </r>
       <r>   -5.4854    1.0000 </r>
       <r>   -5.3777    1.0000 </r>
       <r>   -5.2909    1.0000 </r>
       <r>   -5.2740    1.0000 </r>
       <r>   -5.1572    1.0000 </r>
       <r>   -5.0922    1.0000 </r>
       <r>   -4.9186    1.0000 </r>
       <r>   -4.8788    1.0000 </r>
       <r>   -4.8286    1.0000 </r>
       <r>   -4.6733    1.0000 </r>
       <r>   -4.6264    1.0000 </r>
       <r>   -4.4907    1.0000 </r>
       <r>   -4.4332    1.0000 </r>
       <r>   -4.3930    1.0000 </r>
       <r>   -4.3449    1.0000 </r>
       <r>   -4.1592    1.0000 </r>
       <r>   -4.0597    1.0000 </r>
       <r>   -3.9891    1.0000 </r>
       <r>   -3.9515    1.0000 </r>
       <r>   -3.7722    1.0000 </r>
       <r>   -3.7207    1.0000 </r>
       <r>   -3.6230    1.0000 </r>
       <r>   -3.5449    1.0000 </r>
       <r>   -3.4219    1.0000 </r>
       <r>   -3.4040    1.0000 </r>
       <r>   -3.2830    1.0000 </r>
       <r>   -3.2101    1.0000 </r>
       <r>   -3.1089    1.0000 </r>
       <r>   -2.9955    1.0000 </r>
       <r>   -2.9538    1.0000 </r>
       <r>   -2.8678    1.0000 </r>
       <r>   -2.8273    1.0000 </r>
       <r>   -2.7963    1.0000 </r>
       <r>   -2.7412    1.0000 </r>
       <r>   -2.7335    1.0000 </r>
       <r>   -2.6315    1.0000 </r>
       <r>   -2.4927    1.0000 </r>
       <r>   -2.4599    1.0000 </r>
       <r>   -2.3411    1.0000 </r>
       <r>   -2.2650    1.0000 </r>
       <r>   -2.2229    1.0000 </r>
       <r>   -2.0724    1.0000 </r>
       <r>   -1.9611    1.0000 </r>
       <r>   -1.8448    1.0000 </r>
       <r>   -1.7254    1.0000 </r>
[...]
       <r>    -9.2491    13.9928    10.2125 </r>
       <r>    -9.1906     7.7727    10.6667 </r>
       <r>    -9.1322     0.0111    10.6673 </r>
       <r>    -9.0738    22.8050    11.9998 </r>
       <r>    -9.0154    22.8229    13.3333 </r>
       <r>    -8.9569     0.0000    13.3333 </r>
       <r>    -8.8985     0.0014    13.3334 </r>
       <r>    -8.8401    11.4087    14.0000 </r>
       <r>    -8.7817     0.0000    14.0000 </r>
       <r>    -8.7232     7.6313    14.4459 </r>
       <r>    -8.6648    12.9529    15.2027 </r>
       <r>    -8.6064     7.3362    15.6313 </r>
       <r>    -8.5479    11.0924    16.2794 </r>
       <r>    -8.4895    15.9857    17.2135 </r>
       <r>    -8.4311    21.3772    18.4625 </r>
       <r>    -8.3727    14.5539    19.3129 </r>
       <r>    -8.3142    12.1364    20.0220 </r>
       <r>    -8.2558    28.8392    21.7071 </r>
       <r>    -8.1974    29.8755    23.4527 </r>
       <r>    -8.1389    20.7890    24.6674 </r>
       <r>    -8.0805    23.4961    26.0402 </r>
       <r>    -8.0221     9.3179    26.5847 </r>
       <r>    -7.9637    21.0612    27.8153 </r>
       <r>    -7.9052    13.4996    28.6040 </r>
       <r>    -7.8468    26.1124    30.1297 </r>
       <r>    -7.7884    16.7816    31.1104 </r>
       <r>    -7.7300    19.9083    32.2736 </r>
       <r>    -7.6715    27.2645    33.8666 </r>
       <r>    -7.6131    19.0475    34.9796 </r>
       <r>    -7.5547    12.5473    35.7127 </r>
       <r>    -7.4962    29.5406    37.4387 </r>
       <r>    -7.4378    28.3714    39.0964 </r>
       <r>    -7.3794    38.7753    41.3619 </r>
       <r>    -7.3210    20.2371    42.5443 </r>
       <r>    -7.2625    21.9752    43.8285 </r>
       <r>    -7.2041    29.6333    45.5599 </r>
       <r>    -7.1457    25.3631    47.0418 </r>
       <r>    -7.0873    26.0863    48.5661 </r>
       <r>    -7.0288    16.4015    49.5244 </r>
       <r>    -6.9704    29.4688    51.2462 </r>
       <r>    -6.9120    27.0354    52.8259 </r>
       <r>    -6.8535    26.0711    54.3491 </r>
       <r>    -6.7951    26.9703    55.9251 </r>
       <r>    -6.7367    29.9631    57.6759 </r>
       <r>    -6.6783    30.4587    59.4555 </r>
       <r>    -6.6198    21.1900    60.6937 </r>
       <r>    -6.5614    29.9160    62.4417 </r>
       <r>    -6.5030    24.2113    63.8564 </r>
       <r>    -6.4445    35.6663    65.9404 </r>
       <r>    -6.3861    21.7564    67.2116 </r>
       <r>    -6.3277    31.6965    69.0636 </r>
       <r>    -6.2693    35.1391    71.1169 </r>
       <r>    -6.2108    22.3411    72.4223 </r>
       <r>    -6.1524    23.7553    73.8103 </r>
       <r>    -6.0940    34.5411    75.8285 </r>
       <r>    -6.0356    27.8983    77.4585 </r>
       <r>    -5.9771    26.4664    79.0049 </r>
       <r>    -5.9187    26.2474    80.5386 </r>
       <r>    -5.8603    18.9824    81.6480 </r>
       <r>    -5.8018    15.6276    82.5612 </r>
       <r>    -5.7434    24.4798    83.9915 </r>
       <r>    -5.6850    17.7176    85.0267 </r>
       <r>    -5.6266    31.5929    86.8726 </r>
       <r>    -5.5681    25.6641    88.3721 </r>
       <r>    -5.5097    28.4428    90.0340 </r>
       <r>    -5.4513    36.9238    92.1914 </r>
       <r>    -5.3928    10.4444    92.8019 </r>
       <r>    -5.3344    27.4223    94.4041 </r>
       <r>    -5.2760    30.4462    96.1830 </r>
       <r>    -5.2176    33.9845    98.1688 </r>
       <r>    -5.1591    17.5804    99.1962 </r>
       <r>    -5.1007    27.0902   100.7790 </r>
       <r>    -5.0423    27.3651   102.3779 </r>
       <r>    -4.9839    27.5461   103.9874 </r>
       <r>    -4.9254    20.3458   105.1762 </r>
       <r>    -4.8670    23.4858   106.5484 </r>
       <r>    -4.8086    30.9351   108.3560 </r>
       <r>    -4.7501    30.0159   110.1099 </r>
       <r>    -4.6917    21.9901   111.3948 </r>
       <r>    -4.6333    22.7193   112.7222 </r>
       <r>    -4.5749    19.7709   113.8774 </r>
       <r>    -4.5164    19.8349   115.0363 </r>
       <r>    -4.4580    28.4040   116.6959 </r>
       <r>    -4.3996    26.0431   118.2177 </r>
       <r>    -4.3412    26.2879   119.7538 </r>
       <r>    -4.2827    13.7285   120.5559 </r>
       <r>    -4.2243    10.8045   121.1873 </r>
       <r>    -4.1659    17.6405   122.2180 </r>
       <r>    -4.1074    30.8744   124.0219 </r>
       <r>    -4.0490    20.4840   125.2189 </r>
       <r>    -3.9906    19.0146   126.3299 </r>
       <r>    -3.9322    34.1202   128.3235 </r>
       <r>    -3.8737     9.9386   128.9043 </r>
       <r>    -3.8153    24.5151   130.3366 </r>
       <r>    -3.7569    29.3325   132.0506 </r>
       <r>    -3.6984    18.5101   133.1322 </r>
       <r>    -3.6400    21.9917   134.4171 </r>
       <r>    -3.5816    22.5230   135.7331 </r>
       <r>    -3.5232    17.2688   136.7421 </r>
       <r>    -3.4647    25.0975   138.2085 </r>
       <r>    -3.4063    24.2821   139.6273 </r>
       <r>    -3.3479    25.6847   141.1282 </r>
       <r>    -3.2895    25.1395   142.5973 </r>
       <r>    -3.2310    23.8863   143.9930 </r>
       <r>    -3.1726    26.7237   145.5544 </r>
       <r>    -3.1142    24.7967   147.0032 </r>
       <r>    -3.0557    28.2808   148.6559 </r>
       <r>    -2.9973    29.2110   150.3626 </r>
       <r>    -2.9389    34.6783   152.3889 </r>
       <r>    -2.8805    33.9753   154.3741 </r>
       <r>    -2.8220    37.2551   156.5509 </r>
       <r>    -2.7636    25.6963   158.0523 </r>
       <r>    -2.7052    42.1458   160.5149 </r>
       <r>    -2.6467    35.6959   162.6007 </r>
       <r>    -2.5883    23.0644   163.9483 </r>
       <r>    -2.5299    24.1964   165.3621 </r>
       <r>    -2.4715    28.1702   167.0080 </r>
       <r>    -2.4130    20.4647   168.2037 </r>
       <r>    -2.3546    14.2076   169.0338 </r>
       <r>    -2.2962    25.6735   170.5341 </r>
       <r>    -2.2378    36.7252   172.6799 </r>
       <r>    -2.1793    24.1826   174.0928 </r>
       <r>    -2.1209    20.1228   175.2686 </r>
       <r>    -2.0625    20.2490   176.4517 </r>
       <r>    -2.0040    28.3307   178.1070 </r>
       <r>    -1.9456     6.9235   178.5117 </r>
       <r>    -1.8872     5.2478   178.8184 </r>
       <r>    -1.8288    17.2616   179.8270 </r>
       <r>    -1.7703    11.1276   180.4772 </r>
       <r>    -1.7119    12.3216   181.1971 </r>
       <r>    -1.6535    17.6001   182.2254 </r>
       <r>    -1.5950    20.3879   183.4167 </r>
       <r>    -1.5366    28.5331   185.0838 </r>
       <r>    -1.4782    19.4616   186.2209 </r>
       <r>    -1.4198    24.9769   187.6803 </r>
       <r>    -1.3613    21.7770   188.9527 </r>
       <r>    -1.3029    17.5140   189.9760 </r>
       <r>    -1.2445    13.3814   190.7579 </r>
       <r>    -1.1861    17.6484   191.7890 </r>
       <r>    -1.1276    14.3203   192.6258 </r>
       <r>    -1.0692    15.9089   193.5553 </r>
       <r>    -1.0108     5.4715   193.8752 </r>
       <r>    -0.9523    16.7781   194.8555 </r>
       <r>    -0.8939    22.0806   196.1457 </r>
       <r>    -0.8355    44.5854   198.7507 </r>
       <r>    -0.7771    39.1503   201.0383 </r>
       <r>    -0.7186    43.2927   203.5680 </r>
       <r>    -0.6602    52.4270   206.6313 </r>
       <r>    -0.6018    54.2488   209.8010 </r>
       <r>    -0.5434    42.7701   212.3001 </r>
       <r>    -0.4849    31.9259   214.1655 </r>
       <r>    -0.4265    42.9914   216.6774 </r>
       <r>    -0.3681    38.6415   218.9353 </r>
       <r>    -0.3096    48.6397   221.7775 </r>
       <r>    -0.2512    44.2535   224.3632 </r>
       <r>    -0.1928    37.3200   226.5438 </r>
       <r>    -0.1344    27.1261   228.1287 </r>
       <r>    -0.0759    45.4511   230.7843 </r>
       <r>    -0.0175    51.8579   233.8143 </r>
       <r>     0.0409    52.6467   236.8906 </r>
       <r>     0.0994    30.8847   238.6952 </r>
       <r>     0.1578    59.1774   242.1527 </r>
       <r>     0.2162    44.3304   244.7429 </r>
       <r>     0.2746    33.6993   246.7122 </r>
       <r>     0.3331    34.4314   248.7240 </r>
       <r>     0.3915    60.2769   252.2459 </r>
       <r>     0.4499    32.1232   254.1229 </r>
       <r>     0.5083    40.1540   256.4690 </r>
       <r>     0.5668    49.3176   259.3505 </r>
       <r>     0.6252    46.2592   262.0534 </r>
       <r>     0.6836    48.5850   264.8923 </r>
       <r>     0.7421    65.4187   268.7147 </r>
       <r>     0.8005    40.8985   271.1044 </r>
       <r>     0.8589    63.9799   274.8429 </r>
       <r>     0.9173    41.3308   277.2580 </r>
       <r>     0.9758    46.4427   279.9719 </r>
       <r>     1.0342    48.4613   282.8034 </r>
       <r>     1.0926    59.2708   286.2666 </r>
       <r>     1.1511    50.0207   289.1893 </r>
       <r>     1.2095    41.9111   291.6384 </r>
       <r>     1.2679    46.5157   294.3565 </r>
       <r>     1.3263    31.4093   296.1916 </r>
       <r>     1.3848    40.3897   298.5517 </r>
       <r>     1.4432    64.5873   302.3254 </r>
       <r>     1.5016    38.4938   304.5748 </r>
       <r>     1.5600    37.4490   306.7631 </r>
       <r>     1.6185    35.5941   308.8429 </r>
       <r>     1.6769    54.7864   312.0441 </r>
       <r>     1.7353    39.5218   314.3534 </r>
       <r>     1.7938    35.5449   316.4302 </r>
       <r>     1.8522    39.7569   318.7534 </r>
       <r>     1.9106    50.8831   321.7266 </r>
       <r>     1.9690    33.2758   323.6710 </r>
       <r>     2.0275    33.4972   325.6282 </r>
       <r>     2.0859    34.8015   327.6616 </r>
       <r>     2.1443    49.2568   330.5396 </r>
       <r>     2.2027    42.4580   333.0206 </r>
       <r>     2.2612    42.6216   335.5110 </r>
       <r>     2.3196    35.9829   337.6136 </r>
       <r>     2.3780    43.7662   340.1708 </r>
       <r>     2.4365    39.5450   342.4814 </r>
       <r>     2.4949    39.5518   344.7923 </r>
       <r>     2.5533    28.4449   346.4544 </r>
       <r>     2.6117    28.9952   348.1485 </r>
       <r>     2.6702    31.5695   349.9930 </r>
       <r>     2.7286    42.2683   352.4628 </r>
       <r>     2.7870    32.0878   354.3377 </r>
       <r>     2.8455    36.0959   356.4467 </r>
       <r>     2.9039    30.3120   358.2178 </r>
       <r>     2.9623    36.8409   360.3706 </r>
       <r>     3.0207    39.4240   362.6743 </r>
       <r>     3.0792    34.3766   364.6828 </r>
       <r>     3.1376    41.0116   367.0792 </r>
       <r>     3.1960    24.5339   368.5128 </r>
       <r>     3.2544    34.2077   370.5116 </r>
       <r>     3.3129    20.8075   371.7273 </r>
       <r>     3.3713    37.2873   373.9060 </r>
       <r>     3.4297    34.1496   375.9013 </r>
       <r>     3.4882    43.0899   378.4190 </r>
       <r>     3.5466    46.2248   381.1199 </r>
       <r>     3.6050    36.1517   383.2322 </r>
       <r>     3.6634    23.5332   384.6072 </r>
       <r>     3.7219    37.1847   386.7799 </r>
       <r>     3.7803    44.1700   389.3607 </r>
       <r>     3.8387    35.1661   391.4154 </r>
       <r>     3.8972    34.4590   393.4287 </r>
       <r>     3.9556    36.1282   395.5396 </r>
       <r>     4.0140    36.6838   397.6831 </r>
       <r>     4.0724    42.8608   400.1874 </r>
       <r>     4.1309    28.6977   401.8643 </r>
       <r>     4.1893    30.1812   403.6278 </r>
       <r>     4.2477    39.9591   405.9626 </r>
       <r>     4.3061    41.1239   408.3654 </r>
       <r>     4.3646    46.2913   411.0701 </r>
       <r>     4.4230    34.2498   413.0712 </r>
       <r>     4.4814    35.2573   415.1312 </r>
       <r>     4.5399    38.4316   417.3769 </r>
       <r>     4.5983    39.5768   419.6893 </r>
       <r>     4.6567    32.4850   421.5875 </r>
       <r>     4.7151    35.8574   423.6826 </r>
       <r>     4.7736    52.9636   426.7772 </r>
       <r>     4.8320    38.7517   429.0414 </r>
       <r>     4.8904    32.7715   430.9562 </r>
       <r>     4.9489    37.7378   433.1611 </r>
       <r>     5.0073    51.2079   436.1533 </r>
       <r>     5.0657    39.7554   438.4763 </r>
       <r>     5.1241    47.3978   441.2458 </r>
       <r>     5.1826    39.2499   443.5393 </r>
       <r>     5.2410    37.8192   445.7490 </r>
       <r>     5.2994    64.2454   449.5027 </r>
       <r>     5.3578    39.0836   451.7864 </r>
       <r>     5.4163    45.0051   454.4160 </r>
       <r>     5.4747    51.0427   457.3984 </r>
       <r>     5.5331    40.9762   459.7927 </r>
       <r>     5.5916    40.5531   462.1622 </r>
       <r>     5.6500    22.6898   463.4880 </r>
       <r>     5.7084     8.7636   464.0000 </r>
       <r>     5.7668     0.0000   464.0000 </r>
       <r>     5.8253     0.0000   464.0000 </r>
       <r>     5.8837     0.0000   464.0000 </r>
       <r>     5.9421     0.0000   464.0000 </r>
       <r>     6.0005     0.0000   464.0000 </r>
       <r>     6.0590     0.0000   464.0000 </r>
       <r>     6.1174     0.0000   464.0000 </r>
       <r>     6.1758     0.0000   464.0000 </r>
       <r>     6.2343     0.0000   464.0000 </r>
       <r>     6.2927     0.0000   464.0000 </r>
       <r>     6.3511     0.0000   464.0000 </r>
       <r>     6.4095     0.0000   464.0000 </r>
       <r>     6.4680     0.0000   464.0000 </r>
      </set>
     </set>
    </array>
   </total>
  </dos>
 </calculation>
 <structure name="finalpos" >
  <crystal>
   <varray name="basis" >
    <v>      12.65122604       0.00000000       0.00000000 </v>
    <v>       2.53024530      12.39562035       0.00000000 </v>
    <v>       0.00000000       0.00000000      13.93391037 </v>
   </varray>
   <i name="volume">   2185.11296711 </i>
   <varray name="rec_basis" >
    <v>       0.07904372      -0.01613473       0.00000000 </v>
    <v>       0.00000000       0.08067366       0.00000000 </v>
    <v>       0.00000000       0.00000000       0.07176736 </v>
   </varray>
  </crystal>
  <varray name="positions" >
   <v>       0.87670398       0.78624117       0.50000000 </v>
   <v>       0.99259037       0.94813251       0.00000002 </v>
   <v>       0.95092356       0.65646577       0.08288376 </v>
   <v>       0.90925682       0.36479890       0.16576751 </v>
   <v>       0.86759007       0.07313222       0.24865122 </v>
   <v>       0.75170398       0.16124129       0.50000000 </v>
   <v>       0.37670398       0.28624117       0.50000000 </v>
   <v>       0.49259037       0.44813251       0.00000003 </v>
   <v>       0.45092362       0.15646577       0.08288376 </v>
   <v>       0.40925688       0.86479896       0.16576751 </v>
   <v>       0.36759013       0.57313228       0.24865122 </v>
   <v>       0.32592338       0.28146553       0.33153492 </v>
   <v>       0.25170410       0.66124117       0.50000000 </v>
   <v>       0.36759040       0.82313263       0.00000001 </v>
   <v>       0.32592362       0.53146583       0.08288376 </v>
   <v>       0.28425688       0.23979901       0.16576754 </v>
   <v>       0.24259017       0.94813240       0.24865119 </v>
   <v>       0.20092338       0.65646565       0.33153492 </v>
   <v>       0.75170398       0.16124129       0.50000000 </v>
   <v>       0.86759049       0.32313258       0.00000001 </v>
   <v>       0.82592368       0.03146578       0.08288376 </v>
   <v>       0.78425688       0.73979890       0.16576751 </v>
   <v>       0.33503711       0.99457449       0.58288372 </v>
   <v>       0.29337048       0.70290768       0.66576755 </v>
   <v>       0.50170398       0.41124117       0.50000000 </v>
   <v>       0.24259035       0.69813263       0.00000000 </v>
   <v>       0.20092359       0.40646580       0.08288375 </v>
   <v>       0.15925685       0.11479896       0.16576751 </v>
   <v>       0.58503717       0.74457443       0.58288372 </v>
   <v>       0.07592334       0.53146553       0.33153489 </v>
   <v>       0.00170398       0.91124129       0.50000000 </v>
   <v>       0.74259043       0.19813251       0.00000002 </v>
   <v>       0.70092362       0.90646571       0.08288377 </v>
   <v>       0.65925688       0.61479890       0.16576751 </v>
   <v>       0.62670398       0.03624129       0.50000000 </v>
   <v>       0.57592344       0.03146547       0.33153489 </v>
   <v>       0.08503711       0.24457431       0.58288372 </v>
   <v>       0.11759036       0.07313251       0.00000002 </v>
   <v>       0.07592360       0.78146577       0.08288376 </v>
   <v>       0.03425685       0.48979896       0.16576751 </v>
   <v>       0.99259007       0.19813222       0.24865122 </v>
   <v>       0.12670398       0.53624117       0.50000000 </v>
   <v>       0.41837048       0.82790774       0.66576755 </v>
   <v>       0.61759049       0.57313258       0.00000001 </v>
   <v>       0.57592362       0.28146583       0.08288375 </v>
   <v>       0.53425694       0.98979902       0.16576754 </v>
   <v>       0.49259019       0.69813228       0.24865125 </v>
   <v>       0.91837048       0.32790768       0.66576755 </v>
   <v>       0.91837013       0.07790732       0.91441870 </v>
   <v>       0.28425661       0.98979878       0.41441870 </v>
   <v>       0.90925658       0.61479878       0.41441870 </v>
   <v>       0.79337037       0.20290756       0.66576755 </v>
   <v>       0.50170362       0.16124082       0.74865127 </v>
   <v>       0.21003699       0.11957407       0.83153498 </v>
   <v>       0.41837013       0.57790744       0.91441870 </v>
   <v>       0.78425658       0.48979867       0.41441864 </v>
   <v>       0.11759009       0.82313240       0.24865118 </v>
   <v>       0.70092338       0.15646553       0.33153489 </v>
   <v>       0.00170374       0.66124094       0.74865127 </v>
   <v>       0.71003687       0.61957419       0.83153498 </v>
   <v>       0.79337025       0.45290744       0.91441870 </v>
   <v>       0.15925664       0.36479878       0.41441870 </v>
   <v>       0.96003723       0.61957443       0.58288372 </v>
   <v>       0.66837048       0.57790768       0.66576755 </v>
   <v>       0.37670386       0.53624099       0.74865127 </v>
   <v>       0.08503711       0.49457419       0.83153498 </v>
   <v>       0.29337013       0.95290744       0.91441858 </v>
   <v>       0.65925658       0.86479867       0.41441864 </v>
   <v>       0.46003720       0.11957455       0.58288372 </v>
   <v>       0.16837048       0.07790768       0.66576755 </v>
   <v>       0.87670374       0.03624105       0.74865127 </v>
   <v>       0.58503699       0.99457419       0.83153498 </v>
   <v>       0.66837013       0.32790738       0.91441870 </v>
   <v>       0.95092338       0.90646553       0.33153492 </v>
   <v>       0.83503723       0.49457440       0.58288372 </v>
   <v>       0.54337048       0.45290765       0.66576755 </v>
   <v>       0.25170374       0.41124091       0.74865115 </v>
   <v>       0.96003699       0.36957416       0.83153486 </v>
   <v>       0.16837013       0.82790750       0.91441870 </v>
   <v>       0.61759025       0.32313234       0.24865122 </v>
   <v>       0.74259013       0.44813234       0.24865119 </v>
   <v>       0.04337037       0.95290768       0.66576755 </v>
   <v>       0.75170374       0.91124105       0.74865127 </v>
   <v>       0.46003690       0.86957425       0.83153498 </v>
   <v>       0.04337013       0.20290732       0.91441870 </v>
   <v>       0.03425656       0.23979878       0.41441864 </v>
   <v>       0.28425661       0.98979878       0.41441870 </v>
   <v>       0.45092344       0.40646553       0.33153495 </v>
   <v>       0.62670362       0.28624094       0.74865115 </v>
   <v>       0.33503699       0.24457419       0.83153498 </v>
   <v>       0.54337025       0.70290750       0.91441870 </v>
   <v>       0.53425670       0.73979867       0.41441870 </v>
   <v>       0.71003723       0.86957443       0.58288372 </v>
   <v>       0.40925661       0.11479884       0.41441870 </v>
   <v>       0.12670374       0.78624099       0.74865127 </v>
   <v>       0.83503699       0.74457425       0.83153498 </v>
  </varray>
 </structure>
</modeling>
