<?xml version="1.0" encoding="ISO-8859-1"?>
<modeling>
 <generator>
  <i name="program" type="string">vasp </i>
  <i name="version" type="string">6.4.3  </i>
  <i name="subversion" type="string">19Mar24 (build Oct 22 2024 11:23:12) complex                          parallel </i>
  <i name="platform" type="string">LinuxIFC </i>
  <i name="date" type="string">2025 04 30 </i>
  <i name="time" type="string">08:38:57 </i>
 </generator>
 <incar>
  <i type="string" name="SYSTEM">Si011 and Ge011 interface calculation</i>
  <i type="int" name="ISTART">     0</i>
  <i type="logical" name="ADDGRID"> T  </i>
  <i type="int" name="ISPIN">     2</i>
  <i name="AMIX">      0.60000000</i>
  <i type="int" name="ICHARG">     2</i>
  <i type="int" name="NELM">   100</i>
  <i name="EDIFF">      0.00000010</i>
  <i name="ENCUT">    700.00000000</i>
  <i name="ENAUG">    900.00000000</i>
  <i type="int" name="NBANDS">   346</i>
  <i name="NUPDOWN">      1.00000000</i>
  <i name="NELECT">    576.00000000</i>
  <i type="string" name="LREAL">AUTO</i>
  <i type="int" name="ISMEAR">     0</i>
  <i name="SIGMA">      0.01000000</i>
  <i type="int" name="LMAXMIX">     6</i>
  <i type="logical" name="LWAVE"> F  </i>
  <i type="logical" name="LVTOT"> F  </i>
  <i type="logical" name="LVHAR"> T  </i>
  <i type="logical" name="LASPH"> T  </i>
  <i type="logical" name="LMIXTAU"> T  </i>
 </incar>
 <primitive_cell>
  <structure name="primitive_cell" >
   <crystal>
    <varray name="basis" >
     <v>       9.49163842       0.00000000       0.00000000 </v>
     <v>       0.00000000      13.42320379       0.00000000 </v>
     <v>       0.00000000       0.00000000      24.09292386 </v>
    </varray>
    <i name="volume">   3069.63598605 </i>
    <varray name="rec_basis" >
     <v>       0.10535589       0.00000000       0.00000000 </v>
     <v>       0.00000000       0.07449786       0.00000000 </v>
     <v>       0.00000000       0.00000000       0.04150596 </v>
    </varray>
   </crystal>
   <varray name="positions" >
    <v>       0.00000000       0.00000000       0.00000000 </v>
    <v>       0.00000000       0.75000000       0.08041667 </v>
    <v>       0.00000000       0.50000000       0.16083333 </v>
    <v>       0.00000000       0.25000000       0.24124999 </v>
    <v>       0.12588652       0.31704261       0.49339644 </v>
    <v>       0.00000000       0.75000000       0.40208332 </v>
    <v>       0.04255319       0.40037594       0.90868688 </v>
    <v>       0.33333333       0.08333333       0.08041667 </v>
    <v>       0.33333333       0.83333333       0.16083333 </v>
    <v>       0.33333333       0.58333333       0.24124999 </v>
    <v>       0.33333333       0.33333333       0.32166666 </v>
    <v>       0.04255319       0.15037594       0.49339644 </v>
    <v>       0.45921986       0.23370927       0.90868688 </v>
    <v>       0.66666667       0.41666667       0.08041667 </v>
    <v>       0.66666667       0.16666667       0.16083333 </v>
    <v>       0.66666667       0.91666667       0.24124999 </v>
    <v>       0.66666667       0.66666667       0.32166666 </v>
    <v>       0.45921986       0.98370927       0.49339644 </v>
    <v>       0.70921986       0.23370927       0.90868688 </v>
    <v>       0.12588652       0.56704261       0.90868688 </v>
    <v>       0.00000000       0.00000000       0.16083333 </v>
    <v>       0.00000000       0.75000000       0.24124999 </v>
    <v>       0.00000000       0.50000000       0.32166666 </v>
    <v>       0.70921986       0.98370927       0.49339644 </v>
    <v>       0.12588652       0.81704261       0.82562879 </v>
    <v>       0.33333333       0.58333333       0.08041667 </v>
    <v>       0.33333333       0.33333333       0.16083333 </v>
    <v>       0.33333333       0.08333333       0.24124999 </v>
    <v>       0.33333333       0.83333333       0.32166666 </v>
    <v>       0.12588652       0.56704261       0.57645453 </v>
    <v>       0.04255319       0.90037594       0.90868688 </v>
    <v>       0.66666667       0.91666667       0.08041667 </v>
    <v>       0.66666667       0.66666667       0.16083333 </v>
    <v>       0.66666667       0.41666667       0.24124999 </v>
    <v>       0.66666667       0.16666667       0.32166666 </v>
    <v>       0.04255319       0.65037594       0.49339644 </v>
    <v>       0.08333333       0.33333333       0.00000000 </v>
    <v>       0.08333333       0.08333333       0.08041667 </v>
    <v>       0.08333333       0.83333333       0.16083333 </v>
    <v>       0.08333333       0.58333333       0.24124999 </v>
    <v>       0.08333333       0.33333333       0.32166666 </v>
    <v>       0.08333333       0.08333333       0.40208332 </v>
    <v>       0.41666667       0.66666667       0.00000000 </v>
    <v>       0.41666667       0.41666667       0.08041667 </v>
    <v>       0.41666667       0.16666667       0.16083333 </v>
    <v>       0.41666667       0.91666667       0.24124999 </v>
    <v>       0.41666667       0.66666667       0.32166666 </v>
    <v>       0.41666667       0.41666667       0.40208332 </v>
    <v>       0.75000000       0.00000000       0.00000000 </v>
    <v>       0.75000000       0.75000000       0.08041667 </v>
    <v>       0.75000000       0.50000000       0.16083333 </v>
    <v>       0.75000000       0.25000000       0.24124999 </v>
    <v>       0.75000000       0.00000000       0.32166666 </v>
    <v>       0.75000000       0.75000000       0.40208332 </v>
    <v>       0.08333333       0.83333333       0.00000000 </v>
    <v>       0.08333333       0.58333333       0.08041667 </v>
    <v>       0.08333333       0.33333333       0.16083333 </v>
    <v>       0.08333333       0.08333333       0.24124999 </v>
    <v>       0.08333333       0.83333333       0.32166666 </v>
    <v>       0.08333333       0.58333333       0.40208332 </v>
    <v>       0.41666667       0.16666667       0.00000000 </v>
    <v>       0.41666667       0.91666667       0.08041667 </v>
    <v>       0.41666667       0.66666667       0.16083333 </v>
    <v>       0.41666667       0.41666667       0.24124999 </v>
    <v>       0.41666667       0.16666667       0.32166666 </v>
    <v>       0.41666667       0.91666667       0.40208332 </v>
    <v>       0.75000000       0.50000000       0.00000000 </v>
    <v>       0.75000000       0.25000000       0.08041667 </v>
    <v>       0.75000000       0.00000000       0.16083333 </v>
    <v>       0.75000000       0.75000000       0.24124999 </v>
    <v>       0.75000000       0.50000000       0.32166666 </v>
    <v>       0.75000000       0.25000000       0.40208332 </v>
    <v>       0.33333333       0.08333333       0.40208332 </v>
    <v>       0.04255319       0.40037594       0.57645453 </v>
    <v>       0.04255319       0.65037594       0.65951262 </v>
    <v>       0.04255319       0.90037594       0.74257071 </v>
    <v>       0.04255319       0.15037594       0.82562879 </v>
    <v>       0.33333333       0.33333333       0.00000000 </v>
    <v>       0.37588652       0.81704261       0.49339644 </v>
    <v>       0.37588652       0.06704261       0.57645453 </v>
    <v>       0.37588652       0.31704261       0.65951262 </v>
    <v>       0.37588652       0.56704261       0.74257071 </v>
    <v>       0.37588652       0.81704261       0.82562879 </v>
    <v>       0.37588652       0.06704261       0.90868688 </v>
    <v>       0.70921986       0.48370927       0.49339644 </v>
    <v>       0.70921986       0.73370927       0.57645453 </v>
    <v>       0.70921986       0.98370927       0.65951262 </v>
    <v>       0.70921986       0.23370927       0.74257071 </v>
    <v>       0.70921986       0.48370927       0.82562879 </v>
    <v>       0.70921986       0.73370927       0.90868688 </v>
    <v>       0.66666667       0.91666667       0.40208332 </v>
    <v>       0.04255319       0.90037594       0.57645453 </v>
    <v>       0.04255319       0.15037594       0.65951262 </v>
    <v>       0.04255319       0.40037594       0.74257071 </v>
    <v>       0.04255319       0.65037594       0.82562879 </v>
    <v>       0.66666667       0.16666667       0.00000000 </v>
    <v>       0.37588652       0.31704261       0.49339644 </v>
    <v>       0.37588652       0.56704261       0.57645453 </v>
    <v>       0.37588652       0.81704261       0.65951262 </v>
    <v>       0.37588652       0.06704261       0.74257071 </v>
    <v>       0.37588652       0.31704261       0.82562879 </v>
    <v>       0.37588652       0.56704261       0.90868688 </v>
    <v>       0.00000000       0.25000000       0.40208332 </v>
    <v>       0.70921986       0.23370927       0.57645453 </v>
    <v>       0.70921986       0.48370927       0.65951262 </v>
    <v>       0.70921986       0.73370927       0.74257071 </v>
    <v>       0.70921986       0.98370927       0.82562879 </v>
    <v>       0.00000000       0.50000000       0.00000000 </v>
    <v>       0.12588652       0.81704261       0.49339644 </v>
    <v>       0.12588652       0.06704261       0.57645453 </v>
    <v>       0.12588652       0.31704261       0.65951262 </v>
    <v>       0.12588652       0.56704261       0.74257071 </v>
    <v>       0.33333333       0.83333333       0.00000000 </v>
    <v>       0.12588652       0.06704261       0.90868688 </v>
    <v>       0.45921986       0.48370927       0.49339644 </v>
    <v>       0.45921986       0.73370927       0.57645453 </v>
    <v>       0.45921986       0.98370927       0.65951262 </v>
    <v>       0.45921986       0.23370927       0.74257071 </v>
    <v>       0.45921986       0.48370927       0.82562879 </v>
    <v>       0.45921986       0.73370927       0.90868688 </v>
    <v>       0.79255319       0.15037594       0.49339644 </v>
    <v>       0.79255319       0.40037594       0.57645453 </v>
    <v>       0.79255319       0.65037594       0.65951262 </v>
    <v>       0.79255319       0.90037594       0.74257071 </v>
    <v>       0.79255319       0.15037594       0.82562879 </v>
    <v>       0.79255319       0.40037594       0.90868688 </v>
    <v>       0.00000000       0.00000000       0.32166666 </v>
    <v>       0.33333333       0.58333333       0.40208332 </v>
    <v>       0.12588652       0.81704261       0.65951262 </v>
    <v>       0.12588652       0.06704261       0.74257071 </v>
    <v>       0.12588652       0.31704261       0.82562879 </v>
    <v>       0.00000000       0.25000000       0.08041667 </v>
    <v>       0.66666667       0.41666667       0.40208332 </v>
    <v>       0.45921986       0.23370927       0.57645453 </v>
    <v>       0.45921986       0.48370927       0.65951262 </v>
    <v>       0.45921986       0.73370927       0.74257071 </v>
    <v>       0.45921986       0.98370927       0.82562879 </v>
    <v>       0.66666667       0.66666667       0.00000000 </v>
    <v>       0.79255319       0.65037594       0.49339644 </v>
    <v>       0.79255319       0.90037594       0.57645453 </v>
    <v>       0.79255319       0.15037594       0.65951262 </v>
    <v>       0.79255319       0.40037594       0.74257071 </v>
    <v>       0.79255319       0.65037594       0.82562879 </v>
    <v>       0.79255319       0.90037594       0.90868688 </v>
   </varray>
  </structure>
  <varray name="primitive_index" >
   <v type="int" >        1 </v>
   <v type="int" >        2 </v>
   <v type="int" >        3 </v>
   <v type="int" >        4 </v>
   <v type="int" >        5 </v>
   <v type="int" >        6 </v>
   <v type="int" >        7 </v>
   <v type="int" >        8 </v>
   <v type="int" >        9 </v>
   <v type="int" >       10 </v>
   <v type="int" >       11 </v>
   <v type="int" >       12 </v>
   <v type="int" >       13 </v>
   <v type="int" >       14 </v>
   <v type="int" >       15 </v>
   <v type="int" >       16 </v>
   <v type="int" >       17 </v>
   <v type="int" >       18 </v>
   <v type="int" >       19 </v>
   <v type="int" >       20 </v>
   <v type="int" >       21 </v>
   <v type="int" >       22 </v>
   <v type="int" >       23 </v>
   <v type="int" >       24 </v>
   <v type="int" >       25 </v>
   <v type="int" >       26 </v>
   <v type="int" >       27 </v>
   <v type="int" >       28 </v>
   <v type="int" >       29 </v>
   <v type="int" >       30 </v>
   <v type="int" >       31 </v>
   <v type="int" >       32 </v>
   <v type="int" >       33 </v>
   <v type="int" >       34 </v>
   <v type="int" >       35 </v>
   <v type="int" >       36 </v>
   <v type="int" >       37 </v>
   <v type="int" >       38 </v>
   <v type="int" >       39 </v>
   <v type="int" >       40 </v>
   <v type="int" >       41 </v>
   <v type="int" >       42 </v>
   <v type="int" >       43 </v>
   <v type="int" >       44 </v>
   <v type="int" >       45 </v>
   <v type="int" >       46 </v>
   <v type="int" >       47 </v>
   <v type="int" >       48 </v>
   <v type="int" >       49 </v>
   <v type="int" >       50 </v>
   <v type="int" >       51 </v>
   <v type="int" >       52 </v>
   <v type="int" >       53 </v>
   <v type="int" >       54 </v>
   <v type="int" >       55 </v>
   <v type="int" >       56 </v>
   <v type="int" >       57 </v>
   <v type="int" >       58 </v>
   <v type="int" >       59 </v>
   <v type="int" >       60 </v>
   <v type="int" >       61 </v>
   <v type="int" >       62 </v>
   <v type="int" >       63 </v>
   <v type="int" >       64 </v>
   <v type="int" >       65 </v>
   <v type="int" >       66 </v>
   <v type="int" >       67 </v>
   <v type="int" >       68 </v>
   <v type="int" >       69 </v>
   <v type="int" >       70 </v>
   <v type="int" >       71 </v>
   <v type="int" >       72 </v>
   <v type="int" >       73 </v>
   <v type="int" >       74 </v>
   <v type="int" >       75 </v>
   <v type="int" >       76 </v>
   <v type="int" >       77 </v>
   <v type="int" >       78 </v>
   <v type="int" >       79 </v>
   <v type="int" >       80 </v>
   <v type="int" >       81 </v>
   <v type="int" >       82 </v>
   <v type="int" >       83 </v>
   <v type="int" >       84 </v>
   <v type="int" >       85 </v>
   <v type="int" >       86 </v>
   <v type="int" >       87 </v>
   <v type="int" >       88 </v>
   <v type="int" >       89 </v>
   <v type="int" >       90 </v>
   <v type="int" >       91 </v>
   <v type="int" >       92 </v>
   <v type="int" >       93 </v>
   <v type="int" >       94 </v>
   <v type="int" >       95 </v>
   <v type="int" >       96 </v>
   <v type="int" >       97 </v>
   <v type="int" >       98 </v>
   <v type="int" >       99 </v>
   <v type="int" >      100 </v>
   <v type="int" >      101 </v>
   <v type="int" >      102 </v>
   <v type="int" >      103 </v>
   <v type="int" >      104 </v>
   <v type="int" >      105 </v>
   <v type="int" >      106 </v>
   <v type="int" >      107 </v>
   <v type="int" >      108 </v>
   <v type="int" >      109 </v>
   <v type="int" >      110 </v>
   <v type="int" >      111 </v>
   <v type="int" >      112 </v>
   <v type="int" >      113 </v>
   <v type="int" >      114 </v>
   <v type="int" >      115 </v>
   <v type="int" >      116 </v>
   <v type="int" >      117 </v>
   <v type="int" >      118 </v>
   <v type="int" >      119 </v>
   <v type="int" >      120 </v>
   <v type="int" >      121 </v>
   <v type="int" >      122 </v>
   <v type="int" >      123 </v>
   <v type="int" >      124 </v>
   <v type="int" >      125 </v>
   <v type="int" >      126 </v>
   <v type="int" >      127 </v>
   <v type="int" >      128 </v>
   <v type="int" >      129 </v>
   <v type="int" >      130 </v>
   <v type="int" >      131 </v>
   <v type="int" >      132 </v>
   <v type="int" >      133 </v>
   <v type="int" >      134 </v>
   <v type="int" >      135 </v>
   <v type="int" >      136 </v>
   <v type="int" >      137 </v>
   <v type="int" >      138 </v>
   <v type="int" >      139 </v>
   <v type="int" >      140 </v>
   <v type="int" >      141 </v>
   <v type="int" >      142 </v>
   <v type="int" >      143 </v>
   <v type="int" >      144 </v>
  </varray>
 </primitive_cell>
 <kpoints>
  <generation param="Gamma">
   <v type="int" name="divisions">       3        2        1 </v>
   <v name="usershift">      0.00000000       0.00000000       0.00000000 </v>
   <v name="genvec1">      0.33333333       0.00000000       0.00000000 </v>
   <v name="genvec2">      0.00000000       0.50000000       0.00000000 </v>
   <v name="genvec3">      0.00000000       0.00000000       1.00000000 </v>
   <v name="shift">      0.00000000       0.00000000       0.00000000 </v>
  </generation>
  <varray name="kpointlist" >
   <v>       0.00000000       0.00000000       0.00000000 </v>
   <v>       0.33333333       0.00000000       0.00000000 </v>
   <v>       0.00000000       0.50000000       0.00000000 </v>
   <v>       0.33333333       0.50000000       0.00000000 </v>
  </varray>
  <varray name="weights" >
   <v>       0.16666667 </v>
   <v>       0.33333333 </v>
   <v>       0.16666667 </v>
   <v>       0.33333333 </v>
  </varray>
 </kpoints>
 <parameters>
  <separator name="general" >
   <i type="string" name="SYSTEM">Si011 and Ge011 interface calculation</i>
   <i type="logical" name="LCOMPAT"> F  </i>
  </separator>
  <separator name="electronic" >
   <i type="string" name="PREC">normal</i>
   <i name="ENMAX">    700.00000000</i>
   <i name="ENAUG">    900.00000000</i>
   <i name="EDIFF">      0.00000010</i>
   <i type="int" name="IALGO">    38</i>
   <i type="int" name="IWAVPR">    10</i>
   <i type="int" name="NBANDS">   346</i>
   <i type="int" name="NBANDSLOW">    -1</i>
   <i type="int" name="NBANDSHIGH">    -1</i>
   <i name="NELECT">    576.00000000</i>
   <i type="int" name="TURBO">     0</i>
   <i type="int" name="IRESTART">     0</i>
   <i type="int" name="NREBOOT">     0</i>
   <i type="int" name="NMIN">     0</i>
   <i name="EREF">      0.00000000</i>
   <separator name="electronic smearing" >
    <i type="int" name="ISMEAR">     0</i>
    <i name="SIGMA">      0.01000000</i>
    <i name="KSPACING">      0.50000000</i>
    <i type="logical" name="KGAMMA"> T  </i>
    <i type="logical" name="KBLOWUP"> T  </i>
   </separator>
   <separator name="electronic projectors" >
    <i type="logical" name="LREAL"> T  </i>
    <v name="ROPT">     -0.00050000     -0.00050000</v>
    <i type="int" name="LMAXPAW">  -100</i>
    <i type="int" name="LMAXMIX">     6</i>
    <i type="logical" name="NLSPLINE"> F  </i>
   </separator>
   <separator name="electronic startup" >
    <i type="int" name="ISTART">     0</i>
    <i type="int" name="ICHARG">     2</i>
    <i type="int" name="INIWAV">     1</i>
   </separator>
   <separator name="electronic spin" >
    <i type="int" name="ISPIN">     2</i>
    <i type="logical" name="LNONCOLLINEAR"> F  </i>
    <v name="MAGMOM">      0.00694444      0.00694444      0.00694444      0.00694444      0.00694444      0.00694444      0.00694444      0.00694444      0.00694444      0.00694444      0.00694444      0.00694444      0.00694444      0.00694444      0.00694444      0.00694444      0.00694444      0.00694444      0.00694444      0.00694444
      0.00694444      0.00694444      0.00694444      0.00694444      0.00694444      0.00694444      0.00694444      0.00694444      0.00694444      0.00694444      0.00694444      0.00694444      0.00694444      0.00694444      0.00694444      0.00694444      0.00694444      0.00694444      0.00694444      0.00694444
      0.00694444      0.00694444      0.00694444      0.00694444      0.00694444      0.00694444      0.00694444      0.00694444      0.00694444      0.00694444      0.00694444      0.00694444      0.00694444      0.00694444      0.00694444      0.00694444      0.00694444      0.00694444      0.00694444      0.00694444
      0.00694444      0.00694444      0.00694444      0.00694444      0.00694444      0.00694444      0.00694444      0.00694444      0.00694444      0.00694444      0.00694444      0.00694444      0.00694444      0.00694444      0.00694444      0.00694444      0.00694444      0.00694444      0.00694444      0.00694444
      0.00694444      0.00694444      0.00694444      0.00694444      0.00694444      0.00694444      0.00694444      0.00694444      0.00694444      0.00694444      0.00694444      0.00694444      0.00694444      0.00694444      0.00694444      0.00694444      0.00694444      0.00694444      0.00694444      0.00694444
      0.00694444      0.00694444      0.00694444      0.00694444      0.00694444      0.00694444      0.00694444      0.00694444      0.00694444      0.00694444      0.00694444      0.00694444      0.00694444      0.00694444      0.00694444      0.00694444      0.00694444      0.00694444      0.00694444      0.00694444
      0.00694444      0.00694444      0.00694444      0.00694444      0.00694444      0.00694444      0.00694444      0.00694444      0.00694444      0.00694444      0.00694444      0.00694444      0.00694444      0.00694444      0.00694444      0.00694444      0.00694444      0.00694444      0.00694444      0.00694444
      0.00694444      0.00694444      0.00694444      0.00694444</v>
    <i name="NUPDOWN">      1.00000000</i>
    <i type="logical" name="LSORBIT"> F  </i>
    <v name="SAXIS">      0.00000000      0.00000000      1.00000000</v>
    <i type="logical" name="LSPIRAL"> F  </i>
    <v name="QSPIRAL">      0.00000000      0.00000000      0.00000000</v>
    <i type="logical" name="LZEROZ"> F  </i>
   </separator>
   <separator name="electronic exchange-correlation" >
    <i type="logical" name="LASPH"> T  </i>
   </separator>
   <separator name="electronic convergence" >
    <i type="int" name="NELM">   100</i>
    <i type="int" name="NELMDL">    -5</i>
    <i type="int" name="NELMIN">     2</i>
    <i name="ENINI">    700.00000000</i>
    <separator name="electronic convergence detail" >
     <i type="logical" name="LDIAG"> T  </i>
     <i type="logical" name="LSUBROT"> F  </i>
     <i name="WEIMIN">      0.00000000</i>
     <i name="EBREAK">      0.00000000</i>
     <i name="DEPER">      0.30000000</i>
     <i type="int" name="NRMM">     4</i>
     <i name="TIME">      0.40000000</i>
    </separator>
   </separator>
   <separator name="electronic mixer" >
    <i name="AMIX">      0.60000000</i>
    <i name="BMIX">      1.00000000</i>
    <i name="AMIN">      0.10000000</i>
    <i name="AMIX_MAG">      2.40000000</i>
    <i name="BMIX_MAG">      1.00000000</i>
    <separator name="electronic mixer details" >
     <i type="int" name="IMIX">     4</i>
     <i type="logical" name="MIXFIRST"> F  </i>
     <i type="int" name="MAXMIX">   -45</i>
     <i name="WC">    100.00000000</i>
     <i type="int" name="INIMIX">     1</i>
     <i type="int" name="MIXPRE">     1</i>
     <i type="int" name="MREMOVE">     5</i>
    </separator>
   </separator>
   <separator name="electronic dipolcorrection" >
    <i type="logical" name="LDIPOL"> F  </i>
    <i type="logical" name="LMONO"> F  </i>
    <i type="int" name="IDIPOL">     0</i>
    <i name="EPSILON">      1.00000000</i>
    <v name="DIPOL">   -100.00000000   -100.00000000   -100.00000000</v>
    <i name="EFIELD">      0.00000000</i>
    <i type="logical" name="LVACPOTAV"> F  </i>
   </separator>
  </separator>
  <separator name="grids" >
   <i type="int" name="NGX">    64</i>
   <i type="int" name="NGY">    90</i>
   <i type="int" name="NGZ">   160</i>
   <i type="int" name="NGXF">   128</i>
   <i type="int" name="NGYF">   180</i>
   <i type="int" name="NGZF">   320</i>
   <i type="logical" name="ADDGRID"> T  </i>
  </separator>
  <separator name="ionic" >
   <i type="int" name="NSW">     0</i>
   <i type="int" name="IBRION">    -1</i>
   <i type="int" name="MDALGO">     0</i>
   <i type="int" name="ISIF">     2</i>
   <i name="PSTRESS">      0.00000000</i>
   <i name="EDIFFG">      0.00000100</i>
   <i type="int" name="NFREE">     0</i>
   <i name="POTIM">      0.50000000</i>
   <i name="SMASS">     -3.00000000</i>
   <i name="SCALEE">      1.00000000</i>
  </separator>
  <separator name="ionic md" >
   <i name="TEBEG">      0.00010000</i>
   <i name="TEEND">      0.00010000</i>
   <i type="int" name="NBLOCK">     1</i>
   <i type="int" name="KBLOCK">     1</i>
   <i type="int" name="NPACO">   256</i>
   <i name="APACO">     10.00000000</i>
  </separator>
  <separator name="symmetry" >
   <i type="int" name="ISYM">     2</i>
   <i name="SYMPREC">      0.00001000</i>
  </separator>
  <separator name="dos" >
   <i type="int" name="LORBIT">     0</i>
   <v name="RWIGS">     -1.00000000     -1.00000000</v>
   <i type="int" name="NEDOS">   301</i>
   <i name="EMIN">     10.00000000</i>
   <i name="EMAX">    -10.00000000</i>
   <i name="EFERMI">      0.00000000</i>
  </separator>
  <separator name="writing" >
   <i type="int" name="NWRITE">     2</i>
   <i type="logical" name="LWAVE"> F  </i>
   <i type="logical" name="LDOWNSAMPLE"> F  </i>
   <i type="logical" name="LCHARG"> T  </i>
   <i type="logical" name="LPARD"> F  </i>
   <i type="logical" name="LVTOT"> F  </i>
   <i type="logical" name="LVHAR"> T  </i>
   <i type="logical" name="LELF"> F  </i>
   <i type="logical" name="LOPTICS"> F  </i>
   <v name="STM">      0.00000000      0.00000000      0.00000000      0.00000000      0.00000000      0.00000000      0.00000000</v>
  </separator>
  <separator name="performance" >
   <i type="int" name="NPAR">     1</i>
   <i type="int" name="NSIM">     4</i>
   <i type="int" name="NBLK">    -1</i>
   <i type="logical" name="LPLANE"> T  </i>
   <i type="logical" name="LSCALAPACK"> T  </i>
   <i type="logical" name="LSCAAWARE"> F  </i>
   <i type="logical" name="LSCALU"> F  </i>
   <i type="logical" name="LASYNC"> F  </i>
   <i type="logical" name="LORBITALREAL"> F  </i>
  </separator>
  <separator name="miscellaneous" >
   <i type="int" name="IDIOT">     3</i>
   <i type="int" name="PHON_NSTRUCT">    -1</i>
   <i type="logical" name="LMUSIC"> F  </i>
   <v name="POMASS">     28.08500000     72.61000000</v>
   <v name="DARWINR">      0.00000000      0.00000000</v>
   <v name="DARWINV">      1.00000000      1.00000000</v>
   <i type="logical" name="LCORR"> T  </i>
  </separator>
  <i type="logical" name="GGA_COMPAT"> T  </i>
  <i type="logical" name="LBERRY"> F  </i>
  <i type="int" name="ICORELEVEL">     0</i>
  <i type="logical" name="LDAU"> F  </i>
  <i type="int" name="I_CONSTRAINED_M">     0</i>
  <separator name="electronic exchange-correlation" >
   <i type="string" name="GGA    ">PE</i>
   <i type="string" name="XC_C">1</i>
   <i type="int" name="VOSKOWN">     0</i>
   <i type="logical" name="LHFCALC"> F  </i>
   <i type="string" name="PRECFOCK"></i>
   <i type="logical" name="LSYMGRAD"> F  </i>
   <i type="logical" name="LHFONE"> F  </i>
   <i type="logical" name="LRHFCALC"> F  </i>
   <i type="logical" name="LTHOMAS"> F  </i>
   <i type="logical" name="LMODELHF"> F  </i>
   <i type="logical" name="LFOCKACE"> F  </i>
   <i name="ENCUT4O">     -1.00000000</i>
   <i type="int" name="EXXOEP">     0</i>
   <i type="int" name="FOURORBIT">     0</i>
   <i name="AEXX">      0.00000000</i>
   <i name="HFALPHA">      0.00000000</i>
   <i name="MCALPHA">      0.00000000</i>
   <i name="ALDAX">      1.00000000</i>
   <i name="AGGAX">      1.00000000</i>
   <i name="AMGGAX">      1.00000000</i>
   <i name="ALDAC">      1.00000000</i>
   <i name="AGGAC">      1.00000000</i>
   <i name="AMGGAC">      1.00000000</i>
   <i type="int" name="NKREDX">     1</i>
   <i type="int" name="NKREDY">     1</i>
   <i type="int" name="NKREDZ">     1</i>
   <i type="logical" name="SHIFTRED"> F  </i>
   <i type="logical" name="ODDONLY"> F  </i>
   <i type="logical" name="EVENONLY"> F  </i>
   <i type="int" name="LMAXFOCK">     0</i>
   <i type="int" name="NMAXFOCKAE">     0</i>
   <i type="logical" name="LFOCKAEDFT"> F  </i>
   <i name="HFSCREEN">      0.00000000</i>
   <i name="HFSCREENC">      0.00000000</i>
   <i type="int" name="NBANDSGWLOW">     0</i>
  </separator>
  <separator name="vdW DFT" >
   <i type="logical" name="LUSE_VDW"> F  </i>
   <i type="int" name="IVDW_NL">    -1</i>
   <i type="logical" name="LSPIN_VDW"> F  </i>
   <i name="ZAB_VDW">     -0.84910000</i>
   <i name="GAMMA_VDW">      1.39626340</i>
   <i name="ALPHA_VDW">      0.00000000</i>
   <i name="PARAM1">      0.12340000</i>
   <i name="PARAM2">      1.00000000</i>
   <i name="BPARAM">      6.30000000</i>
   <i name="CPARAM">      0.00930000</i>
  </separator>
  <separator name="model GW" >
   <i type="int" name="MODEL_GW">     0</i>
   <i name="MODEL_EPS0">     12.79014994</i>
   <i name="MODEL_ALPHA">      1.00000000</i>
  </separator>
  <separator name="linear response parameters" >
   <i type="logical" name="LEPSILON"> F  </i>
   <i type="logical" name="LRPA"> F  </i>
   <i type="logical" name="LNABLA"> F  </i>
   <i type="logical" name="LVEL"> F  </i>
   <i name="CSHIFT">      0.10000000</i>
   <i name="OMEGAMAX">     -1.00000000</i>
   <i name="DEG_THRESHOLD">      0.00200000</i>
   <i name="RTIME">     -0.10000000</i>
   <i name="WPLASMAI">      0.00000000</i>
   <v name="DFIELD">      0.00000000      0.00000000      0.00000000</v>
   <v name="WPLASMA">      0.00000000      0.00000000      0.00000000      0.00000000      0.00000000      0.00000000      0.00000000      0.00000000      0.00000000</v>
  </separator>
  <separator name="orbital magnetization" >
   <i type="logical" name="NUCIND"> F  </i>
   <v name="MAGPOS">      0.00000000      0.00000000      0.00000000</v>
   <i type="logical" name="LNICSALL"> T  </i>
   <i type="logical" name="ORBITALMAG"> F  </i>
   <i type="logical" name="LMAGBLOCH"> F  </i>
   <i type="logical" name="LCHIMAG"> F  </i>
   <i type="logical" name="LGAUGE"> T  </i>
   <i type="int" name="MAGATOM">     0</i>
   <v name="MAGDIPOL">      0.00000000      0.00000000      0.00000000</v>
   <v name="AVECCONST">      0.00000000      0.00000000      0.00000000</v>
  </separator>
  <separator name="response functions" >
   <i type="logical" name="LALL_IN_ONE"> F  </i>
   <i type="int" name="IALL_IN_ONE">    -1</i>
   <i type="int" name="NBANDS_WAVE">    -1</i>
   <i type="logical" name="LFINITE_TEMPERATURE"> F  </i>
   <i type="logical" name="LADDER"> F  </i>
   <i type="logical" name="LRPAFORCE"> F  </i>
   <i type="logical" name="LFXC"> F  </i>
   <i type="logical" name="LHARTREE"> T  </i>
   <i type="int" name="IBSE">     0</i>
   <v type="int" name="KPOINT">    -1     0     0     0</v>
   <i type="logical" name="LTCTC"> F  </i>
   <i type="logical" name="LTCTE"> F  </i>
   <i type="logical" name="LTETE"> F  </i>
   <i type="logical" name="LTRIPLET"> F  </i>
   <i type="logical" name="LFXCEPS"> F  </i>
   <i type="logical" name="LFXHEG"> F  </i>
   <i type="int" name="NATURALO">     2</i>
   <i type="logical" name="LHOLEGF"> F  </i>
   <i type="logical" name="L2ORDER"> F  </i>
   <i type="logical" name="LDMP1"> F  </i>
   <i type="logical" name="LMP2LT"> F  </i>
   <i type="logical" name="LSMP2LT"> F  </i>
   <i type="logical" name="LGWLF"> F  </i>
   <i name="ENCUTGW">     -1.60000002</i>
   <i name="ENCUTGWSOFT">     -1.60000002</i>
   <i name="ENCUTLF">     -1.00000000</i>
   <i type="logical" name="ESF_SPLINES"> F  </i>
   <i name="ESF_CONV">      0.01000000</i>
   <i type="int" name="ESF_NINTER">    15</i>
   <i type="int" name="LMAXMP2">    -1</i>
   <i name="SCISSOR">      0.00000000</i>
   <i type="int" name="NOMEGA">     0</i>
   <i type="int" name="NOMEGAR">     0</i>
   <i type="int" name="NBANDSGW">    -1</i>
   <i type="int" name="NBANDSO">    -1</i>
   <i type="int" name="NBANDSV">    -1</i>
   <i type="int" name="NELMGW">     1</i>
   <i type="int" name="NELMHF">     1</i>
   <i type="int" name="DIM">     3</i>
   <i type="int" name="IESPILON">     4</i>
   <i type="int" name="ANTIRES">     0</i>
   <i name="OMEGAMAX">    -30.00000000</i>
   <i name="OMEGAMIN">    -30.00000000</i>
   <i name="OMEGATL">   -200.00000000</i>
   <i type="int" name="OMEGAGRID">     0</i>
   <i name="CSHIFT">     -0.10000000</i>
   <i type="logical" name="LSELFENERGY"> F  </i>
   <i type="logical" name="LSPECTRAL"> F  </i>
   <i type="logical" name="LSPECTRALGW"> F  </i>
   <i type="logical" name="LSINGLES"> F  </i>
   <i type="logical" name="LFERMIGW"> F  </i>
   <i type="logical" name="ODDONLYGW"> F  </i>
   <i type="logical" name="EVENONLYGW"> F  </i>
   <i type="int" name="NKREDLFX">     1</i>
   <i type="int" name="NKREDLFY">     1</i>
   <i type="int" name="NKREDLFZ">     1</i>
   <i type="int" name="MAXMEM">  2800</i>
   <i type="int" name="TELESCOPE">     0</i>
   <i type="int" name="NTAUPAR">    -1</i>
   <i type="int" name="NOMEGAPAR">    -1</i>
   <i name="DAMP_NEWTON">      0.80000001</i>
   <i name="LAMBDA">      1.00000000</i>
  </separator>
  <separator name="External order field" >
   <i name="OFIELD_KAPPA">      0.00000000</i>
   <v name="OFIELD_K">      0.00000000      0.00000000      0.00000000</v>
   <i name="OFIELD_Q6_NEAR">      0.00000000</i>
   <i name="OFIELD_Q6_FAR">      0.00000000</i>
   <i name="OFIELD_A">      0.00000000</i>
  </separator>
  <separator name="optional k-points parameters" >
   <i type="int" name="KPOINTS_OPT_MODE">     1</i>
   <i type="logical" name="LKPOINTS_OPT"> F  </i>
  </separator>
 </parameters>
 <atominfo>
  <atoms>     144 </atoms>
  <types>       2 </types>
  <array name="atoms" >
   <dimension dim="1">ion</dimension>
   <field type="string">element</field>
   <field type="int">atomtype</field>
   <set>
    <rc><c>Si</c><c>   1</c></rc>
    <rc><c>Si</c><c>   1</c></rc>
    <rc><c>Si</c><c>   1</c></rc>
    <rc><c>Si</c><c>   1</c></rc>
    <rc><c>Si</c><c>   1</c></rc>
    <rc><c>Si</c><c>   1</c></rc>
    <rc><c>Si</c><c>   1</c></rc>
    <rc><c>Si</c><c>   1</c></rc>
    <rc><c>Si</c><c>   1</c></rc>
    <rc><c>Si</c><c>   1</c></rc>
    <rc><c>Si</c><c>   1</c></rc>
    <rc><c>Si</c><c>   1</c></rc>
    <rc><c>Si</c><c>   1</c></rc>
    <rc><c>Si</c><c>   1</c></rc>
    <rc><c>Si</c><c>   1</c></rc>
    <rc><c>Si</c><c>   1</c></rc>
    <rc><c>Si</c><c>   1</c></rc>
    <rc><c>Si</c><c>   1</c></rc>
    <rc><c>Si</c><c>   1</c></rc>
    <rc><c>Si</c><c>   1</c></rc>
    <rc><c>Si</c><c>   1</c></rc>
    <rc><c>Si</c><c>   1</c></rc>
    <rc><c>Si</c><c>   1</c></rc>
    <rc><c>Si</c><c>   1</c></rc>
    <rc><c>Si</c><c>   1</c></rc>
    <rc><c>Si</c><c>   1</c></rc>
    <rc><c>Si</c><c>   1</c></rc>
    <rc><c>Si</c><c>   1</c></rc>
    <rc><c>Si</c><c>   1</c></rc>
    <rc><c>Si</c><c>   1</c></rc>
    <rc><c>Si</c><c>   1</c></rc>
    <rc><c>Si</c><c>   1</c></rc>
    <rc><c>Si</c><c>   1</c></rc>
    <rc><c>Si</c><c>   1</c></rc>
    <rc><c>Si</c><c>   1</c></rc>
    <rc><c>Si</c><c>   1</c></rc>
    <rc><c>Si</c><c>   1</c></rc>
    <rc><c>Si</c><c>   1</c></rc>
    <rc><c>Si</c><c>   1</c></rc>
    <rc><c>Si</c><c>   1</c></rc>
    <rc><c>Si</c><c>   1</c></rc>
    <rc><c>Si</c><c>   1</c></rc>
    <rc><c>Si</c><c>   1</c></rc>
    <rc><c>Si</c><c>   1</c></rc>
    <rc><c>Si</c><c>   1</c></rc>
    <rc><c>Si</c><c>   1</c></rc>
    <rc><c>Si</c><c>   1</c></rc>
    <rc><c>Si</c><c>   1</c></rc>
    <rc><c>Si</c><c>   1</c></rc>
    <rc><c>Si</c><c>   1</c></rc>
    <rc><c>Si</c><c>   1</c></rc>
    <rc><c>Si</c><c>   1</c></rc>
    <rc><c>Si</c><c>   1</c></rc>
    <rc><c>Si</c><c>   1</c></rc>
    <rc><c>Si</c><c>   1</c></rc>
    <rc><c>Si</c><c>   1</c></rc>
    <rc><c>Si</c><c>   1</c></rc>
    <rc><c>Si</c><c>   1</c></rc>
    <rc><c>Si</c><c>   1</c></rc>
    <rc><c>Si</c><c>   1</c></rc>
    <rc><c>Si</c><c>   1</c></rc>
    <rc><c>Si</c><c>   1</c></rc>
    <rc><c>Si</c><c>   1</c></rc>
    <rc><c>Si</c><c>   1</c></rc>
    <rc><c>Si</c><c>   1</c></rc>
    <rc><c>Si</c><c>   1</c></rc>
    <rc><c>Si</c><c>   1</c></rc>
    <rc><c>Si</c><c>   1</c></rc>
    <rc><c>Si</c><c>   1</c></rc>
    <rc><c>Si</c><c>   1</c></rc>
    <rc><c>Si</c><c>   1</c></rc>
    <rc><c>Si</c><c>   1</c></rc>
    <rc><c>Ge</c><c>   2</c></rc>
    <rc><c>Ge</c><c>   2</c></rc>
    <rc><c>Ge</c><c>   2</c></rc>
    <rc><c>Ge</c><c>   2</c></rc>
    <rc><c>Ge</c><c>   2</c></rc>
    <rc><c>Ge</c><c>   2</c></rc>
    <rc><c>Ge</c><c>   2</c></rc>
    <rc><c>Ge</c><c>   2</c></rc>
    <rc><c>Ge</c><c>   2</c></rc>
    <rc><c>Ge</c><c>   2</c></rc>
    <rc><c>Ge</c><c>   2</c></rc>
    <rc><c>Ge</c><c>   2</c></rc>
    <rc><c>Ge</c><c>   2</c></rc>
    <rc><c>Ge</c><c>   2</c></rc>
    <rc><c>Ge</c><c>   2</c></rc>
    <rc><c>Ge</c><c>   2</c></rc>
    <rc><c>Ge</c><c>   2</c></rc>
    <rc><c>Ge</c><c>   2</c></rc>
    <rc><c>Ge</c><c>   2</c></rc>
    <rc><c>Ge</c><c>   2</c></rc>
    <rc><c>Ge</c><c>   2</c></rc>
    <rc><c>Ge</c><c>   2</c></rc>
    <rc><c>Ge</c><c>   2</c></rc>
    <rc><c>Ge</c><c>   2</c></rc>
    <rc><c>Ge</c><c>   2</c></rc>
    <rc><c>Ge</c><c>   2</c></rc>
    <rc><c>Ge</c><c>   2</c></rc>
    <rc><c>Ge</c><c>   2</c></rc>
    <rc><c>Ge</c><c>   2</c></rc>
    <rc><c>Ge</c><c>   2</c></rc>
    <rc><c>Ge</c><c>   2</c></rc>
    <rc><c>Ge</c><c>   2</c></rc>
    <rc><c>Ge</c><c>   2</c></rc>
    <rc><c>Ge</c><c>   2</c></rc>
    <rc><c>Ge</c><c>   2</c></rc>
    <rc><c>Ge</c><c>   2</c></rc>
    <rc><c>Ge</c><c>   2</c></rc>
    <rc><c>Ge</c><c>   2</c></rc>
    <rc><c>Ge</c><c>   2</c></rc>
    <rc><c>Ge</c><c>   2</c></rc>
    <rc><c>Ge</c><c>   2</c></rc>
    <rc><c>Ge</c><c>   2</c></rc>
    <rc><c>Ge</c><c>   2</c></rc>
    <rc><c>Ge</c><c>   2</c></rc>
    <rc><c>Ge</c><c>   2</c></rc>
    <rc><c>Ge</c><c>   2</c></rc>
    <rc><c>Ge</c><c>   2</c></rc>
    <rc><c>Ge</c><c>   2</c></rc>
    <rc><c>Ge</c><c>   2</c></rc>
    <rc><c>Ge</c><c>   2</c></rc>
    <rc><c>Ge</c><c>   2</c></rc>
    <rc><c>Ge</c><c>   2</c></rc>
    <rc><c>Ge</c><c>   2</c></rc>
    <rc><c>Ge</c><c>   2</c></rc>
    <rc><c>Ge</c><c>   2</c></rc>
    <rc><c>Ge</c><c>   2</c></rc>
    <rc><c>Ge</c><c>   2</c></rc>
    <rc><c>Ge</c><c>   2</c></rc>
    <rc><c>Ge</c><c>   2</c></rc>
    <rc><c>Ge</c><c>   2</c></rc>
    <rc><c>Ge</c><c>   2</c></rc>
    <rc><c>Ge</c><c>   2</c></rc>
    <rc><c>Ge</c><c>   2</c></rc>
    <rc><c>Ge</c><c>   2</c></rc>
    <rc><c>Ge</c><c>   2</c></rc>
    <rc><c>Ge</c><c>   2</c></rc>
    <rc><c>Ge</c><c>   2</c></rc>
    <rc><c>Ge</c><c>   2</c></rc>
    <rc><c>Ge</c><c>   2</c></rc>
    <rc><c>Ge</c><c>   2</c></rc>
    <rc><c>Ge</c><c>   2</c></rc>
    <rc><c>Ge</c><c>   2</c></rc>
   </set>
  </array>
  <array name="atomtypes" >
   <dimension dim="1">type</dimension>
   <field type="int">atomspertype</field>
   <field type="string">element</field>
   <field>mass</field>
   <field>valence</field>
   <field type="string">pseudopotential</field>
   <set>
    <rc><c>  72</c><c>Si</c><c>     28.08500000</c><c>      4.00000000</c><c>  PAW_PBE Si 05Jan2001                  </c></rc>
    <rc><c>  72</c><c>Ge</c><c>     72.61000000</c><c>      4.00000000</c><c>  PAW_PBE Ge 05Jan2001                  </c></rc>
   </set>
  </array>
 </atominfo>
 <structure name="initialpos" >
  <crystal>
   <varray name="basis" >
    <v>       9.49163842       0.00000000       0.00000000 </v>
    <v>       0.00000000      13.42320379       0.00000000 </v>
    <v>       0.00000000       0.00000000      24.09292386 </v>
   </varray>
   <i name="volume">   3069.63598605 </i>
   <varray name="rec_basis" >
    <v>       0.10535589       0.00000000       0.00000000 </v>
    <v>       0.00000000       0.07449786       0.00000000 </v>
    <v>       0.00000000       0.00000000       0.04150596 </v>
   </varray>
  </crystal>
  <varray name="positions" >
   <v>       0.00000000       0.00000000       0.00000000 </v>
   <v>       0.00000000       0.75000000       0.08041667 </v>
   <v>       0.00000000       0.50000000       0.16083333 </v>
   <v>       0.00000000       0.25000000       0.24124999 </v>
   <v>       0.12588652       0.31704261       0.49339644 </v>
   <v>       0.00000000       0.75000000       0.40208332 </v>
   <v>       0.04255319       0.40037594       0.90868688 </v>
   <v>       0.33333333       0.08333333       0.08041667 </v>
   <v>       0.33333333       0.83333333       0.16083333 </v>
   <v>       0.33333333       0.58333333       0.24124999 </v>
   <v>       0.33333333       0.33333333       0.32166666 </v>
   <v>       0.04255319       0.15037594       0.49339644 </v>
   <v>       0.45921986       0.23370927       0.90868688 </v>
   <v>       0.66666667       0.41666667       0.08041667 </v>
   <v>       0.66666667       0.16666667       0.16083333 </v>
   <v>       0.66666667       0.91666667       0.24124999 </v>
   <v>       0.66666667       0.66666667       0.32166666 </v>
   <v>       0.45921986       0.98370927       0.49339644 </v>
   <v>       0.70921986       0.23370927       0.90868688 </v>
   <v>       0.12588652       0.56704261       0.90868688 </v>
   <v>       0.00000000       0.00000000       0.16083333 </v>
   <v>       0.00000000       0.75000000       0.24124999 </v>
   <v>       0.00000000       0.50000000       0.32166666 </v>
   <v>       0.70921986       0.98370927       0.49339644 </v>
   <v>       0.12588652       0.81704261       0.82562879 </v>
   <v>       0.33333333       0.58333333       0.08041667 </v>
   <v>       0.33333333       0.33333333       0.16083333 </v>
   <v>       0.33333333       0.08333333       0.24124999 </v>
   <v>       0.33333333       0.83333333       0.32166666 </v>
   <v>       0.12588652       0.56704261       0.57645453 </v>
   <v>       0.04255319       0.90037594       0.90868688 </v>
   <v>       0.66666667       0.91666667       0.08041667 </v>
   <v>       0.66666667       0.66666667       0.16083333 </v>
   <v>       0.66666667       0.41666667       0.24124999 </v>
   <v>       0.66666667       0.16666667       0.32166666 </v>
   <v>       0.04255319       0.65037594       0.49339644 </v>
   <v>       0.08333333       0.33333333       0.00000000 </v>
   <v>       0.08333333       0.08333333       0.08041667 </v>
   <v>       0.08333333       0.83333333       0.16083333 </v>
   <v>       0.08333333       0.58333333       0.24124999 </v>
   <v>       0.08333333       0.33333333       0.32166666 </v>
   <v>       0.08333333       0.08333333       0.40208332 </v>
   <v>       0.41666667       0.66666667       0.00000000 </v>
   <v>       0.41666667       0.41666667       0.08041667 </v>
   <v>       0.41666667       0.16666667       0.16083333 </v>
   <v>       0.41666667       0.91666667       0.24124999 </v>
   <v>       0.41666667       0.66666667       0.32166666 </v>
   <v>       0.41666667       0.41666667       0.40208332 </v>
   <v>       0.75000000       0.00000000       0.00000000 </v>
   <v>       0.75000000       0.75000000       0.08041667 </v>
   <v>       0.75000000       0.50000000       0.16083333 </v>
   <v>       0.75000000       0.25000000       0.24124999 </v>
   <v>       0.75000000       0.00000000       0.32166666 </v>
   <v>       0.75000000       0.75000000       0.40208332 </v>
   <v>       0.08333333       0.83333333       0.00000000 </v>
   <v>       0.08333333       0.58333333       0.08041667 </v>
   <v>       0.08333333       0.33333333       0.16083333 </v>
   <v>       0.08333333       0.08333333       0.24124999 </v>
   <v>       0.08333333       0.83333333       0.32166666 </v>
   <v>       0.08333333       0.58333333       0.40208332 </v>
   <v>       0.41666667       0.16666667       0.00000000 </v>
   <v>       0.41666667       0.91666667       0.08041667 </v>
   <v>       0.41666667       0.66666667       0.16083333 </v>
   <v>       0.41666667       0.41666667       0.24124999 </v>
   <v>       0.41666667       0.16666667       0.32166666 </v>
   <v>       0.41666667       0.91666667       0.40208332 </v>
   <v>       0.75000000       0.50000000       0.00000000 </v>
   <v>       0.75000000       0.25000000       0.08041667 </v>
   <v>       0.75000000       0.00000000       0.16083333 </v>
   <v>       0.75000000       0.75000000       0.24124999 </v>
   <v>       0.75000000       0.50000000       0.32166666 </v>
   <v>       0.75000000       0.25000000       0.40208332 </v>
   <v>       0.33333333       0.08333333       0.40208332 </v>
   <v>       0.04255319       0.40037594       0.57645453 </v>
   <v>       0.04255319       0.65037594       0.65951262 </v>
   <v>       0.04255319       0.90037594       0.74257071 </v>
   <v>       0.04255319       0.15037594       0.82562879 </v>
   <v>       0.33333333       0.33333333       0.00000000 </v>
   <v>       0.37588652       0.81704261       0.49339644 </v>
   <v>       0.37588652       0.06704261       0.57645453 </v>
   <v>       0.37588652       0.31704261       0.65951262 </v>
   <v>       0.37588652       0.56704261       0.74257071 </v>
   <v>       0.37588652       0.81704261       0.82562879 </v>
   <v>       0.37588652       0.06704261       0.90868688 </v>
   <v>       0.70921986       0.48370927       0.49339644 </v>
   <v>       0.70921986       0.73370927       0.57645453 </v>
   <v>       0.70921986       0.98370927       0.65951262 </v>
   <v>       0.70921986       0.23370927       0.74257071 </v>
   <v>       0.70921986       0.48370927       0.82562879 </v>
   <v>       0.70921986       0.73370927       0.90868688 </v>
   <v>       0.66666667       0.91666667       0.40208332 </v>
   <v>       0.04255319       0.90037594       0.57645453 </v>
   <v>       0.04255319       0.15037594       0.65951262 </v>
   <v>       0.04255319       0.40037594       0.74257071 </v>
   <v>       0.04255319       0.65037594       0.82562879 </v>
   <v>       0.66666667       0.16666667       0.00000000 </v>
   <v>       0.37588652       0.31704261       0.49339644 </v>
   <v>       0.37588652       0.56704261       0.57645453 </v>
   <v>       0.37588652       0.81704261       0.65951262 </v>
   <v>       0.37588652       0.06704261       0.74257071 </v>
   <v>       0.37588652       0.31704261       0.82562879 </v>
   <v>       0.37588652       0.56704261       0.90868688 </v>
   <v>       0.00000000       0.25000000       0.40208332 </v>
   <v>       0.70921986       0.23370927       0.57645453 </v>
   <v>       0.70921986       0.48370927       0.65951262 </v>
   <v>       0.70921986       0.73370927       0.74257071 </v>
   <v>       0.70921986       0.98370927       0.82562879 </v>
   <v>       0.00000000       0.50000000       0.00000000 </v>
   <v>       0.12588652       0.81704261       0.49339644 </v>
   <v>       0.12588652       0.06704261       0.57645453 </v>
   <v>       0.12588652       0.31704261       0.65951262 </v>
   <v>       0.12588652       0.56704261       0.74257071 </v>
   <v>       0.33333333       0.83333333       0.00000000 </v>
   <v>       0.12588652       0.06704261       0.90868688 </v>
   <v>       0.45921986       0.48370927       0.49339644 </v>
   <v>       0.45921986       0.73370927       0.57645453 </v>
   <v>       0.45921986       0.98370927       0.65951262 </v>
   <v>       0.45921986       0.23370927       0.74257071 </v>
   <v>       0.45921986       0.48370927       0.82562879 </v>
   <v>       0.45921986       0.73370927       0.90868688 </v>
   <v>       0.79255319       0.15037594       0.49339644 </v>
   <v>       0.79255319       0.40037594       0.57645453 </v>
   <v>       0.79255319       0.65037594       0.65951262 </v>
   <v>       0.79255319       0.90037594       0.74257071 </v>
   <v>       0.79255319       0.15037594       0.82562879 </v>
   <v>       0.79255319       0.40037594       0.90868688 </v>
   <v>       0.00000000       0.00000000       0.32166666 </v>
   <v>       0.33333333       0.58333333       0.40208332 </v>
   <v>       0.12588652       0.81704261       0.65951262 </v>
   <v>       0.12588652       0.06704261       0.74257071 </v>
   <v>       0.12588652       0.31704261       0.82562879 </v>
   <v>       0.00000000       0.25000000       0.08041667 </v>
   <v>       0.66666667       0.41666667       0.40208332 </v>
   <v>       0.45921986       0.23370927       0.57645453 </v>
   <v>       0.45921986       0.48370927       0.65951262 </v>
   <v>       0.45921986       0.73370927       0.74257071 </v>
   <v>       0.45921986       0.98370927       0.82562879 </v>
   <v>       0.66666667       0.66666667       0.00000000 </v>
   <v>       0.79255319       0.65037594       0.49339644 </v>
   <v>       0.79255319       0.90037594       0.57645453 </v>
   <v>       0.79255319       0.15037594       0.65951262 </v>
   <v>       0.79255319       0.40037594       0.74257071 </v>
   <v>       0.79255319       0.65037594       0.82562879 </v>
   <v>       0.79255319       0.90037594       0.90868688 </v>
  </varray>
 </structure>
 <calculation>
  <scstep>
   <time name="dav">   60.86   61.36</time>
   <time name="total">   66.06   66.60</time>
   <energy>
    <i name="alphaZ">    759.26891756 </i>
    <i name="ewald"> -15880.22937473 </i>
    <i name="hartreedc">  -1042.42994767 </i>
    <i name="XCdc">  -1208.82311586 </i>
    <i name="pawpsdc">  12691.36703575 </i>
    <i name="pawaedc"> -10381.54560829 </i>
    <i name="eentropy">     -0.00330849 </i>
    <i name="bandstr">   2536.08963630 </i>
    <i name="atom">  14980.50241411 </i>
    <i name="e_fr_energy">   2454.19664868 </i>
    <i name="e_wo_entrp">   2454.19995717 </i>
    <i name="e_0_energy">   2454.19830293 </i>
   </energy>
  </scstep>
  <scstep>
   <time name="dav">   68.94   69.50</time>
   <time name="total">   68.94   69.50</time>
   <energy>
    <i name="e_fr_energy">   -416.61744214 </i>
    <i name="e_wo_entrp">   -416.61622719 </i>
    <i name="e_0_energy">   -416.61683466 </i>
   </energy>
  </scstep>
  <scstep>
   <time name="dav">   71.70   72.29</time>
   <time name="total">   71.71   72.29</time>
   <energy>
    <i name="e_fr_energy">   -689.07904734 </i>
    <i name="e_wo_entrp">   -689.07649711 </i>
    <i name="e_0_energy">   -689.07777223 </i>
   </energy>
  </scstep>
  <scstep>
   <time name="dav">   69.35   69.91</time>
   <time name="total">   69.36   69.91</time>
   <energy>
    <i name="e_fr_energy">   -698.47767278 </i>
    <i name="e_wo_entrp">   -698.47607112 </i>
    <i name="e_0_energy">   -698.47687195 </i>
   </energy>
  </scstep>
  <scstep>
   <time name="dav">   76.85   77.48</time>
   <time name="total">   80.09   80.74</time>
   <energy>
    <i name="e_fr_energy">   -698.83041651 </i>
    <i name="e_wo_entrp">   -698.82890252 </i>
    <i name="e_0_energy">   -698.82965951 </i>
   </energy>
  </scstep>
  <scstep>
   <time name="dav">   68.72   69.27</time>
   <time name="total">   77.17   77.78</time>
   <energy>
    <i name="e_fr_energy">   -689.09039938 </i>
    <i name="e_wo_entrp">   -689.08849361 </i>
    <i name="e_0_energy">   -689.08944650 </i>
   </energy>
  </scstep>
  <scstep>
   <time name="dav">   69.17   69.72</time>
   <time name="total">   77.64   78.25</time>
   <energy>
    <i name="e_fr_energy">   -688.42313584 </i>
    <i name="e_wo_entrp">   -688.42089540 </i>
    <i name="e_0_energy">   -688.42201562 </i>
   </energy>
  </scstep>
  <scstep>
   <time name="dav">   69.50   70.11</time>
   <time name="total">   77.96   78.63</time>
   <energy>
    <i name="e_fr_energy">   -688.39229506 </i>
    <i name="e_wo_entrp">   -688.39003787 </i>
    <i name="e_0_energy">   -688.39116646 </i>
   </energy>
  </scstep>
  <scstep>
   <time name="dav">   67.29   67.82</time>
   <time name="total">   75.76   76.35</time>
   <energy>
    <i name="e_fr_energy">   -688.38371531 </i>
    <i name="e_wo_entrp">   -688.38159909 </i>
    <i name="e_0_energy">   -688.38265720 </i>
   </energy>
  </scstep>
  <scstep>
   <time name="dav">   67.30   67.84</time>
   <time name="total">   75.79   76.39</time>
   <energy>
    <i name="e_fr_energy">   -688.38732811 </i>
    <i name="e_wo_entrp">   -688.38502231 </i>
    <i name="e_0_energy">   -688.38617521 </i>
   </energy>
  </scstep>
  <scstep>
   <time name="dav">   68.35   68.89</time>
   <time name="total">   76.83   77.43</time>
   <energy>
    <i name="e_fr_energy">   -688.38886656 </i>
    <i name="e_wo_entrp">   -688.38660579 </i>
    <i name="e_0_energy">   -688.38773618 </i>
   </energy>
  </scstep>
  <scstep>
   <time name="dav">   71.89   72.56</time>
   <time name="total">   80.34   81.08</time>
   <energy>
    <i name="e_fr_energy">   -688.38923694 </i>
    <i name="e_wo_entrp">   -688.38703247 </i>
    <i name="e_0_energy">   -688.38813471 </i>
   </energy>
  </scstep>
  <scstep>
   <time name="dav">   73.35   74.02</time>
   <time name="total">   81.82   82.55</time>
   <energy>
    <i name="e_fr_energy">   -688.38938014 </i>
    <i name="e_wo_entrp">   -688.38716303 </i>
    <i name="e_0_energy">   -688.38827159 </i>
   </energy>
  </scstep>
  <scstep>
   <time name="dav">   74.12   74.72</time>
   <time name="total">   82.59   83.24</time>
   <energy>
    <i name="e_fr_energy">   -688.38933856 </i>
    <i name="e_wo_entrp">   -688.38707912 </i>
    <i name="e_0_energy">   -688.38820884 </i>
   </energy>
  </scstep>
  <scstep>
   <time name="dav">   70.37   70.93</time>
   <time name="total">   78.84   79.46</time>
   <energy>
    <i name="e_fr_energy">   -688.38934337 </i>
    <i name="e_wo_entrp">   -688.38708427 </i>
    <i name="e_0_energy">   -688.38821382 </i>
   </energy>
  </scstep>
  <scstep>
   <time name="dav">   71.84   72.41</time>
   <time name="total">   80.30   80.93</time>
   <energy>
    <i name="e_fr_energy">   -688.38935307 </i>
    <i name="e_wo_entrp">   -688.38709930 </i>
    <i name="e_0_energy">   -688.38822619 </i>
   </energy>
  </scstep>
  <scstep>
   <time name="dav">   69.58   70.14</time>
   <time name="total">   78.03   78.65</time>
   <energy>
    <i name="e_fr_energy">   -688.38935269 </i>
    <i name="e_wo_entrp">   -688.38709828 </i>
    <i name="e_0_energy">   -688.38822548 </i>
   </energy>
  </scstep>
  <scstep>
   <time name="dav">   69.31   69.88</time>
   <time name="total">   77.78   78.41</time>
   <energy>
    <i name="e_fr_energy">   -688.38935251 </i>
    <i name="e_wo_entrp">   -688.38709622 </i>
    <i name="e_0_energy">   -688.38822437 </i>
   </energy>
  </scstep>
  <scstep>
   <time name="dav">   69.81   70.38</time>
   <time name="total">   78.31   78.93</time>
   <energy>
    <i name="e_fr_energy">   -688.38935254 </i>
    <i name="e_wo_entrp">   -688.38709636 </i>
    <i name="e_0_energy">   -688.38822445 </i>
   </energy>
  </scstep>
  <scstep>
   <time name="dav">   57.72   58.19</time>
   <time name="total">   62.94   63.44</time>
   <energy>
    <i name="alphaZ">    759.26891756 </i>
    <i name="ewald"> -15880.22937473 </i>
    <i name="hartreedc">  -1283.94142551 </i>
    <i name="XCdc">  -1166.82582008 </i>
    <i name="pawpsdc">  46108.34946260 </i>
    <i name="pawaedc"> -43818.99172111 </i>
    <i name="eentropy">     -0.00225610 </i>
    <i name="bandstr">   -386.51954930 </i>
    <i name="atom">  14980.50241411 </i>
    <i name="e_fr_energy">   -688.38935257 </i>
    <i name="e_wo_entrp">   -688.38709647 </i>
    <i name="e_0_energy">   -688.38822452 </i>
   </energy>
  </scstep>
  <structure>
   <crystal>
    <varray name="basis" >
     <v>       9.49163842       0.00000000       0.00000000 </v>
     <v>       0.00000000      13.42320379       0.00000000 </v>
     <v>       0.00000000       0.00000000      24.09292386 </v>
    </varray>
    <i name="volume">   3069.63598605 </i>
    <varray name="rec_basis" >
     <v>       0.10535589       0.00000000       0.00000000 </v>
     <v>       0.00000000       0.07449786       0.00000000 </v>
     <v>       0.00000000       0.00000000       0.04150596 </v>
    </varray>
   </crystal>
   <varray name="positions" >
    <v>       0.00000000       0.00000000       0.00000000 </v>
    <v>       0.00000000       0.75000000       0.08041667 </v>
    <v>       0.00000000       0.50000000       0.16083333 </v>
    <v>       0.00000000       0.25000000       0.24124999 </v>
    <v>       0.12588652       0.31704261       0.49339644 </v>
    <v>       0.00000000       0.75000000       0.40208332 </v>
    <v>       0.04255319       0.40037594       0.90868688 </v>
    <v>       0.33333333       0.08333333       0.08041667 </v>
    <v>       0.33333333       0.83333333       0.16083333 </v>
    <v>       0.33333333       0.58333333       0.24124999 </v>
    <v>       0.33333333       0.33333333       0.32166666 </v>
    <v>       0.04255319       0.15037594       0.49339644 </v>
    <v>       0.45921986       0.23370927       0.90868688 </v>
    <v>       0.66666667       0.41666667       0.08041667 </v>
    <v>       0.66666667       0.16666667       0.16083333 </v>
    <v>       0.66666667       0.91666667       0.24124999 </v>
    <v>       0.66666667       0.66666667       0.32166666 </v>
    <v>       0.45921986       0.98370927       0.49339644 </v>
    <v>       0.70921986       0.23370927       0.90868688 </v>
    <v>       0.12588652       0.56704261       0.90868688 </v>
    <v>       0.00000000       0.00000000       0.16083333 </v>
    <v>       0.00000000       0.75000000       0.24124999 </v>
    <v>       0.00000000       0.50000000       0.32166666 </v>
    <v>       0.70921986       0.98370927       0.49339644 </v>
    <v>       0.12588652       0.81704261       0.82562879 </v>
    <v>       0.33333333       0.58333333       0.08041667 </v>
    <v>       0.33333333       0.33333333       0.16083333 </v>
    <v>       0.33333333       0.08333333       0.24124999 </v>
    <v>       0.33333333       0.83333333       0.32166666 </v>
    <v>       0.12588652       0.56704261       0.57645453 </v>
    <v>       0.04255319       0.90037594       0.90868688 </v>
    <v>       0.66666667       0.91666667       0.08041667 </v>
    <v>       0.66666667       0.66666667       0.16083333 </v>
    <v>       0.66666667       0.41666667       0.24124999 </v>
    <v>       0.66666667       0.16666667       0.32166666 </v>
    <v>       0.04255319       0.65037594       0.49339644 </v>
    <v>       0.08333333       0.33333333       0.00000000 </v>
    <v>       0.08333333       0.08333333       0.08041667 </v>
    <v>       0.08333333       0.83333333       0.16083333 </v>
    <v>       0.08333333       0.58333333       0.24124999 </v>
    <v>       0.08333333       0.33333333       0.32166666 </v>
    <v>       0.08333333       0.08333333       0.40208332 </v>
    <v>       0.41666667       0.66666667       0.00000000 </v>
    <v>       0.41666667       0.41666667       0.08041667 </v>
    <v>       0.41666667       0.16666667       0.16083333 </v>
    <v>       0.41666667       0.91666667       0.24124999 </v>
    <v>       0.41666667       0.66666667       0.32166666 </v>
    <v>       0.41666667       0.41666667       0.40208332 </v>
    <v>       0.75000000       0.00000000       0.00000000 </v>
    <v>       0.75000000       0.75000000       0.08041667 </v>
    <v>       0.75000000       0.50000000       0.16083333 </v>
    <v>       0.75000000       0.25000000       0.24124999 </v>
    <v>       0.75000000       0.00000000       0.32166666 </v>
    <v>       0.75000000       0.75000000       0.40208332 </v>
    <v>       0.08333333       0.83333333       0.00000000 </v>
    <v>       0.08333333       0.58333333       0.08041667 </v>
    <v>       0.08333333       0.33333333       0.16083333 </v>
    <v>       0.08333333       0.08333333       0.24124999 </v>
    <v>       0.08333333       0.83333333       0.32166666 </v>
    <v>       0.08333333       0.58333333       0.40208332 </v>
    <v>       0.41666667       0.16666667       0.00000000 </v>
    <v>       0.41666667       0.91666667       0.08041667 </v>
    <v>       0.41666667       0.66666667       0.16083333 </v>
    <v>       0.41666667       0.41666667       0.24124999 </v>
    <v>       0.41666667       0.16666667       0.32166666 </v>
    <v>       0.41666667       0.91666667       0.40208332 </v>
    <v>       0.75000000       0.50000000       0.00000000 </v>
    <v>       0.75000000       0.25000000       0.08041667 </v>
    <v>       0.75000000       0.00000000       0.16083333 </v>
    <v>       0.75000000       0.75000000       0.24124999 </v>
    <v>       0.75000000       0.50000000       0.32166666 </v>
    <v>       0.75000000       0.25000000       0.40208332 </v>
    <v>       0.33333333       0.08333333       0.40208332 </v>
    <v>       0.04255319       0.40037594       0.57645453 </v>
    <v>       0.04255319       0.65037594       0.65951262 </v>
    <v>       0.04255319       0.90037594       0.74257071 </v>
    <v>       0.04255319       0.15037594       0.82562879 </v>
    <v>       0.33333333       0.33333333       0.00000000 </v>
    <v>       0.37588652       0.81704261       0.49339644 </v>
    <v>       0.37588652       0.06704261       0.57645453 </v>
    <v>       0.37588652       0.31704261       0.65951262 </v>
    <v>       0.37588652       0.56704261       0.74257071 </v>
    <v>       0.37588652       0.81704261       0.82562879 </v>
    <v>       0.37588652       0.06704261       0.90868688 </v>
    <v>       0.70921986       0.48370927       0.49339644 </v>
    <v>       0.70921986       0.73370927       0.57645453 </v>
    <v>       0.70921986       0.98370927       0.65951262 </v>
    <v>       0.70921986       0.23370927       0.74257071 </v>
    <v>       0.70921986       0.48370927       0.82562879 </v>
    <v>       0.70921986       0.73370927       0.90868688 </v>
    <v>       0.66666667       0.91666667       0.40208332 </v>
    <v>       0.04255319       0.90037594       0.57645453 </v>
    <v>       0.04255319       0.15037594       0.65951262 </v>
    <v>       0.04255319       0.40037594       0.74257071 </v>
    <v>       0.04255319       0.65037594       0.82562879 </v>
    <v>       0.66666667       0.16666667       0.00000000 </v>
    <v>       0.37588652       0.31704261       0.49339644 </v>
    <v>       0.37588652       0.56704261       0.57645453 </v>
    <v>       0.37588652       0.81704261       0.65951262 </v>
    <v>       0.37588652       0.06704261       0.74257071 </v>
    <v>       0.37588652       0.31704261       0.82562879 </v>
    <v>       0.37588652       0.56704261       0.90868688 </v>
    <v>       0.00000000       0.25000000       0.40208332 </v>
    <v>       0.70921986       0.23370927       0.57645453 </v>
    <v>       0.70921986       0.48370927       0.65951262 </v>
    <v>       0.70921986       0.73370927       0.74257071 </v>
    <v>       0.70921986       0.98370927       0.82562879 </v>
    <v>       0.00000000       0.50000000       0.00000000 </v>
    <v>       0.12588652       0.81704261       0.49339644 </v>
    <v>       0.12588652       0.06704261       0.57645453 </v>
    <v>       0.12588652       0.31704261       0.65951262 </v>
    <v>       0.12588652       0.56704261       0.74257071 </v>
    <v>       0.33333333       0.83333333       0.00000000 </v>
    <v>       0.12588652       0.06704261       0.90868688 </v>
    <v>       0.45921986       0.48370927       0.49339644 </v>
    <v>       0.45921986       0.73370927       0.57645453 </v>
    <v>       0.45921986       0.98370927       0.65951262 </v>
    <v>       0.45921986       0.23370927       0.74257071 </v>
    <v>       0.45921986       0.48370927       0.82562879 </v>
    <v>       0.45921986       0.73370927       0.90868688 </v>
    <v>       0.79255319       0.15037594       0.49339644 </v>
    <v>       0.79255319       0.40037594       0.57645453 </v>
    <v>       0.79255319       0.65037594       0.65951262 </v>
    <v>       0.79255319       0.90037594       0.74257071 </v>
    <v>       0.79255319       0.15037594       0.82562879 </v>
    <v>       0.79255319       0.40037594       0.90868688 </v>
    <v>       0.00000000       0.00000000       0.32166666 </v>
    <v>       0.33333333       0.58333333       0.40208332 </v>
    <v>       0.12588652       0.81704261       0.65951262 </v>
    <v>       0.12588652       0.06704261       0.74257071 </v>
    <v>       0.12588652       0.31704261       0.82562879 </v>
    <v>       0.00000000       0.25000000       0.08041667 </v>
    <v>       0.66666667       0.41666667       0.40208332 </v>
    <v>       0.45921986       0.23370927       0.57645453 </v>
    <v>       0.45921986       0.48370927       0.65951262 </v>
    <v>       0.45921986       0.73370927       0.74257071 </v>
    <v>       0.45921986       0.98370927       0.82562879 </v>
    <v>       0.66666667       0.66666667       0.00000000 </v>
    <v>       0.79255319       0.65037594       0.49339644 </v>
    <v>       0.79255319       0.90037594       0.57645453 </v>
    <v>       0.79255319       0.15037594       0.65951262 </v>
    <v>       0.79255319       0.40037594       0.74257071 </v>
    <v>       0.79255319       0.65037594       0.82562879 </v>
    <v>       0.79255319       0.90037594       0.90868688 </v>
   </varray>
  </structure>
  <varray name="forces" >
   <v>       0.38301278       1.21018218       0.96277990 </v>
   <v>      -0.23340908      -0.19150586      -0.01452437 </v>
   <v>      -0.02562968       0.00263150       0.01397782 </v>
   <v>      -0.02243740       0.00107543      -0.02410261 </v>
   <v>      -0.62166601      -0.55357334      -0.68524928 </v>
   <v>       0.38654891       1.21469822      -0.96119104 </v>
   <v>       0.54047312      -0.96406241      -0.93981730 </v>
   <v>       0.01593174      -0.29439419       0.01167954 </v>
   <v>      -0.01210246      -0.09486674      -0.07379326 </v>
   <v>      -0.00773207      -0.09551442       0.06122869 </v>
   <v>      -0.02122106      -0.27787778       0.00737327 </v>
   <v>       0.54066456      -0.96322979       0.93385236 </v>
   <v>       0.00437063       1.67518695      -1.46966564 </v>
   <v>      -0.01150559      -0.14201312      -0.06904137 </v>
   <v>      -0.05091382      -0.05302212      -0.01098260 </v>
   <v>      -0.05520623      -0.05253300       0.00262734 </v>
   <v>      -0.01144731      -0.13674598       0.07640600 </v>
   <v>       0.01659012       1.68784317       1.47181291 </v>
   <v>      -0.59120664       0.10093996       0.05595545 </v>
   <v>      -0.62636166      -0.55721520       0.68297080 </v>
   <v>      -0.02429508      -0.00075258       0.01578715 </v>
   <v>      -0.02796526      -0.00072005      -0.02062947 </v>
   <v>      -0.23275670      -0.18898632       0.01603166 </v>
   <v>      -0.59273551       0.10374412      -0.04746250 </v>
   <v>      -0.43051128       0.32368714       0.34938650 </v>
   <v>      -0.01368601      -0.27510368       0.01823847 </v>
   <v>      -0.00815491      -0.09976931      -0.05670820 </v>
   <v>      -0.00401184      -0.10884754       0.04622255 </v>
   <v>       0.01954689      -0.29773300      -0.01612646 </v>
   <v>      -0.43349052       0.33102130      -0.34765426 </v>
   <v>       0.42053242      -1.60603667      -1.10875970 </v>
   <v>      -0.01282180      -0.13905064      -0.07417127 </v>
   <v>      -0.05251402      -0.05069279      -0.00411660 </v>
   <v>      -0.05456646      -0.05122755      -0.00561306 </v>
   <v>      -0.01251515      -0.14402140       0.07687953 </v>
   <v>       0.42360153      -1.61384130       1.11590787 </v>
   <v>       0.52655352       0.09635473      -1.16065644 </v>
   <v>       0.28856583      -0.44004619      -0.12103963 </v>
   <v>       0.08705062       0.14029419      -0.14315393 </v>
   <v>       0.08895174       0.13813311       0.13499808 </v>
   <v>       0.31822587       0.39257407      -0.39517440 </v>
   <v>       0.52698293       0.09394208       1.15999974 </v>
   <v>      -0.54840766      -1.52810599       1.67118849 </v>
   <v>       0.41710692       0.30647099       0.46328282 </v>
   <v>       0.05090578       0.02052010      -0.03242055 </v>
   <v>       0.04933387       0.02282326       0.01170109 </v>
   <v>       0.41160886       0.31357911      -0.46791409 </v>
   <v>      -0.52878250      -1.52611249      -1.65698498 </v>
   <v>       0.50418192      -0.83179433      -0.59198784 </v>
   <v>       0.30329927       0.30332219       0.41827232 </v>
   <v>       0.06220578       0.04863207      -0.02577139 </v>
   <v>       0.06084081       0.05168274       0.01655626 </v>
   <v>      -0.27373980       0.30963914      -0.41073618 </v>
   <v>       0.50585001      -0.83331776       0.59222687 </v>
   <v>       0.11249131       0.41420252      -0.61948370 </v>
   <v>       0.31877540       0.39094653       0.39971081 </v>
   <v>       0.27863818       0.41843040       0.32282624 </v>
   <v>       0.28100398       0.41916767      -0.33322704 </v>
   <v>       0.28842299      -0.44269495       0.12831226 </v>
   <v>       0.10806506       0.41301801       0.62530576 </v>
   <v>      -0.47742550      -1.36907765       1.29403360 </v>
   <v>       0.41189887       0.31704874       0.46492136 </v>
   <v>       0.05580177       0.02939907      -0.01527885 </v>
   <v>       0.05215991       0.03478280       0.00433369 </v>
   <v>       0.42073040       0.29744842      -0.44413497 </v>
   <v>      -0.47940958      -1.37803483      -1.29898374 </v>
   <v>      -0.08946378      -0.83226432      -0.61078797 </v>
   <v>      -0.27337011       0.31245795       0.40785604 </v>
   <v>       0.05885374       0.05137235      -0.02604310 </v>
   <v>       0.06054386       0.05031141       0.01985531 </v>
   <v>       0.30434692       0.30537969      -0.41716370 </v>
   <v>      -0.09141048      -0.82977225       0.61074400 </v>
   <v>       0.25367548      -0.03248328       0.99250063 </v>
   <v>       0.39264217      -0.04316356      -0.45112053 </v>
   <v>       0.42464220      -0.58992168      -0.44711714 </v>
   <v>       0.39512781      -0.57679782       0.46115336 </v>
   <v>       0.01292499      -0.36536824      -0.00066218 </v>
   <v>       0.23972181      -0.03548924      -0.98688289 </v>
   <v>       0.30118180       0.01513410      -1.40838703 </v>
   <v>       0.25727767      -0.52764668      -0.57344016 </v>
   <v>       0.15629644      -0.22061259      -0.09574816 </v>
   <v>       0.15721740      -0.24241260       0.11164150 </v>
   <v>      -0.48875591      -0.23375071       0.05271178 </v>
   <v>       0.30296612       0.00878806       1.42670470 </v>
   <v>       0.41050780      -0.01756366      -0.00185504 </v>
   <v>       0.18705841      -0.31924833      -0.08737260 </v>
   <v>       0.15129243      -0.26480101      -0.04008963 </v>
   <v>       0.15818374      -0.26128020       0.03824576 </v>
   <v>       0.16493698      -0.34629166       0.07711662 </v>
   <v>       0.41635623      -0.01992911       0.02180199 </v>
   <v>       0.51424283      -0.18644672       0.05953805 </v>
   <v>       0.00432216      -0.35072290       0.00569631 </v>
   <v>       0.25164828      -0.35865105      -0.02078241 </v>
   <v>       0.23178281      -0.35899021       0.02970531 </v>
   <v>       0.39128062      -0.05344518       0.44274911 </v>
   <v>       0.54000356      -0.18731003      -0.06782650 </v>
   <v>      -0.54796529      -0.68926121      -1.50408167 </v>
   <v>      -0.51304954      -0.24944248      -0.06833470 </v>
   <v>       0.14852581      -0.23765630      -0.10355719 </v>
   <v>       0.15596523      -0.25138437       0.11391718 </v>
   <v>       0.28756877      -0.51193387       0.56050333 </v>
   <v>      -0.54349933      -0.68464869       1.51571900 </v>
   <v>       0.51937397       1.71204222      -0.86721342 </v>
   <v>       0.17954724      -0.33015783      -0.09131181 </v>
   <v>       0.15830995      -0.26363144      -0.04823922 </v>
   <v>       0.15637450      -0.26375303       0.04848101 </v>
   <v>       0.17242866      -0.33767521       0.07118213 </v>
   <v>       0.53289741       1.71080644       0.87616595 </v>
   <v>      -0.83860180      -0.17612556      -1.14357553 </v>
   <v>      -0.49848817       0.42734449      -0.42342559 </v>
   <v>      -0.24698336       0.24750669      -0.06163613 </v>
   <v>      -0.25429810       0.21463014       0.06829262 </v>
   <v>       0.14705397       0.00207376      -0.72203038 </v>
   <v>      -0.84339186      -0.16012414       1.15410335 </v>
   <v>      -0.68906182       2.22224821       1.82579439 </v>
   <v>      -0.06026681       0.20450777       0.21592847 </v>
   <v>      -0.19226913       0.37776654       0.01608964 </v>
   <v>      -0.19544848       0.37933475      -0.00191741 </v>
   <v>      -0.07277746       0.22929495      -0.20790956 </v>
   <v>      -0.67272710       2.21540206      -1.77978956 </v>
   <v>      -0.61985295       0.48284355      -0.70659302 </v>
   <v>      -0.18506543       0.20057321      -0.00274873 </v>
   <v>      -0.23196274       0.31998450       0.04849559 </v>
   <v>      -0.23539991       0.33320777      -0.03714870 </v>
   <v>      -0.34674493       0.41708925       0.42939282 </v>
   <v>      -0.60240633       0.47918647       0.69951460 </v>
   <v>      -0.26040371      -0.18173699      -0.01480144 </v>
   <v>       0.15909237       0.00808956       0.71085851 </v>
   <v>      -0.23562390       0.22989703      -0.08167918 </v>
   <v>      -0.26444710       0.21302600       0.09357244 </v>
   <v>      -0.47623787       0.44540324       0.41930532 </v>
   <v>      -0.25224447      -0.18303065      -0.02029094 </v>
   <v>       0.46579430      -0.44668702      -0.48768554 </v>
   <v>      -0.05093391       0.23362708       0.17634519 </v>
   <v>      -0.20702596       0.38575557       0.00175173 </v>
   <v>      -0.20307085       0.37729733      -0.01324432 </v>
   <v>      -0.08303599       0.19102602      -0.23615808 </v>
   <v>       0.48728192      -0.44242789       0.47863606 </v>
   <v>      -0.37296727       1.03827337      -0.73820098 </v>
   <v>      -0.34686996       0.43186022      -0.42922682 </v>
   <v>      -0.22829052       0.32522365       0.06505761 </v>
   <v>      -0.23598080       0.33122715      -0.04356451 </v>
   <v>      -0.18046451       0.18380300       0.00894359 </v>
   <v>      -0.36068638       1.02934320       0.73334201 </v>
  </varray>
  <varray name="stress" >
   <v>      58.39607210       6.41511676      -0.00340818 </v>
   <v>       6.41511701      56.45933822       0.03406228 </v>
   <v>      -0.00340823       0.03406221      26.96874239 </v>
  </varray>
  <energy>
   <i name="e_fr_energy">   -688.38935257 </i>
   <i name="e_wo_entrp">   -688.38709647 </i>
   <i name="e_0_energy">   -688.38822452 </i>
  </energy>
  <time name="totalsc"> 1615.79 1629.75</time>
  <eigenvalues>
   <array>
    <dimension dim="1">band</dimension>
    <dimension dim="2">kpoint</dimension>
    <dimension dim="3">spin</dimension>
    <field>eigene</field>
    <field>occ</field>
    <set>
     <set comment="spin 1">
      <set comment="kpoint 1">
       <r>   -8.1643    1.0000 </r>
       <r>   -7.8097    1.0000 </r>
       <r>   -7.5888    1.0000 </r>
       <r>   -7.4823    1.0000 </r>
       <r>   -7.4579    1.0000 </r>
       <r>   -7.2557    1.0000 </r>
       <r>   -7.2394    1.0000 </r>
       <r>   -7.0424    1.0000 </r>
       <r>   -6.9743    1.0000 </r>
       <r>   -6.9295    1.0000 </r>
       <r>   -6.8902    1.0000 </r>
       <r>   -6.8156    1.0000 </r>
       <r>   -6.7202    1.0000 </r>
       <r>   -6.6311    1.0000 </r>
       <r>   -6.5152    1.0000 </r>
       <r>   -6.4721    1.0000 </r>
       <r>   -6.4137    1.0000 </r>
       <r>   -6.3672    1.0000 </r>
       <r>   -6.3571    1.0000 </r>
       <r>   -6.2724    1.0000 </r>
       <r>   -6.1060    1.0000 </r>
       <r>   -6.1011    1.0000 </r>
       <r>   -6.0490    1.0000 </r>
       <r>   -6.0439    1.0000 </r>
       <r>   -6.0416    1.0000 </r>
       <r>   -6.0120    1.0000 </r>
       <r>   -6.0009    1.0000 </r>
       <r>   -5.9240    1.0000 </r>
       <r>   -5.8679    1.0000 </r>
       <r>   -5.8543    1.0000 </r>
       <r>   -5.8078    1.0000 </r>
       <r>   -5.7841    1.0000 </r>
       <r>   -5.6787    1.0000 </r>
       <r>   -5.6421    1.0000 </r>
       <r>   -5.6401    1.0000 </r>
       <r>   -5.6292    1.0000 </r>
       <r>   -5.5963    1.0000 </r>
       <r>   -5.5162    1.0000 </r>
       <r>   -5.5116    1.0000 </r>
       <r>   -5.3643    1.0000 </r>
       <r>   -5.3563    1.0000 </r>
       <r>   -5.3243    1.0000 </r>
       <r>   -5.2380    1.0000 </r>
       <r>   -5.1982    1.0000 </r>
       <r>   -5.1655    1.0000 </r>
       <r>   -5.1273    1.0000 </r>
       <r>   -5.0770    1.0000 </r>
       <r>   -5.0353    1.0000 </r>
       <r>   -4.9886    1.0000 </r>
       <r>   -4.9689    1.0000 </r>
       <r>   -4.9429    1.0000 </r>
       <r>   -4.9187    1.0000 </r>
       <r>   -4.8894    1.0000 </r>
       <r>   -4.8730    1.0000 </r>
       <r>   -4.8117    1.0000 </r>
       <r>   -4.8066    1.0000 </r>
       <r>   -4.7244    1.0000 </r>
       <r>   -4.6718    1.0000 </r>
       <r>   -4.6258    1.0000 </r>
       <r>   -4.6128    1.0000 </r>
       <r>   -4.4711    1.0000 </r>
       <r>   -4.3221    1.0000 </r>
       <r>   -4.3041    1.0000 </r>
       <r>   -4.2388    1.0000 </r>
       <r>   -4.2233    1.0000 </r>
       <r>   -4.1229    1.0000 </r>
       <r>   -4.0520    1.0000 </r>
       <r>   -3.8886    1.0000 </r>
       <r>   -3.8483    1.0000 </r>
       <r>   -3.7965    1.0000 </r>
       <r>   -3.7611    1.0000 </r>
       <r>   -3.6039    1.0000 </r>
       <r>   -3.5358    1.0000 </r>
       <r>   -3.5104    1.0000 </r>
       <r>   -3.4814    1.0000 </r>
       <r>   -3.3474    1.0000 </r>
       <r>   -3.3274    1.0000 </r>
       <r>   -3.1422    1.0000 </r>
       <r>   -3.1383    1.0000 </r>
       <r>   -3.0553    1.0000 </r>
       <r>   -3.0105    1.0000 </r>
       <r>   -2.9344    1.0000 </r>
       <r>   -2.9105    1.0000 </r>
       <r>   -2.8727    1.0000 </r>
       <r>   -2.8005    1.0000 </r>
       <r>   -2.7473    1.0000 </r>
       <r>   -2.7164    1.0000 </r>
       <r>   -2.6988    1.0000 </r>
       <r>   -2.5261    1.0000 </r>
       <r>   -2.5040    1.0000 </r>
       <r>   -2.4889    1.0000 </r>
       <r>   -2.4778    1.0000 </r>
       <r>   -2.4315    1.0000 </r>
       <r>   -2.4155    1.0000 </r>
       <r>   -2.3815    1.0000 </r>
       <r>   -2.2062    1.0000 </r>
       <r>   -2.1923    1.0000 </r>
       <r>   -2.1467    1.0000 </r>
       <r>   -2.1131    1.0000 </r>
       <r>   -2.0771    1.0000 </r>
       <r>   -2.0695    1.0000 </r>
       <r>   -2.0558    1.0000 </r>
       <r>   -2.0193    1.0000 </r>
       <r>   -1.9526    1.0000 </r>
       <r>   -1.9438    1.0000 </r>
       <r>   -1.8946    1.0000 </r>
       <r>   -1.8707    1.0000 </r>
       <r>   -1.8148    1.0000 </r>
       <r>   -1.7176    1.0000 </r>
       <r>   -1.6679    1.0000 </r>
       <r>   -1.6533    1.0000 </r>
       <r>   -1.6481    1.0000 </r>
       <r>   -1.6242    1.0000 </r>
       <r>   -1.5970    1.0000 </r>
       <r>   -1.4740    1.0000 </r>
       <r>   -1.3284    1.0000 </r>
       <r>   -1.3158    1.0000 </r>
       <r>   -1.2820    1.0000 </r>
       <r>   -1.2527    1.0000 </r>
       <r>   -1.2071    1.0000 </r>
       <r>   -1.1269    1.0000 </r>
       <r>   -1.1167    1.0000 </r>
       <r>   -1.0732    1.0000 </r>
       <r>   -1.0169    1.0000 </r>
       <r>   -1.0147    1.0000 </r>
       <r>   -0.9207    1.0000 </r>
       <r>   -0.8947    1.0000 </r>
       <r>   -0.8138    1.0000 </r>
       <r>   -0.7631    1.0000 </r>
       <r>   -0.7581    1.0000 </r>
       <r>   -0.2259    1.0000 </r>
       <r>   -0.1759    1.0000 </r>
       <r>   -0.1413    1.0000 </r>
       <r>   -0.0529    1.0000 </r>
       <r>    0.0323    1.0000 </r>
       <r>    0.0364    1.0000 </r>
       <r>    0.0973    1.0000 </r>
       <r>    0.1335    1.0000 </r>
       <r>    0.2209    1.0000 </r>
       <r>    0.2217    1.0000 </r>
       <r>    0.2226    1.0000 </r>
       <r>    0.2526    1.0000 </r>
       <r>    0.3540    1.0000 </r>
       <r>    0.4120    1.0000 </r>
       <r>    0.4129    1.0000 </r>
       <r>    0.5410    1.0000 </r>
       <r>    0.5875    1.0000 </r>
       <r>    0.6343    1.0000 </r>
[...]
       <r>    -3.7184    29.3146   140.9813 </r>
       <r>    -3.6624    27.3095   142.5112 </r>
       <r>    -3.6063    41.7452   144.8498 </r>
       <r>    -3.5503    26.4859   146.3336 </r>
       <r>    -3.4943    16.0322   147.2317 </r>
       <r>    -3.4383    45.0405   149.7548 </r>
       <r>    -3.3823    23.9718   151.0978 </r>
       <r>    -3.3262    40.3334   153.3572 </r>
       <r>    -3.2702    11.4403   153.9982 </r>
       <r>    -3.2142    18.2059   155.0181 </r>
       <r>    -3.1582    35.3627   156.9991 </r>
       <r>    -3.1022    29.5458   158.6542 </r>
       <r>    -3.0461    33.4740   160.5294 </r>
       <r>    -2.9901    35.9466   162.5432 </r>
       <r>    -2.9341    46.0768   165.1244 </r>
       <r>    -2.8781    57.8446   168.3648 </r>
       <r>    -2.8221    50.5113   171.1947 </r>
       <r>    -2.7660    55.1552   174.2844 </r>
       <r>    -2.7100    39.8226   176.5153 </r>
       <r>    -2.6540    45.7852   179.0802 </r>
       <r>    -2.5980    18.7090   180.1284 </r>
       <r>    -2.5420    23.1519   181.4254 </r>
       <r>    -2.4859    63.6522   184.9912 </r>
       <r>    -2.4299    40.3795   187.2532 </r>
       <r>    -2.3739    57.2216   190.4588 </r>
       <r>    -2.3179    40.0191   192.7006 </r>
       <r>    -2.2619    59.0727   196.0100 </r>
       <r>    -2.2058    47.0628   198.6465 </r>
       <r>    -2.1498    36.1190   200.6699 </r>
       <r>    -2.0938    51.5974   203.5604 </r>
       <r>    -2.0378    67.2055   207.3252 </r>
       <r>    -1.9818    44.6654   209.8274 </r>
       <r>    -1.9257    66.2397   213.5384 </r>
       <r>    -1.8697    45.5308   216.0890 </r>
       <r>    -1.8137    42.6980   218.4810 </r>
       <r>    -1.7577    27.1898   220.0042 </r>
       <r>    -1.7017    39.0054   222.1893 </r>
       <r>    -1.6456    49.2015   224.9456 </r>
       <r>    -1.5896    32.5951   226.7716 </r>
       <r>    -1.5336    33.7746   228.6637 </r>
       <r>    -1.4776    34.8543   230.6162 </r>
       <r>    -1.4216    11.8124   231.2779 </r>
       <r>    -1.3655    27.5506   232.8213 </r>
       <r>    -1.3095    53.3549   235.8102 </r>
       <r>    -1.2535    40.1855   238.0615 </r>
       <r>    -1.1975    29.7376   239.7274 </r>
       <r>    -1.1415    19.9795   240.8466 </r>
       <r>    -1.0854    49.5850   243.6244 </r>
       <r>    -1.0294    13.6831   244.3910 </r>
       <r>    -0.9734    34.7071   246.3353 </r>
       <r>    -0.9174    15.4342   247.1999 </r>
       <r>    -0.8614    40.1735   249.4504 </r>
       <r>    -0.8054    14.6958   250.2737 </r>
       <r>    -0.7493    29.7901   251.9426 </r>
       <r>    -0.6933    34.7471   253.8891 </r>
       <r>    -0.6373    13.8806   254.6667 </r>
       <r>    -0.5813    11.8965   255.3331 </r>
       <r>    -0.5253    17.7529   256.3278 </r>
       <r>    -0.4692    37.4195   258.4241 </r>
       <r>    -0.4132    32.1858   260.2271 </r>
       <r>    -0.3572    34.6994   262.1711 </r>
       <r>    -0.3012    32.4611   263.9896 </r>
       <r>    -0.2452     0.1860   264.0000 </r>
       <r>    -0.1891     5.9604   264.3339 </r>
       <r>    -0.1331     9.2432   264.8517 </r>
       <r>    -0.0771    35.9269   266.8644 </r>
       <r>    -0.0211    20.3340   268.0035 </r>
       <r>     0.0349    13.4323   268.7560 </r>
       <r>     0.0910    22.6375   270.0241 </r>
       <r>     0.1470    22.9695   271.3109 </r>
       <r>     0.2030    45.1561   273.8405 </r>
       <r>     0.2590    34.4957   275.7730 </r>
       <r>     0.3150    50.5831   278.6067 </r>
       <r>     0.3711    14.4569   279.4165 </r>
       <r>     0.4271    73.4430   283.5308 </r>
       <r>     0.4831    42.1876   285.8941 </r>
       <r>     0.5391    73.3285   290.0020 </r>
       <r>     0.5951    65.1004   293.6489 </r>
       <r>     0.6512    94.5725   298.9469 </r>
       <r>     0.7072    86.8412   303.8118 </r>
       <r>     0.7632    84.9986   308.5734 </r>
       <r>     0.8192    98.2140   314.0753 </r>
       <r>     0.8752    70.3520   318.0164 </r>
       <r>     0.9313    59.1556   321.3304 </r>
       <r>     0.9873    55.5280   324.4411 </r>
       <r>     1.0433   109.7929   330.5917 </r>
       <r>     1.0993    92.1813   335.7557 </r>
       <r>     1.1553   114.4864   342.1692 </r>
       <r>     1.2114    69.6295   346.0699 </r>
       <r>     1.2674    91.1607   351.1767 </r>
       <r>     1.3234   108.3750   357.2478 </r>
       <r>     1.3794    46.9388   359.8773 </r>
       <r>     1.4354    49.5972   362.6557 </r>
       <r>     1.4915    56.7345   365.8340 </r>
       <r>     1.5475    63.0578   369.3665 </r>
       <r>     1.6035   122.7404   376.2424 </r>
       <r>     1.6595    77.8683   380.6046 </r>
       <r>     1.7155    50.9926   383.4612 </r>
       <r>     1.7716   105.2769   389.3589 </r>
       <r>     1.8276    95.1904   394.6915 </r>
       <r>     1.8836    99.9034   400.2881 </r>
       <r>     1.9396   102.4503   406.0274 </r>
       <r>     1.9956    83.2311   410.6899 </r>
       <r>     2.0517   117.8892   417.2942 </r>
       <r>     2.1077    96.8654   422.7208 </r>
       <r>     2.1637   124.6719   429.7049 </r>
       <r>     2.2197    60.1915   433.0768 </r>
       <r>     2.2757   128.8340   440.2940 </r>
       <r>     2.3318    71.7319   444.3125 </r>
       <r>     2.3878    67.7208   448.1063 </r>
       <r>     2.4438    70.0504   452.0307 </r>
       <r>     2.4998    79.6860   456.4947 </r>
       <r>     2.5558    87.7603   461.4110 </r>
       <r>     2.6119    92.9413   466.6175 </r>
       <r>     2.6679    74.8990   470.8134 </r>
       <r>     2.7239   106.0715   476.7557 </r>
       <r>     2.7799    74.9933   480.9569 </r>
       <r>     2.8359    74.7130   485.1423 </r>
       <r>     2.8920    64.8956   488.7777 </r>
       <r>     2.9480    97.4820   494.2387 </r>
       <r>     3.0040    59.6037   497.5777 </r>
       <r>     3.0600    93.9802   502.8426 </r>
       <r>     3.1160    78.2430   507.2260 </r>
       <r>     3.1721    48.5210   509.9441 </r>
       <r>     3.2281    65.6524   513.6220 </r>
       <r>     3.2841    73.9833   517.7665 </r>
       <r>     3.3401    60.8018   521.1726 </r>
       <r>     3.3961    26.6937   522.6680 </r>
       <r>     3.4522    59.7135   526.0132 </r>
       <r>     3.5082    58.4888   529.2898 </r>
       <r>     3.5642   103.2627   535.0746 </r>
       <r>     3.6202    41.3356   537.3903 </r>
       <r>     3.6762    88.0482   542.3227 </r>
       <r>     3.7323    39.8944   544.5577 </r>
       <r>     3.7883    52.9207   547.5223 </r>
       <r>     3.8443    50.0262   550.3249 </r>
       <r>     3.9003    35.9055   552.3364 </r>
       <r>     3.9563    54.4473   555.3865 </r>
       <r>     4.0124    35.0478   557.3499 </r>
       <r>     4.0684    60.0918   560.7162 </r>
       <r>     4.1244    20.7247   561.8772 </r>
       <r>     4.1804    25.5905   563.3108 </r>
       <r>     4.2364    25.4796   564.7381 </r>
       <r>     4.2925    22.5229   565.9999 </r>
       <r>     4.3485    18.1710   567.0178 </r>
       <r>     4.4045    35.5474   569.0092 </r>
       <r>     4.4605    24.8790   570.4029 </r>
       <r>     4.5165    10.6589   571.0000 </r>
       <r>     4.5725     4.4175   571.2475 </r>
       <r>     4.6286    12.1276   571.9269 </r>
       <r>     4.6846    25.0986   573.3329 </r>
       <r>     4.7406    23.2002   574.6325 </r>
       <r>     4.7966     6.5594   575.0000 </r>
       <r>     4.8526     0.0000   575.0000 </r>
       <r>     4.9087     0.0000   575.0000 </r>
       <r>     4.9647     0.0000   575.0000 </r>
       <r>     5.0207     0.0001   575.0000 </r>
       <r>     5.0767    20.2461   576.1342 </r>
       <r>     5.1327    60.7358   579.5367 </r>
       <r>     5.1888    26.2777   581.0089 </r>
       <r>     5.2448    23.9626   582.3512 </r>
       <r>     5.3008    19.9723   583.4701 </r>
       <r>     5.3568    34.2553   585.3891 </r>
       <r>     5.4128    46.5778   587.9984 </r>
       <r>     5.4689    21.6234   589.2097 </r>
       <r>     5.5249    30.4800   590.9172 </r>
       <r>     5.5809    60.0900   594.2835 </r>
       <r>     5.6369    47.1518   596.9249 </r>
       <r>     5.6929    57.8254   600.1643 </r>
       <r>     5.7490    43.3882   602.5949 </r>
       <r>     5.8050    31.0001   604.3315 </r>
       <r>     5.8610    54.9966   607.4125 </r>
       <r>     5.9170    34.9522   609.3706 </r>
       <r>     5.9730    65.8841   613.0614 </r>
       <r>     6.0291    31.7604   614.8406 </r>
       <r>     6.0851    36.9611   616.9112 </r>
       <r>     6.1411    32.9821   618.7589 </r>
       <r>     6.1971    91.5610   623.8881 </r>
       <r>     6.2531    57.0639   627.0848 </r>
       <r>     6.3092    73.3306   631.1928 </r>
       <r>     6.3652    71.3625   635.1905 </r>
       <r>     6.4212    63.1336   638.7273 </r>
       <r>     6.4772    46.2554   641.3187 </r>
       <r>     6.5332    82.2310   645.9253 </r>
       <r>     6.5893    95.4170   651.2705 </r>
       <r>     6.6453    64.3642   654.8763 </r>
       <r>     6.7013    75.0031   659.0779 </r>
       <r>     6.7573    73.8628   663.2157 </r>
       <r>     6.8133    89.9614   668.2554 </r>
       <r>     6.8694    77.3334   672.5877 </r>
       <r>     6.9254    88.7706   677.5606 </r>
       <r>     6.9814   101.2199   683.2309 </r>
       <r>     7.0374    64.6679   686.8537 </r>
       <r>     7.0934    83.6688   691.5408 </r>
       <r>     7.1495     8.1971   692.0000 </r>
       <r>     7.2055     0.0000   692.0000 </r>
       <r>     7.2615     0.0000   692.0000 </r>
       <r>     7.3175     0.0000   692.0000 </r>
       <r>     7.3735     0.0000   692.0000 </r>
       <r>     7.4296     0.0000   692.0000 </r>
       <r>     7.4856     0.0000   692.0000 </r>
       <r>     7.5416     0.0000   692.0000 </r>
       <r>     7.5976     0.0000   692.0000 </r>
       <r>     7.6536     0.0000   692.0000 </r>
       <r>     7.7097     0.0000   692.0000 </r>
       <r>     7.7657     0.0000   692.0000 </r>
       <r>     7.8217     0.0000   692.0000 </r>
       <r>     7.8777     0.0000   692.0000 </r>
      </set>
     </set>
    </array>
   </total>
  </dos>
 </calculation>
 <structure name="finalpos" >
  <crystal>
   <varray name="basis" >
    <v>       9.49163842       0.00000000       0.00000000 </v>
    <v>       0.00000000      13.42320379       0.00000000 </v>
    <v>       0.00000000       0.00000000      24.09292386 </v>
   </varray>
   <i name="volume">   3069.63598605 </i>
   <varray name="rec_basis" >
    <v>       0.10535589       0.00000000       0.00000000 </v>
    <v>       0.00000000       0.07449786       0.00000000 </v>
    <v>       0.00000000       0.00000000       0.04150596 </v>
   </varray>
  </crystal>
  <varray name="positions" >
   <v>       0.00000000       0.00000000       0.00000000 </v>
   <v>       0.00000000       0.75000000       0.08041667 </v>
   <v>       0.00000000       0.50000000       0.16083333 </v>
   <v>       0.00000000       0.25000000       0.24124999 </v>
   <v>       0.12588652       0.31704261       0.49339644 </v>
   <v>       0.00000000       0.75000000       0.40208332 </v>
   <v>       0.04255319       0.40037594       0.90868688 </v>
   <v>       0.33333333       0.08333333       0.08041667 </v>
   <v>       0.33333333       0.83333333       0.16083333 </v>
   <v>       0.33333333       0.58333333       0.24124999 </v>
   <v>       0.33333333       0.33333333       0.32166666 </v>
   <v>       0.04255319       0.15037594       0.49339644 </v>
   <v>       0.45921986       0.23370927       0.90868688 </v>
   <v>       0.66666667       0.41666667       0.08041667 </v>
   <v>       0.66666667       0.16666667       0.16083333 </v>
   <v>       0.66666667       0.91666667       0.24124999 </v>
   <v>       0.66666667       0.66666667       0.32166666 </v>
   <v>       0.45921986       0.98370927       0.49339644 </v>
   <v>       0.70921986       0.23370927       0.90868688 </v>
   <v>       0.12588652       0.56704261       0.90868688 </v>
   <v>       0.00000000       0.00000000       0.16083333 </v>
   <v>       0.00000000       0.75000000       0.24124999 </v>
   <v>       0.00000000       0.50000000       0.32166666 </v>
   <v>       0.70921986       0.98370927       0.49339644 </v>
   <v>       0.12588652       0.81704261       0.82562879 </v>
   <v>       0.33333333       0.58333333       0.08041667 </v>
   <v>       0.33333333       0.33333333       0.16083333 </v>
   <v>       0.33333333       0.08333333       0.24124999 </v>
   <v>       0.33333333       0.83333333       0.32166666 </v>
   <v>       0.12588652       0.56704261       0.57645453 </v>
   <v>       0.04255319       0.90037594       0.90868688 </v>
   <v>       0.66666667       0.91666667       0.08041667 </v>
   <v>       0.66666667       0.66666667       0.16083333 </v>
   <v>       0.66666667       0.41666667       0.24124999 </v>
   <v>       0.66666667       0.16666667       0.32166666 </v>
   <v>       0.04255319       0.65037594       0.49339644 </v>
   <v>       0.08333333       0.33333333       0.00000000 </v>
   <v>       0.08333333       0.08333333       0.08041667 </v>
   <v>       0.08333333       0.83333333       0.16083333 </v>
   <v>       0.08333333       0.58333333       0.24124999 </v>
   <v>       0.08333333       0.33333333       0.32166666 </v>
   <v>       0.08333333       0.08333333       0.40208332 </v>
   <v>       0.41666667       0.66666667       0.00000000 </v>
   <v>       0.41666667       0.41666667       0.08041667 </v>
   <v>       0.41666667       0.16666667       0.16083333 </v>
   <v>       0.41666667       0.91666667       0.24124999 </v>
   <v>       0.41666667       0.66666667       0.32166666 </v>
   <v>       0.41666667       0.41666667       0.40208332 </v>
   <v>       0.75000000       0.00000000       0.00000000 </v>
   <v>       0.75000000       0.75000000       0.08041667 </v>
   <v>       0.75000000       0.50000000       0.16083333 </v>
   <v>       0.75000000       0.25000000       0.24124999 </v>
   <v>       0.75000000       0.00000000       0.32166666 </v>
   <v>       0.75000000       0.75000000       0.40208332 </v>
   <v>       0.08333333       0.83333333       0.00000000 </v>
   <v>       0.08333333       0.58333333       0.08041667 </v>
   <v>       0.08333333       0.33333333       0.16083333 </v>
   <v>       0.08333333       0.08333333       0.24124999 </v>
   <v>       0.08333333       0.83333333       0.32166666 </v>
   <v>       0.08333333       0.58333333       0.40208332 </v>
   <v>       0.41666667       0.16666667       0.00000000 </v>
   <v>       0.41666667       0.91666667       0.08041667 </v>
   <v>       0.41666667       0.66666667       0.16083333 </v>
   <v>       0.41666667       0.41666667       0.24124999 </v>
   <v>       0.41666667       0.16666667       0.32166666 </v>
   <v>       0.41666667       0.91666667       0.40208332 </v>
   <v>       0.75000000       0.50000000       0.00000000 </v>
   <v>       0.75000000       0.25000000       0.08041667 </v>
   <v>       0.75000000       0.00000000       0.16083333 </v>
   <v>       0.75000000       0.75000000       0.24124999 </v>
   <v>       0.75000000       0.50000000       0.32166666 </v>
   <v>       0.75000000       0.25000000       0.40208332 </v>
   <v>       0.33333333       0.08333333       0.40208332 </v>
   <v>       0.04255319       0.40037594       0.57645453 </v>
   <v>       0.04255319       0.65037594       0.65951262 </v>
   <v>       0.04255319       0.90037594       0.74257071 </v>
   <v>       0.04255319       0.15037594       0.82562879 </v>
   <v>       0.33333333       0.33333333       0.00000000 </v>
   <v>       0.37588652       0.81704261       0.49339644 </v>
   <v>       0.37588652       0.06704261       0.57645453 </v>
   <v>       0.37588652       0.31704261       0.65951262 </v>
   <v>       0.37588652       0.56704261       0.74257071 </v>
   <v>       0.37588652       0.81704261       0.82562879 </v>
   <v>       0.37588652       0.06704261       0.90868688 </v>
   <v>       0.70921986       0.48370927       0.49339644 </v>
   <v>       0.70921986       0.73370927       0.57645453 </v>
   <v>       0.70921986       0.98370927       0.65951262 </v>
   <v>       0.70921986       0.23370927       0.74257071 </v>
   <v>       0.70921986       0.48370927       0.82562879 </v>
   <v>       0.70921986       0.73370927       0.90868688 </v>
   <v>       0.66666667       0.91666667       0.40208332 </v>
   <v>       0.04255319       0.90037594       0.57645453 </v>
   <v>       0.04255319       0.15037594       0.65951262 </v>
   <v>       0.04255319       0.40037594       0.74257071 </v>
   <v>       0.04255319       0.65037594       0.82562879 </v>
   <v>       0.66666667       0.16666667       0.00000000 </v>
   <v>       0.37588652       0.31704261       0.49339644 </v>
   <v>       0.37588652       0.56704261       0.57645453 </v>
   <v>       0.37588652       0.81704261       0.65951262 </v>
   <v>       0.37588652       0.06704261       0.74257071 </v>
   <v>       0.37588652       0.31704261       0.82562879 </v>
   <v>       0.37588652       0.56704261       0.90868688 </v>
   <v>       0.00000000       0.25000000       0.40208332 </v>
   <v>       0.70921986       0.23370927       0.57645453 </v>
   <v>       0.70921986       0.48370927       0.65951262 </v>
   <v>       0.70921986       0.73370927       0.74257071 </v>
   <v>       0.70921986       0.98370927       0.82562879 </v>
   <v>       0.00000000       0.50000000       0.00000000 </v>
   <v>       0.12588652       0.81704261       0.49339644 </v>
   <v>       0.12588652       0.06704261       0.57645453 </v>
   <v>       0.12588652       0.31704261       0.65951262 </v>
   <v>       0.12588652       0.56704261       0.74257071 </v>
   <v>       0.33333333       0.83333333       0.00000000 </v>
   <v>       0.12588652       0.06704261       0.90868688 </v>
   <v>       0.45921986       0.48370927       0.49339644 </v>
   <v>       0.45921986       0.73370927       0.57645453 </v>
   <v>       0.45921986       0.98370927       0.65951262 </v>
   <v>       0.45921986       0.23370927       0.74257071 </v>
   <v>       0.45921986       0.48370927       0.82562879 </v>
   <v>       0.45921986       0.73370927       0.90868688 </v>
   <v>       0.79255319       0.15037594       0.49339644 </v>
   <v>       0.79255319       0.40037594       0.57645453 </v>
   <v>       0.79255319       0.65037594       0.65951262 </v>
   <v>       0.79255319       0.90037594       0.74257071 </v>
   <v>       0.79255319       0.15037594       0.82562879 </v>
   <v>       0.79255319       0.40037594       0.90868688 </v>
   <v>       0.00000000       0.00000000       0.32166666 </v>
   <v>       0.33333333       0.58333333       0.40208332 </v>
   <v>       0.12588652       0.81704261       0.65951262 </v>
   <v>       0.12588652       0.06704261       0.74257071 </v>
   <v>       0.12588652       0.31704261       0.82562879 </v>
   <v>       0.00000000       0.25000000       0.08041667 </v>
   <v>       0.66666667       0.41666667       0.40208332 </v>
   <v>       0.45921986       0.23370927       0.57645453 </v>
   <v>       0.45921986       0.48370927       0.65951262 </v>
   <v>       0.45921986       0.73370927       0.74257071 </v>
   <v>       0.45921986       0.98370927       0.82562879 </v>
   <v>       0.66666667       0.66666667       0.00000000 </v>
   <v>       0.79255319       0.65037594       0.49339644 </v>
   <v>       0.79255319       0.90037594       0.57645453 </v>
   <v>       0.79255319       0.15037594       0.65951262 </v>
   <v>       0.79255319       0.40037594       0.74257071 </v>
   <v>       0.79255319       0.65037594       0.82562879 </v>
   <v>       0.79255319       0.90037594       0.90868688 </v>
  </varray>
 </structure>
</modeling>
