 264 264   0   0
  0.2774202E+02  0.1958175E-08  0.1958175E-08  0.1910025E-08  0.5000000E-15
  1.000000000000000E-004
  CAR 
 Si and Ge interface calculation         
      6.64521256     -9.13678160  301      4.04937643      1.00000000
     -9.137  0.0000E+00  0.0000E+00  0.0000E+00  0.0000E+00
     -9.084  0.0000E+00  0.0000E+00  0.0000E+00  0.0000E+00
     -9.032  0.0000E+00  0.0000E+00  0.0000E+00  0.0000E+00
     -8.979  0.0000E+00  0.0000E+00  0.0000E+00  0.0000E+00
     -8.926  0.0000E+00  0.0000E+00  0.0000E+00  0.0000E+00
     -8.874  0.0000E+00  0.0000E+00  0.0000E+00  0.0000E+00
     -8.821  0.0000E+00  0.0000E+00  0.0000E+00  0.0000E+00
     -8.769  0.0000E+00  0.0000E+00  0.0000E+00  0.0000E+00
     -8.716  0.0000E+00  0.0000E+00  0.0000E+00  0.0000E+00
     -8.663  0.0000E+00  0.0000E+00  0.0000E+00  0.0000E+00
     -8.611  0.0000E+00  0.0000E+00  0.0000E+00  0.0000E+00
     -8.558  0.0000E+00  0.0000E+00  0.0000E+00  0.0000E+00
     -8.506  0.0000E+00  0.0000E+00  0.0000E+00  0.0000E+00
     -8.453  0.1035E-04  0.3245E-05  0.5444E-06  0.1707E-06
     -8.400  0.1464E+02  0.1371E+02  0.7703E+00  0.7213E+00
     -8.348  0.2337E+02  0.2429E+02  0.2000E+01  0.1999E+01
     -8.295  0.3131E-01  0.2867E-01  0.2001E+01  0.2001E+01
     -8.242  0.1822E+02  0.1786E+02  0.2960E+01  0.2940E+01
     -8.190  0.1024E+02  0.1058E+02  0.3498E+01  0.3497E+01
     -8.137  0.9514E+01  0.9500E+01  0.3999E+01  0.3997E+01
     -8.085  0.3414E+02  0.3295E+02  0.5795E+01  0.5730E+01
     -8.032  0.6812E+01  0.7292E+01  0.6153E+01  0.6114E+01
     -7.979  0.2377E+02  0.2315E+02  0.7403E+01  0.7332E+01
     -7.927  0.2134E+02  0.2250E+02  0.8526E+01  0.8515E+01
     -7.874  0.2470E+02  0.2394E+02  0.9825E+01  0.9775E+01
     -7.822  0.5312E+01  0.5720E+01  0.1010E+02  0.1008E+02
     -7.769  0.2438E+02  0.2413E+02  0.1139E+02  0.1134E+02
     -7.716  0.1137E+02  0.1201E+02  0.1199E+02  0.1198E+02
     -7.664  0.3073E+00  0.4560E+00  0.1200E+02  0.1200E+02
     -7.611  0.2878E+02  0.2856E+02  0.1352E+02  0.1350E+02
     -7.559  0.1978E+02  0.1965E+02  0.1456E+02  0.1454E+02
     -7.506  0.3103E+02  0.3046E+02  0.1619E+02  0.1614E+02
     -7.453  0.1651E+02  0.1709E+02  0.1706E+02  0.1704E+02
     -7.401  0.1792E+02  0.1827E+02  0.1800E+02  0.1800E+02
     -7.348  0.9064E+01  0.8832E+01  0.1848E+02  0.1846E+02
     -7.296  0.6613E+01  0.5923E+01  0.1882E+02  0.1878E+02
     -7.243  0.3177E+02  0.3259E+02  0.2050E+02  0.2049E+02
     -7.190  0.2221E+02  0.2146E+02  0.2166E+02  0.2162E+02
     -7.138  0.3444E+02  0.3496E+02  0.2348E+02  0.2346E+02
     -7.085  0.2674E+02  0.2538E+02  0.2488E+02  0.2479E+02
     -7.033  0.3697E+02  0.3727E+02  0.2683E+02  0.2675E+02
     -6.980  0.2288E+02  0.2304E+02  0.2803E+02  0.2797E+02
     -6.927  0.4640E+02  0.4598E+02  0.3047E+02  0.3038E+02
     -6.875  0.2645E+02  0.2620E+02  0.3186E+02  0.3176E+02
     -6.822  0.4151E+02  0.4301E+02  0.3405E+02  0.3403E+02
     -6.769  0.5339E+02  0.5048E+02  0.3686E+02  0.3668E+02
     -6.717  0.6878E+02  0.7167E+02  0.4047E+02  0.4045E+02
     -6.664  0.3300E+02  0.3243E+02  0.4221E+02  0.4216E+02
     -6.612  0.1577E+02  0.1644E+02  0.4304E+02  0.4302E+02
     -6.559  0.2790E+02  0.2690E+02  0.4451E+02  0.4444E+02
     -6.506  0.5512E+02  0.5567E+02  0.4741E+02  0.4737E+02
     -6.454  0.4643E+02  0.4421E+02  0.4985E+02  0.4969E+02
     -6.401  0.5294E+02  0.5498E+02  0.5263E+02  0.5258E+02
     -6.349  0.4149E+02  0.4097E+02  0.5482E+02  0.5474E+02
     -6.296  0.3381E+02  0.3335E+02  0.5660E+02  0.5649E+02
     -6.243  0.5361E+02  0.5127E+02  0.5942E+02  0.5919E+02
     -6.191  0.6759E+02  0.6965E+02  0.6297E+02  0.6285E+02
     -6.138  0.7672E+02  0.7650E+02  0.6701E+02  0.6688E+02
     -6.086  0.6680E+02  0.6649E+02  0.7052E+02  0.7038E+02
     -6.033  0.7238E+02  0.7107E+02  0.7433E+02  0.7412E+02
     -5.980  0.7252E+02  0.7335E+02  0.7814E+02  0.7797E+02
     -5.928  0.7689E+02  0.7653E+02  0.8219E+02  0.8200E+02
     -5.875  0.5993E+02  0.6140E+02  0.8534E+02  0.8523E+02
     -5.823  0.5877E+02  0.5776E+02  0.8843E+02  0.8827E+02
     -5.770  0.8061E+02  0.8061E+02  0.9267E+02  0.9251E+02
     -5.717  0.5831E+02  0.5838E+02  0.9574E+02  0.9558E+02
     -5.665  0.1041E+03  0.1013E+03  0.1012E+03  0.1009E+03
     -5.612  0.9335E+02  0.9678E+02  0.1061E+03  0.1060E+03
     -5.560  0.7065E+02  0.6867E+02  0.1098E+03  0.1096E+03
     -5.507  0.6330E+02  0.6508E+02  0.1132E+03  0.1130E+03
     -5.454  0.6804E+02  0.6695E+02  0.1168E+03  0.1166E+03
     -5.402  0.8649E+02  0.8475E+02  0.1213E+03  0.1210E+03
     -5.349  0.8627E+02  0.8605E+02  0.1258E+03  0.1255E+03
     -5.296  0.8829E+02  0.8930E+02  0.1305E+03  0.1302E+03
     -5.244  0.7560E+02  0.7653E+02  0.1345E+03  0.1343E+03
     -5.191  0.6531E+02  0.6706E+02  0.1379E+03  0.1378E+03
     -5.139  0.5567E+02  0.5530E+02  0.1408E+03  0.1407E+03
     -5.086  0.7268E+02  0.7022E+02  0.1447E+03  0.1444E+03
     -5.033  0.7853E+02  0.7871E+02  0.1488E+03  0.1485E+03
     -4.981  0.4771E+02  0.4967E+02  0.1513E+03  0.1512E+03
     -4.928  0.8707E+02  0.8697E+02  0.1559E+03  0.1557E+03
     -4.876  0.6747E+02  0.6594E+02  0.1594E+03  0.1592E+03
     -4.823  0.9166E+02  0.8932E+02  0.1642E+03  0.1639E+03
     -4.770  0.1112E+03  0.1127E+03  0.1701E+03  0.1698E+03
     -4.718  0.1038E+03  0.1055E+03  0.1756E+03  0.1754E+03
     -4.665  0.1012E+03  0.1005E+03  0.1809E+03  0.1807E+03
     -4.613  0.1081E+03  0.1079E+03  0.1866E+03  0.1863E+03
     -4.560  0.8861E+02  0.8552E+02  0.1912E+03  0.1908E+03
     -4.507  0.1119E+03  0.1124E+03  0.1971E+03  0.1967E+03
     -4.455  0.1070E+03  0.1079E+03  0.2027E+03  0.2024E+03
     -4.402  0.8361E+02  0.8501E+02  0.2071E+03  0.2069E+03
     -4.350  0.9051E+02  0.8862E+02  0.2119E+03  0.2116E+03
     -4.297  0.7327E+02  0.7479E+02  0.2158E+03  0.2155E+03
     -4.244  0.8566E+02  0.8689E+02  0.2203E+03  0.2201E+03
     -4.192  0.9978E+02  0.9662E+02  0.2255E+03  0.2251E+03
     -4.139  0.9999E+02  0.1031E+03  0.2308E+03  0.2306E+03
     -4.087  0.5666E+02  0.5605E+02  0.2338E+03  0.2335E+03
     -4.034  0.9279E+02  0.9486E+02  0.2386E+03  0.2385E+03
     -3.981  0.3184E+02  0.3175E+02  0.2403E+03  0.2402E+03
     -3.929  0.4684E+02  0.4616E+02  0.2428E+03  0.2426E+03
     -3.876  0.4537E+02  0.4390E+02  0.2452E+03  0.2449E+03
     -3.824  0.5954E+02  0.6080E+02  0.2483E+03  0.2481E+03
     -3.771  0.4997E+02  0.4960E+02  0.2509E+03  0.2507E+03
     -3.718  0.6261E+02  0.6185E+02  0.2542E+03  0.2540E+03
     -3.666  0.7488E+02  0.7495E+02  0.2582E+03  0.2579E+03
     -3.613  0.6281E+02  0.6316E+02  0.2615E+03  0.2612E+03
     -3.560  0.7133E+02  0.7235E+02  0.2652E+03  0.2651E+03
     -3.508  0.7331E+02  0.6990E+02  0.2691E+03  0.2687E+03
     -3.455  0.6256E+02  0.6545E+02  0.2724E+03  0.2722E+03
     -3.403  0.8263E+02  0.7917E+02  0.2767E+03  0.2763E+03
     -3.350  0.9818E+02  0.9862E+02  0.2819E+03  0.2815E+03
     -3.297  0.5940E+02  0.6291E+02  0.2850E+03  0.2848E+03
     -3.245  0.7274E+02  0.7071E+02  0.2888E+03  0.2886E+03
     -3.192  0.7622E+02  0.7693E+02  0.2928E+03  0.2926E+03
     -3.140  0.7154E+02  0.7103E+02  0.2966E+03  0.2963E+03
     -3.087  0.7378E+02  0.7405E+02  0.3005E+03  0.3002E+03
     -3.034  0.7006E+02  0.7072E+02  0.3042E+03  0.3040E+03
     -2.982  0.8156E+02  0.8198E+02  0.3085E+03  0.3083E+03
     -2.929  0.8235E+02  0.7860E+02  0.3128E+03  0.3124E+03
     -2.877  0.7819E+02  0.7985E+02  0.3169E+03  0.3166E+03
     -2.824  0.9788E+02  0.9819E+02  0.3221E+03  0.3218E+03
     -2.771  0.1066E+03  0.1082E+03  0.3277E+03  0.3275E+03
     -2.719  0.9644E+02  0.9604E+02  0.3327E+03  0.3325E+03
     -2.666  0.1033E+03  0.1012E+03  0.3382E+03  0.3378E+03
     -2.614  0.9444E+02  0.9442E+02  0.3431E+03  0.3428E+03
     -2.561  0.1306E+03  0.1291E+03  0.3500E+03  0.3496E+03
     -2.508  0.1241E+03  0.1252E+03  0.3565E+03  0.3562E+03
     -2.456  0.9250E+02  0.9451E+02  0.3614E+03  0.3612E+03
     -2.403  0.1068E+03  0.1047E+03  0.3670E+03  0.3667E+03
     -2.351  0.8925E+02  0.8870E+02  0.3717E+03  0.3713E+03
     -2.298  0.9810E+02  0.9772E+02  0.3769E+03  0.3765E+03
     -2.245  0.9376E+02  0.9942E+02  0.3818E+03  0.3817E+03
     -2.193  0.5525E+02  0.5611E+02  0.3847E+03  0.3847E+03
     -2.140  0.3263E+02  0.2942E+02  0.3864E+03  0.3862E+03
     -2.087  0.6635E+02  0.6701E+02  0.3899E+03  0.3897E+03
     -2.035  0.7223E+02  0.6949E+02  0.3937E+03  0.3934E+03
     -1.982  0.8734E+02  0.8970E+02  0.3983E+03  0.3981E+03
     -1.930  0.1111E+03  0.1095E+03  0.4042E+03  0.4039E+03
     -1.877  0.8859E+02  0.8957E+02  0.4088E+03  0.4086E+03
     -1.824  0.5652E+02  0.5646E+02  0.4118E+03  0.4115E+03
     -1.772  0.1019E+03  0.1028E+03  0.4171E+03  0.4170E+03
     -1.719  0.1033E+03  0.9957E+02  0.4226E+03  0.4222E+03
     -1.667  0.8612E+02  0.8771E+02  0.4271E+03  0.4268E+03
     -1.614  0.7435E+02  0.7455E+02  0.4310E+03  0.4307E+03
     -1.561  0.9993E+02  0.1018E+03  0.4363E+03  0.4361E+03
     -1.509  0.5030E+02  0.5216E+02  0.4389E+03  0.4388E+03
     -1.456  0.5832E+02  0.5789E+02  0.4420E+03  0.4419E+03
     -1.404  0.5942E+02  0.5602E+02  0.4451E+03  0.4448E+03
     -1.351  0.7708E+02  0.7934E+02  0.4492E+03  0.4490E+03
     -1.298  0.3167E+02  0.3337E+02  0.4508E+03  0.4507E+03
     -1.246  0.4593E+02  0.4159E+02  0.4533E+03  0.4529E+03
     -1.193  0.6567E+02  0.6871E+02  0.4567E+03  0.4566E+03
     -1.141  0.6038E+02  0.6080E+02  0.4599E+03  0.4598E+03
     -1.088  0.4943E+02  0.4942E+02  0.4625E+03  0.4624E+03
     -1.035  0.4634E+02  0.4533E+02  0.4649E+03  0.4647E+03
     -0.983  0.4375E+02  0.4530E+02  0.4672E+03  0.4671E+03
     -0.930  0.3191E+02  0.3012E+02  0.4689E+03  0.4687E+03
     -0.878  0.6624E+02  0.6642E+02  0.4724E+03  0.4722E+03
     -0.825  0.7970E+02  0.8036E+02  0.4766E+03  0.4764E+03
     -0.772  0.4611E+02  0.4694E+02  0.4790E+03  0.4789E+03
     -0.720  0.5490E+02  0.5185E+02  0.4819E+03  0.4816E+03
     -0.667  0.7694E+02  0.7958E+02  0.4859E+03  0.4858E+03
     -0.615  0.4381E+02  0.4378E+02  0.4883E+03  0.4881E+03
     -0.562  0.2256E+02  0.2307E+02  0.4894E+03  0.4893E+03
     -0.509  0.2087E+02  0.2099E+02  0.4905E+03  0.4904E+03
     -0.457  0.2918E+02  0.3042E+02  0.4921E+03  0.4920E+03
     -0.404  0.2861E+02  0.2824E+02  0.4936E+03  0.4935E+03
     -0.351  0.4866E+02  0.4538E+02  0.4961E+03  0.4959E+03
     -0.299  0.7792E+02  0.7936E+02  0.5002E+03  0.5001E+03
     -0.246  0.7828E+02  0.7830E+02  0.5044E+03  0.5042E+03
     -0.194  0.8720E+02  0.8550E+02  0.5089E+03  0.5087E+03
     -0.141  0.1115E+03  0.1124E+03  0.5148E+03  0.5146E+03
     -0.088  0.1180E+03  0.1157E+03  0.5210E+03  0.5207E+03
     -0.036  0.1073E+03  0.1093E+03  0.5267E+03  0.5264E+03
      0.017  0.1341E+03  0.1293E+03  0.5337E+03  0.5332E+03
      0.069  0.1249E+03  0.1302E+03  0.5403E+03  0.5401E+03
      0.122  0.1106E+03  0.1092E+03  0.5461E+03  0.5458E+03
      0.175  0.9068E+02  0.9046E+02  0.5509E+03  0.5506E+03
      0.227  0.8680E+02  0.9003E+02  0.5554E+03  0.5553E+03
      0.280  0.7896E+02  0.7645E+02  0.5596E+03  0.5594E+03
      0.332  0.9721E+02  0.9780E+02  0.5647E+03  0.5645E+03
      0.385  0.8847E+02  0.8598E+02  0.5694E+03  0.5690E+03
      0.438  0.1022E+03  0.1044E+03  0.5747E+03  0.5745E+03
      0.490  0.8140E+02  0.8235E+02  0.5790E+03  0.5789E+03
      0.543  0.1239E+03  0.1195E+03  0.5855E+03  0.5851E+03
      0.595  0.1205E+03  0.1222E+03  0.5919E+03  0.5916E+03
      0.648  0.1166E+03  0.1153E+03  0.5980E+03  0.5976E+03
      0.701  0.1540E+03  0.1526E+03  0.6061E+03  0.6057E+03
      0.753  0.1343E+03  0.1353E+03  0.6132E+03  0.6128E+03
      0.806  0.1258E+03  0.1289E+03  0.6198E+03  0.6196E+03
      0.858  0.9427E+02  0.9125E+02  0.6248E+03  0.6244E+03
      0.911  0.1123E+03  0.1139E+03  0.6307E+03  0.6304E+03
      0.964  0.1117E+03  0.1126E+03  0.6365E+03  0.6363E+03
      1.016  0.1203E+03  0.1174E+03  0.6429E+03  0.6425E+03
      1.069  0.1499E+03  0.1489E+03  0.6507E+03  0.6503E+03
      1.122  0.1717E+03  0.1726E+03  0.6598E+03  0.6594E+03
      1.174  0.1663E+03  0.1667E+03  0.6685E+03  0.6681E+03
      1.227  0.1917E+03  0.1927E+03  0.6786E+03  0.6783E+03
      1.279  0.1702E+03  0.1669E+03  0.6876E+03  0.6871E+03
      1.332  0.2026E+03  0.2028E+03  0.6982E+03  0.6977E+03
      1.385  0.1565E+03  0.1566E+03  0.7065E+03  0.7060E+03
      1.437  0.1476E+03  0.1499E+03  0.7142E+03  0.7138E+03
      1.490  0.1679E+03  0.1630E+03  0.7231E+03  0.7224E+03
      1.542  0.2015E+03  0.2048E+03  0.7337E+03  0.7332E+03
      1.595  0.1921E+03  0.1914E+03  0.7438E+03  0.7433E+03
      1.648  0.1769E+03  0.1765E+03  0.7531E+03  0.7526E+03
      1.700  0.1915E+03  0.1907E+03  0.7631E+03  0.7626E+03
      1.753  0.1977E+03  0.1954E+03  0.7735E+03  0.7729E+03
      1.805  0.1606E+03  0.1636E+03  0.7820E+03  0.7815E+03
      1.858  0.1457E+03  0.1485E+03  0.7897E+03  0.7893E+03
      1.911  0.1885E+03  0.1830E+03  0.7996E+03  0.7989E+03
      1.963  0.2102E+03  0.2133E+03  0.8106E+03  0.8101E+03
      2.016  0.1415E+03  0.1431E+03  0.8181E+03  0.8177E+03
      2.068  0.2045E+03  0.1996E+03  0.8288E+03  0.8282E+03
      2.121  0.1927E+03  0.1944E+03  0.8390E+03  0.8384E+03
      2.174  0.1851E+03  0.1865E+03  0.8487E+03  0.8482E+03
      2.226  0.1331E+03  0.1328E+03  0.8557E+03  0.8552E+03
      2.279  0.1727E+03  0.1716E+03  0.8648E+03  0.8642E+03
      2.331  0.1538E+03  0.1539E+03  0.8729E+03  0.8723E+03
      2.384  0.1943E+03  0.1920E+03  0.8831E+03  0.8824E+03
      2.437  0.1645E+03  0.1679E+03  0.8918E+03  0.8913E+03
      2.489  0.1299E+03  0.1304E+03  0.8986E+03  0.8981E+03
      2.542  0.1191E+03  0.1197E+03  0.9049E+03  0.9044E+03
      2.595  0.1611E+03  0.1594E+03  0.9133E+03  0.9128E+03
      2.647  0.1320E+03  0.1360E+03  0.9203E+03  0.9199E+03
      2.700  0.1271E+03  0.1196E+03  0.9270E+03  0.9262E+03
      2.752  0.1822E+03  0.1820E+03  0.9365E+03  0.9358E+03
      2.805  0.1023E+03  0.1073E+03  0.9419E+03  0.9415E+03
      2.858  0.1577E+03  0.1540E+03  0.9502E+03  0.9496E+03
      2.910  0.1453E+03  0.1517E+03  0.9579E+03  0.9575E+03
      2.963  0.8849E+02  0.8813E+02  0.9625E+03  0.9622E+03
      3.015  0.1274E+03  0.1227E+03  0.9692E+03  0.9686E+03
      3.068  0.1301E+03  0.1321E+03  0.9761E+03  0.9756E+03
      3.121  0.1081E+03  0.1076E+03  0.9818E+03  0.9812E+03
      3.173  0.1049E+03  0.1021E+03  0.9873E+03  0.9866E+03
      3.226  0.1235E+03  0.1300E+03  0.9938E+03  0.9935E+03
      3.278  0.1129E+03  0.1030E+03  0.9997E+03  0.9989E+03
      3.331  0.9583E+02  0.1035E+03  0.1005E+04  0.1004E+04
      3.384  0.9295E+02  0.9286E+02  0.1010E+04  0.1009E+04
      3.436  0.5930E+02  0.5864E+02  0.1013E+04  0.1012E+04
      3.489  0.9146E+02  0.8953E+02  0.1018E+04  0.1017E+04
      3.541  0.9915E+02  0.9882E+02  0.1023E+04  0.1022E+04
      3.594  0.7738E+02  0.7357E+02  0.1027E+04  0.1026E+04
      3.647  0.9449E+02  0.1003E+03  0.1032E+04  0.1031E+04
      3.699  0.7175E+02  0.7426E+02  0.1036E+04  0.1035E+04
      3.752  0.3825E+02  0.4230E+02  0.1038E+04  0.1037E+04
      3.804  0.6153E+02  0.5082E+02  0.1041E+04  0.1040E+04
      3.857  0.5421E+02  0.5730E+02  0.1044E+04  0.1043E+04
      3.910  0.2625E+02  0.2730E+02  0.1045E+04  0.1045E+04
      3.962  0.6701E+02  0.6729E+02  0.1049E+04  0.1048E+04
      4.015  0.7218E+02  0.6732E+02  0.1052E+04  0.1052E+04
      4.067  0.1104E+03  0.1045E+03  0.1058E+04  0.1057E+04
      4.120  0.1171E+03  0.1260E+03  0.1064E+04  0.1064E+04
      4.173  0.8501E+02  0.8398E+02  0.1069E+04  0.1068E+04
      4.225  0.7918E+02  0.7314E+02  0.1073E+04  0.1072E+04
      4.278  0.1025E+03  0.1111E+03  0.1078E+04  0.1078E+04
      4.331  0.1173E+03  0.1038E+03  0.1085E+04  0.1083E+04
      4.383  0.1418E+03  0.1452E+03  0.1092E+04  0.1091E+04
      4.436  0.1169E+03  0.1172E+03  0.1098E+04  0.1097E+04
      4.488  0.1128E+03  0.1167E+03  0.1104E+04  0.1103E+04
      4.541  0.8844E+02  0.9112E+02  0.1109E+04  0.1108E+04
      4.594  0.9913E+02  0.1039E+03  0.1114E+04  0.1114E+04
      4.646  0.1437E+03  0.1296E+03  0.1122E+04  0.1120E+04
      4.699  0.1139E+03  0.1233E+03  0.1128E+04  0.1127E+04
      4.751  0.1204E+03  0.1162E+03  0.1134E+04  0.1133E+04
      4.804  0.1193E+03  0.1183E+03  0.1140E+04  0.1139E+04
      4.857  0.1211E+03  0.1230E+03  0.1147E+04  0.1146E+04
      4.909  0.1266E+03  0.1283E+03  0.1153E+04  0.1152E+04
      4.962  0.1097E+03  0.1098E+03  0.1159E+04  0.1158E+04
      5.014  0.1128E+03  0.1115E+03  0.1165E+04  0.1164E+04
      5.067  0.1495E+03  0.1497E+03  0.1173E+04  0.1172E+04
      5.120  0.9460E+02  0.9867E+02  0.1178E+04  0.1177E+04
      5.172  0.1065E+03  0.1058E+03  0.1183E+04  0.1183E+04
      5.225  0.9531E+02  0.9921E+02  0.1188E+04  0.1188E+04
      5.277  0.9858E+02  0.9769E+02  0.1194E+04  0.1193E+04
      5.330  0.1158E+03  0.1131E+03  0.1200E+04  0.1199E+04
      5.383  0.1260E+03  0.1262E+03  0.1206E+04  0.1206E+04
      5.435  0.1274E+03  0.1294E+03  0.1213E+04  0.1212E+04
      5.488  0.1371E+03  0.1294E+03  0.1220E+04  0.1219E+04
      5.540  0.1726E+03  0.1771E+03  0.1229E+04  0.1229E+04
      5.593  0.1376E+03  0.1406E+03  0.1236E+04  0.1236E+04
      5.646  0.1328E+03  0.1344E+03  0.1243E+04  0.1243E+04
      5.698  0.1041E+03  0.1046E+03  0.1249E+04  0.1249E+04
      5.751  0.1170E+03  0.1170E+03  0.1255E+04  0.1255E+04
      5.804  0.1127E+03  0.1119E+03  0.1261E+04  0.1261E+04
      5.856  0.1140E+03  0.1195E+03  0.1267E+04  0.1267E+04
      5.909  0.8775E+02  0.8153E+02  0.1272E+04  0.1271E+04
      5.961  0.6923E+01  0.1580E+02  0.1272E+04  0.1272E+04
      6.014  0.0000E+00  0.0000E+00  0.1272E+04  0.1272E+04
      6.067  0.0000E+00  0.0000E+00  0.1272E+04  0.1272E+04
      6.119  0.0000E+00  0.0000E+00  0.1272E+04  0.1272E+04
      6.172  0.0000E+00  0.0000E+00  0.1272E+04  0.1272E+04
      6.224  0.0000E+00  0.0000E+00  0.1272E+04  0.1272E+04
      6.277  0.0000E+00  0.0000E+00  0.1272E+04  0.1272E+04
      6.330  0.0000E+00  0.0000E+00  0.1272E+04  0.1272E+04
      6.382  0.0000E+00  0.0000E+00  0.1272E+04  0.1272E+04
      6.435  0.0000E+00  0.0000E+00  0.1272E+04  0.1272E+04
      6.487  0.0000E+00  0.0000E+00  0.1272E+04  0.1272E+04
      6.540  0.0000E+00  0.0000E+00  0.1272E+04  0.1272E+04
      6.593  0.0000E+00  0.0000E+00  0.1272E+04  0.1272E+04
      6.645  0.0000E+00  0.0000E+00  0.1272E+04  0.1272E+04
