Si and Ge interface calculation         
           1
     6.489200    0.000000    0.000000
    -6.489200   12.978400    0.000000
     0.000000    0.000000   16.223000
   Sn
    48
Direct configuration=     1
   0.01489471  0.00000000  0.00000000
   0.51489466  0.00000000  0.20000000
   0.01489448  0.00000000  0.39999992
   0.51489466  0.49999997  0.00000000
   0.01489461  0.49999997  0.20000000
   0.51489448  0.49999997  0.39999992
   0.88989461  0.12499999  0.09999999
   0.38989448  0.12499999  0.29999998
   0.88989448  0.12499999  0.50000000
   0.38989463  0.62499994  0.09999999
   0.88989448  0.62499994  0.29999998
   0.38989461  0.62499994  0.50000000
   0.76489461  0.24999999  0.00000000
   0.26489461  0.24999999  0.20000000
   0.76489448  0.24999999  0.39999992
   0.26489466  0.74999994  0.00000000
   0.76489466  0.74999994  0.20000000
   0.26489448  0.74999994  0.39999992
   0.63989466  0.37499997  0.09999999
   0.13989448  0.37499997  0.29999998
   0.63989461  0.37499997  0.50000000
   0.13989461  0.87499994  0.09999999
   0.63989448  0.87499994  0.29999998
   0.13989448  0.87499994  0.50000000
   0.51489466  0.49999997  0.50000000
   0.01489461  0.49999997  0.70000005
   0.51489448  0.49999997  0.89999998
   0.01489471  0.00000000  0.50000000
   0.51489466  0.00000000  0.70000005
   0.01489448  0.00000000  0.89999998
   0.13989461  0.87499994  0.59999996
   0.63989448  0.87499994  0.80000001
   0.13989448  0.87499994  0.00000000
   0.63989466  0.37499997  0.59999996
   0.13989448  0.37499997  0.80000001
   0.63989461  0.37499997  0.00000000
   0.26489466  0.74999994  0.50000000
   0.76489466  0.74999994  0.70000005
   0.26489448  0.74999994  0.89999998
   0.76489461  0.24999999  0.50000000
   0.26489461  0.24999999  0.70000005
   0.76489448  0.24999999  0.89999998
   0.38989463  0.62499994  0.59999996
   0.88989448  0.62499994  0.80000001
   0.38989461  0.62499994  0.00000000
   0.88989461  0.12499999  0.59999996
   0.38989448  0.12499999  0.80000001
   0.88989448  0.12499999  0.00000000
