 168 168   0   0
  0.2780971E+02  0.1131560E-08  0.1959920E-08  0.2580094E-08  0.5000000E-15
  1.000000000000000E-004
  CAR 
 Si and Ge interface calculation         
      6.30845224     -9.85489453  301      3.35276369      1.00000000
     -9.855  0.0000E+00  0.0000E+00  0.0000E+00  0.0000E+00
     -9.801  0.0000E+00  0.0000E+00  0.0000E+00  0.0000E+00
     -9.747  0.0000E+00  0.0000E+00  0.0000E+00  0.0000E+00
     -9.693  0.0000E+00  0.0000E+00  0.0000E+00  0.0000E+00
     -9.639  0.0000E+00  0.0000E+00  0.0000E+00  0.0000E+00
     -9.586  0.0000E+00  0.0000E+00  0.0000E+00  0.0000E+00
     -9.532  0.0000E+00  0.0000E+00  0.0000E+00  0.0000E+00
     -9.478  0.0000E+00  0.0000E+00  0.0000E+00  0.0000E+00
     -9.424  0.0000E+00  0.0000E+00  0.0000E+00  0.0000E+00
     -9.370  0.0000E+00  0.0000E+00  0.0000E+00  0.0000E+00
     -9.316  0.0000E+00  0.0000E+00  0.0000E+00  0.0000E+00
     -9.262  0.0000E+00  0.0000E+00  0.0000E+00  0.0000E+00
     -9.208  0.0000E+00  0.0000E+00  0.0000E+00  0.0000E+00
     -9.154  0.3843E-05  0.4775E-07  0.2071E-06  0.2573E-08
     -9.101  0.6170E+01  0.6033E+01  0.3324E+00  0.3251E+00
     -9.047  0.1730E-01  0.1536E+00  0.3333E+00  0.3333E+00
     -8.993  0.1966E+02  0.1370E+02  0.1392E+01  0.1072E+01
     -8.939  0.1745E+02  0.2329E+02  0.2333E+01  0.2326E+01
     -8.885  0.1148E-01  0.1321E+00  0.2333E+01  0.2333E+01
     -8.831  0.3172E+00  0.4005E-01  0.2350E+01  0.2335E+01
     -8.777  0.1825E+02  0.1851E+02  0.3334E+01  0.3333E+01
     -8.723  0.1392E+02  0.1262E+02  0.4084E+01  0.4013E+01
     -8.670  0.3672E+02  0.3483E+02  0.6062E+01  0.5889E+01
     -8.616  0.3452E+02  0.3499E+02  0.7922E+01  0.7775E+01
     -8.562  0.1374E+02  0.1587E+02  0.8663E+01  0.8630E+01
     -8.508  0.5663E+00  0.7334E+00  0.8693E+01  0.8669E+01
     -8.454  0.5758E+02  0.5356E+02  0.1180E+02  0.1156E+02
     -8.400  0.1618E+02  0.2062E+02  0.1267E+02  0.1267E+02
     -8.346  0.3905E+02  0.3682E+02  0.1477E+02  0.1465E+02
     -8.292  0.2424E+02  0.1949E+02  0.1608E+02  0.1570E+02
     -8.239  0.2879E+02  0.3350E+02  0.1763E+02  0.1751E+02
     -8.185  0.2148E+02  0.1747E+02  0.1879E+02  0.1845E+02
     -8.131  0.2396E+02  0.2480E+02  0.2008E+02  0.1978E+02
     -8.077  0.4807E+02  0.5348E+02  0.2267E+02  0.2266E+02
     -8.023  0.1288E+02  0.1256E+02  0.2336E+02  0.2334E+02
     -7.969  0.1048E+02  0.7896E+01  0.2393E+02  0.2377E+02
     -7.915  0.2001E+02  0.2290E+02  0.2500E+02  0.2500E+02
     -7.861  0.3069E+02  0.2700E+02  0.2666E+02  0.2646E+02
     -7.808  0.3107E+02  0.3456E+02  0.2833E+02  0.2832E+02
     -7.754  0.1711E+02  0.1312E+02  0.2925E+02  0.2902E+02
     -7.700  0.2009E+02  0.2431E+02  0.3034E+02  0.3033E+02
     -7.646  0.1374E+02  0.1262E+02  0.3108E+02  0.3101E+02
     -7.592  0.4477E+02  0.3736E+02  0.3349E+02  0.3303E+02
     -7.538  0.3505E+02  0.4258E+02  0.3538E+02  0.3532E+02
     -7.484  0.5137E+02  0.4638E+02  0.3814E+02  0.3782E+02
     -7.430  0.2646E+02  0.2953E+02  0.3957E+02  0.3941E+02
     -7.377  0.3003E+02  0.2916E+02  0.4119E+02  0.4098E+02
     -7.323  0.1584E+02  0.1871E+02  0.4204E+02  0.4199E+02
     -7.269  0.3373E+02  0.2939E+02  0.4386E+02  0.4357E+02
     -7.215  0.4873E+02  0.4762E+02  0.4648E+02  0.4614E+02
     -7.161  0.7149E+02  0.7377E+02  0.5033E+02  0.5011E+02
     -7.107  0.1856E+02  0.2251E+02  0.5133E+02  0.5133E+02
     -7.053  0.4172E+02  0.4002E+02  0.5358E+02  0.5348E+02
     -6.999  0.2851E+02  0.2727E+02  0.5512E+02  0.5495E+02
     -6.945  0.4757E+02  0.4826E+02  0.5768E+02  0.5755E+02
     -6.892  0.4712E+02  0.4392E+02  0.6022E+02  0.5992E+02
     -6.838  0.4939E+02  0.4849E+02  0.6288E+02  0.6253E+02
     -6.784  0.6093E+02  0.5959E+02  0.6616E+02  0.6574E+02
     -6.730  0.3900E+02  0.4287E+02  0.6827E+02  0.6805E+02
     -6.676  0.2533E+02  0.2679E+02  0.6963E+02  0.6950E+02
     -6.622  0.5307E+02  0.5076E+02  0.7249E+02  0.7223E+02
     -6.568  0.2953E+02  0.2727E+02  0.7408E+02  0.7370E+02
     -6.514  0.4274E+02  0.4365E+02  0.7638E+02  0.7605E+02
     -6.461  0.2438E+02  0.2813E+02  0.7770E+02  0.7757E+02
     -6.407  0.5296E+02  0.4856E+02  0.8055E+02  0.8018E+02
     -6.353  0.7388E+02  0.7802E+02  0.8453E+02  0.8439E+02
     -6.299  0.3003E+02  0.3055E+02  0.8615E+02  0.8603E+02
     -6.245  0.7131E+02  0.6531E+02  0.8999E+02  0.8955E+02
     -6.191  0.6413E+02  0.6405E+02  0.9345E+02  0.9300E+02
     -6.137  0.4456E+02  0.5026E+02  0.9585E+02  0.9571E+02
     -6.083  0.3389E+02  0.3633E+02  0.9767E+02  0.9767E+02
     -6.030  0.3701E+02  0.3639E+02  0.9967E+02  0.9963E+02
     -5.976  0.4891E+02  0.4643E+02  0.1023E+03  0.1021E+03
     -5.922  0.2503E+02  0.2625E+02  0.1037E+03  0.1035E+03
     -5.868  0.3147E+02  0.3325E+02  0.1053E+03  0.1053E+03
     -5.814  0.4371E+02  0.4105E+02  0.1077E+03  0.1075E+03
     -5.760  0.5047E+02  0.4825E+02  0.1104E+03  0.1101E+03
     -5.706  0.3415E+02  0.3697E+02  0.1123E+03  0.1121E+03
     -5.652  0.2179E+02  0.2283E+02  0.1134E+03  0.1134E+03
     -5.599  0.2461E+02  0.2417E+02  0.1148E+03  0.1147E+03
     -5.545  0.2822E+02  0.2543E+02  0.1163E+03  0.1160E+03
     -5.491  0.7872E+02  0.7532E+02  0.1205E+03  0.1201E+03
     -5.437  0.5320E+02  0.5820E+02  0.1234E+03  0.1232E+03
     -5.383  0.7334E+02  0.6699E+02  0.1273E+03  0.1268E+03
     -5.329  0.6876E+02  0.7191E+02  0.1310E+03  0.1307E+03
     -5.275  0.3150E+02  0.3359E+02  0.1327E+03  0.1325E+03
     -5.221  0.7621E+02  0.7758E+02  0.1368E+03  0.1367E+03
     -5.168  0.4039E+02  0.3826E+02  0.1390E+03  0.1388E+03
     -5.114  0.6980E+02  0.7201E+02  0.1428E+03  0.1426E+03
     -5.060  0.3764E+02  0.3416E+02  0.1448E+03  0.1445E+03
     -5.006  0.2214E+02  0.2805E+02  0.1460E+03  0.1460E+03
     -4.952  0.6105E+02  0.5080E+02  0.1493E+03  0.1487E+03
     -4.898  0.5252E+02  0.6019E+02  0.1521E+03  0.1520E+03
     -4.844  0.5826E+02  0.5704E+02  0.1553E+03  0.1551E+03
     -4.790  0.7244E+02  0.7335E+02  0.1592E+03  0.1590E+03
     -4.737  0.3485E+02  0.3365E+02  0.1610E+03  0.1608E+03
     -4.683  0.7465E+02  0.7314E+02  0.1651E+03  0.1648E+03
     -4.629  0.4646E+02  0.4865E+02  0.1676E+03  0.1674E+03
     -4.575  0.6432E+02  0.6729E+02  0.1710E+03  0.1710E+03
     -4.521  0.2483E+02  0.2258E+02  0.1724E+03  0.1722E+03
     -4.467  0.3809E+02  0.3546E+02  0.1744E+03  0.1741E+03
     -4.413  0.6174E+02  0.6222E+02  0.1778E+03  0.1775E+03
     -4.359  0.5553E+02  0.5911E+02  0.1807E+03  0.1807E+03
     -4.305  0.6763E+02  0.6287E+02  0.1844E+03  0.1841E+03
     -4.252  0.2894E+02  0.3270E+02  0.1859E+03  0.1858E+03
     -4.198  0.2531E+02  0.1834E+02  0.1873E+03  0.1868E+03
     -4.144  0.5004E+02  0.5305E+02  0.1900E+03  0.1897E+03
     -4.090  0.7566E+02  0.6756E+02  0.1941E+03  0.1933E+03
     -4.036  0.6213E+02  0.7182E+02  0.1974E+03  0.1972E+03
     -3.982  0.3470E+02  0.3223E+02  0.1993E+03  0.1989E+03
     -3.928  0.7162E+02  0.7621E+02  0.2032E+03  0.2030E+03
     -3.874  0.6534E+02  0.6560E+02  0.2067E+03  0.2066E+03
     -3.821  0.3305E+02  0.2847E+02  0.2085E+03  0.2081E+03
     -3.767  0.3003E+02  0.3598E+02  0.2101E+03  0.2100E+03
     -3.713  0.6096E+02  0.5439E+02  0.2134E+03  0.2130E+03
     -3.659  0.8902E+02  0.8695E+02  0.2182E+03  0.2176E+03
     -3.605  0.3105E+02  0.3837E+02  0.2198E+03  0.2197E+03
     -3.551  0.6679E+02  0.6589E+02  0.2234E+03  0.2233E+03
     -3.497  0.3497E+02  0.3368E+02  0.2253E+03  0.2251E+03
     -3.443  0.4288E+02  0.4043E+02  0.2276E+03  0.2272E+03
     -3.390  0.2715E+02  0.3298E+02  0.2291E+03  0.2290E+03
     -3.336  0.6215E+02  0.5801E+02  0.2324E+03  0.2321E+03
     -3.282  0.3984E+02  0.3959E+02  0.2346E+03  0.2343E+03
     -3.228  0.4817E+02  0.4994E+02  0.2372E+03  0.2370E+03
     -3.174  0.2807E+02  0.3033E+02  0.2387E+03  0.2386E+03
     -3.120  0.4743E+02  0.4404E+02  0.2412E+03  0.2410E+03
     -3.066  0.4593E+02  0.5008E+02  0.2437E+03  0.2437E+03
     -3.012  0.4142E+02  0.3698E+02  0.2460E+03  0.2457E+03
     -2.959  0.6169E+02  0.6476E+02  0.2493E+03  0.2492E+03
     -2.905  0.5107E+02  0.4724E+02  0.2520E+03  0.2517E+03
     -2.851  0.4277E+02  0.4804E+02  0.2543E+03  0.2543E+03
     -2.797  0.2544E+02  0.2559E+02  0.2557E+03  0.2557E+03
     -2.743  0.6816E+02  0.6162E+02  0.2594E+03  0.2590E+03
     -2.689  0.6796E+02  0.7100E+02  0.2630E+03  0.2628E+03
     -2.635  0.4473E+02  0.4039E+02  0.2654E+03  0.2650E+03
     -2.581  0.6190E+02  0.6671E+02  0.2688E+03  0.2686E+03
     -2.528  0.5261E+02  0.4962E+02  0.2716E+03  0.2713E+03
     -2.474  0.5297E+02  0.5637E+02  0.2745E+03  0.2743E+03
     -2.420  0.4216E+02  0.4038E+02  0.2767E+03  0.2765E+03
     -2.366  0.6449E+02  0.6466E+02  0.2802E+03  0.2800E+03
     -2.312  0.3928E+02  0.4393E+02  0.2823E+03  0.2823E+03
     -2.258  0.2678E+02  0.2516E+02  0.2838E+03  0.2837E+03
     -2.204  0.3070E+02  0.2852E+02  0.2854E+03  0.2852E+03
     -2.150  0.4049E+02  0.4226E+02  0.2876E+03  0.2875E+03
     -2.096  0.1696E+02  0.1533E+02  0.2885E+03  0.2883E+03
     -2.043  0.2906E+02  0.2882E+02  0.2901E+03  0.2899E+03
     -1.989  0.3633E+02  0.2918E+02  0.2920E+03  0.2914E+03
     -1.935  0.4289E+02  0.5368E+02  0.2944E+03  0.2943E+03
     -1.881  0.3329E+02  0.3052E+02  0.2962E+03  0.2960E+03
     -1.827  0.2938E+02  0.3107E+02  0.2977E+03  0.2977E+03
     -1.773  0.3692E+02  0.3269E+02  0.2997E+03  0.2994E+03
     -1.719  0.3636E+02  0.4183E+02  0.3017E+03  0.3017E+03
     -1.665  0.5099E+02  0.4403E+02  0.3044E+03  0.3040E+03
     -1.612  0.2924E+02  0.3635E+02  0.3060E+03  0.3060E+03
     -1.558  0.2493E+02  0.2439E+02  0.3073E+03  0.3073E+03
     -1.504  0.2208E+02  0.2000E+02  0.3085E+03  0.3084E+03
     -1.450  0.5434E+02  0.5448E+02  0.3115E+03  0.3113E+03
     -1.396  0.1503E+02  0.1587E+02  0.3123E+03  0.3122E+03
     -1.342  0.7255E+01  0.8976E+01  0.3127E+03  0.3127E+03
     -1.288  0.1226E+02  0.6135E+01  0.3133E+03  0.3130E+03
     -1.234  0.3724E+02  0.4336E+02  0.3153E+03  0.3153E+03
     -1.181  0.4354E+01  0.2390E+01  0.3156E+03  0.3155E+03
     -1.127  0.2039E+02  0.2236E+02  0.3167E+03  0.3167E+03
     -1.073  0.1506E+02  0.1293E+02  0.3175E+03  0.3174E+03
     -1.019  0.2484E+02  0.2482E+02  0.3188E+03  0.3187E+03
     -0.965  0.3602E+02  0.3341E+02  0.3208E+03  0.3205E+03
     -0.911  0.1069E+02  0.1546E+02  0.3213E+03  0.3213E+03
     -0.857  0.3023E-01  0.3253E-02  0.3213E+03  0.3213E+03
     -0.803  0.2519E+02  0.2477E+02  0.3227E+03  0.3227E+03
     -0.750  0.1883E+02  0.1865E+02  0.3237E+03  0.3237E+03
     -0.696  0.3799E+02  0.3107E+02  0.3258E+03  0.3253E+03
     -0.642  0.5665E+02  0.5872E+02  0.3288E+03  0.3285E+03
     -0.588  0.8084E+02  0.8030E+02  0.3332E+03  0.3328E+03
     -0.534  0.5754E+02  0.5071E+02  0.3363E+03  0.3356E+03
     -0.480  0.4713E+02  0.5045E+02  0.3388E+03  0.3383E+03
     -0.426  0.7380E+02  0.7943E+02  0.3428E+03  0.3426E+03
     -0.372  0.4752E+02  0.4328E+02  0.3453E+03  0.3449E+03
     -0.319  0.7255E+02  0.7368E+02  0.3492E+03  0.3489E+03
     -0.265  0.1067E+03  0.1019E+03  0.3550E+03  0.3544E+03
     -0.211  0.8014E+02  0.8895E+02  0.3593E+03  0.3592E+03
     -0.157  0.7451E+02  0.7023E+02  0.3633E+03  0.3629E+03
     -0.103  0.5845E+02  0.5721E+02  0.3665E+03  0.3660E+03
     -0.049  0.8369E+02  0.8565E+02  0.3710E+03  0.3706E+03
      0.005  0.6119E+02  0.6449E+02  0.3743E+03  0.3741E+03
      0.059  0.6469E+02  0.6338E+02  0.3778E+03  0.3775E+03
      0.113  0.8992E+02  0.8238E+02  0.3826E+03  0.3820E+03
      0.166  0.7376E+02  0.7300E+02  0.3866E+03  0.3859E+03
      0.220  0.9046E+02  0.9818E+02  0.3915E+03  0.3912E+03
      0.274  0.6708E+02  0.6660E+02  0.3951E+03  0.3948E+03
      0.328  0.1156E+03  0.1112E+03  0.4013E+03  0.4008E+03
      0.382  0.9447E+02  0.9333E+02  0.4064E+03  0.4058E+03
      0.436  0.1087E+03  0.1144E+03  0.4122E+03  0.4120E+03
      0.490  0.1387E+03  0.1266E+03  0.4197E+03  0.4188E+03
      0.544  0.1199E+03  0.1282E+03  0.4262E+03  0.4257E+03
      0.597  0.1225E+03  0.1185E+03  0.4328E+03  0.4321E+03
      0.651  0.1376E+03  0.1373E+03  0.4402E+03  0.4395E+03
      0.705  0.1313E+03  0.1305E+03  0.4473E+03  0.4465E+03
      0.759  0.1208E+03  0.1208E+03  0.4538E+03  0.4530E+03
      0.813  0.1157E+03  0.1216E+03  0.4600E+03  0.4596E+03
      0.867  0.8907E+02  0.9098E+02  0.4648E+03  0.4645E+03
      0.921  0.9333E+02  0.8893E+02  0.4698E+03  0.4693E+03
      0.975  0.1112E+03  0.1139E+03  0.4758E+03  0.4754E+03
      1.028  0.7822E+02  0.7789E+02  0.4800E+03  0.4796E+03
      1.082  0.1019E+03  0.9946E+02  0.4855E+03  0.4849E+03
      1.136  0.1329E+03  0.1323E+03  0.4927E+03  0.4921E+03
      1.190  0.1032E+03  0.1069E+03  0.4983E+03  0.4978E+03
      1.244  0.1292E+03  0.1230E+03  0.5052E+03  0.5045E+03
      1.298  0.1178E+03  0.1183E+03  0.5116E+03  0.5108E+03
      1.352  0.1068E+03  0.1061E+03  0.5173E+03  0.5166E+03
      1.406  0.8583E+02  0.9200E+02  0.5219E+03  0.5215E+03
      1.459  0.1116E+03  0.1138E+03  0.5280E+03  0.5276E+03
      1.513  0.1268E+03  0.1216E+03  0.5348E+03  0.5342E+03
      1.567  0.1326E+03  0.1298E+03  0.5419E+03  0.5412E+03
      1.621  0.1068E+03  0.1111E+03  0.5477E+03  0.5472E+03
      1.675  0.1228E+03  0.1202E+03  0.5543E+03  0.5536E+03
      1.729  0.9343E+02  0.9996E+02  0.5593E+03  0.5590E+03
      1.783  0.1119E+03  0.1042E+03  0.5654E+03  0.5646E+03
      1.837  0.1331E+03  0.1354E+03  0.5725E+03  0.5719E+03
      1.890  0.5463E+02  0.5873E+02  0.5755E+03  0.5751E+03
      1.944  0.1211E+03  0.1275E+03  0.5820E+03  0.5820E+03
      1.998  0.8129E+02  0.6583E+02  0.5864E+03  0.5855E+03
      2.052  0.9845E+02  0.1102E+03  0.5917E+03  0.5915E+03
      2.106  0.7500E+02  0.6966E+02  0.5957E+03  0.5952E+03
      2.160  0.7534E+02  0.7322E+02  0.5998E+03  0.5992E+03
      2.214  0.7800E+02  0.8471E+02  0.6040E+03  0.6037E+03
      2.268  0.8537E+02  0.7663E+02  0.6086E+03  0.6079E+03
      2.321  0.7203E+02  0.8312E+02  0.6125E+03  0.6123E+03
      2.375  0.6659E+02  0.6616E+02  0.6161E+03  0.6159E+03
      2.429  0.7572E+02  0.7051E+02  0.6201E+03  0.6197E+03
      2.483  0.8888E+02  0.8428E+02  0.6249E+03  0.6242E+03
      2.537  0.9739E+02  0.1005E+03  0.6302E+03  0.6297E+03
      2.591  0.6777E+02  0.6330E+02  0.6338E+03  0.6331E+03
      2.645  0.3590E+02  0.4480E+02  0.6358E+03  0.6355E+03
      2.699  0.9784E+02  0.8669E+02  0.6410E+03  0.6401E+03
      2.753  0.5426E+02  0.6824E+02  0.6439E+03  0.6438E+03
      2.806  0.6668E+02  0.5998E+02  0.6475E+03  0.6471E+03
      2.860  0.3270E+02  0.3517E+02  0.6493E+03  0.6490E+03
      2.914  0.6044E+02  0.5519E+02  0.6526E+03  0.6519E+03
      2.968  0.4372E+02  0.5139E+02  0.6549E+03  0.6547E+03
      3.022  0.2894E+02  0.2823E+02  0.6565E+03  0.6562E+03
      3.076  0.5423E+02  0.5055E+02  0.6594E+03  0.6589E+03
      3.130  0.3451E+02  0.3777E+02  0.6613E+03  0.6610E+03
      3.184  0.4385E+02  0.3394E+02  0.6636E+03  0.6628E+03
      3.237  0.6025E+02  0.6262E+02  0.6669E+03  0.6662E+03
      3.291  0.5285E+02  0.5687E+02  0.6697E+03  0.6692E+03
      3.345  0.2715E+02  0.2815E+02  0.6712E+03  0.6708E+03
      3.399  0.1509E+02  0.2030E+02  0.6720E+03  0.6719E+03
      3.453  0.3198E+02  0.3346E+02  0.6737E+03  0.6737E+03
      3.507  0.2765E+02  0.2223E+02  0.6752E+03  0.6749E+03
      3.561  0.4850E+02  0.5162E+02  0.6778E+03  0.6776E+03
      3.615  0.2119E+02  0.1255E+02  0.6790E+03  0.6783E+03
      3.668  0.6151E+02  0.6645E+02  0.6823E+03  0.6819E+03
      3.722  0.1967E+02  0.2563E+02  0.6833E+03  0.6833E+03
      3.776  0.2413E+02  0.2089E+02  0.6846E+03  0.6844E+03
      3.830  0.7276E+00  0.5039E+01  0.6847E+03  0.6847E+03
      3.884  0.1209E+02  0.8536E+01  0.6853E+03  0.6851E+03
      3.938  0.2201E+02  0.2360E+02  0.6865E+03  0.6864E+03
      3.992  0.2124E+02  0.1797E+02  0.6877E+03  0.6874E+03
      4.046  0.4198E+02  0.4471E+02  0.6899E+03  0.6898E+03
      4.099  0.4253E+02  0.3000E+02  0.6922E+03  0.6914E+03
      4.153  0.3502E+02  0.4862E+02  0.6941E+03  0.6940E+03
      4.207  0.2421E+02  0.2424E+02  0.6954E+03  0.6953E+03
      4.261  0.2243E+02  0.2185E+02  0.6966E+03  0.6965E+03
      4.315  0.5233E+02  0.4692E+02  0.6994E+03  0.6990E+03
      4.369  0.4323E+02  0.4477E+02  0.7018E+03  0.7014E+03
      4.423  0.6134E+02  0.6436E+02  0.7051E+03  0.7049E+03
      4.477  0.7246E+02  0.7353E+02  0.7090E+03  0.7089E+03
      4.530  0.6211E+02  0.5806E+02  0.7123E+03  0.7120E+03
      4.584  0.5666E+02  0.5425E+02  0.7154E+03  0.7149E+03
      4.638  0.7122E+02  0.7676E+02  0.7192E+03  0.7190E+03
      4.692  0.8293E+02  0.7841E+02  0.7237E+03  0.7233E+03
      4.746  0.8651E+02  0.9159E+02  0.7283E+03  0.7282E+03
      4.800  0.7739E+02  0.6794E+02  0.7325E+03  0.7319E+03
      4.854  0.8567E+02  0.8691E+02  0.7371E+03  0.7366E+03
      4.908  0.8739E+02  0.9245E+02  0.7418E+03  0.7415E+03
      4.962  0.1214E+03  0.1179E+03  0.7484E+03  0.7479E+03
      5.015  0.9918E+02  0.9673E+02  0.7537E+03  0.7531E+03
      5.069  0.1332E+03  0.1336E+03  0.7609E+03  0.7603E+03
      5.123  0.9824E+02  0.1011E+03  0.7662E+03  0.7657E+03
      5.177  0.9839E+02  0.9930E+02  0.7715E+03  0.7711E+03
      5.231  0.9731E+02  0.1002E+03  0.7767E+03  0.7765E+03
      5.285  0.1035E+03  0.1023E+03  0.7823E+03  0.7820E+03
      5.339  0.1183E+03  0.1212E+03  0.7887E+03  0.7885E+03
      5.393  0.1019E+03  0.9727E+02  0.7942E+03  0.7938E+03
      5.446  0.9797E+02  0.9655E+02  0.7994E+03  0.7990E+03
      5.500  0.9953E+02  0.9911E+02  0.8048E+03  0.8043E+03
      5.554  0.4033E+02  0.4955E+02  0.8070E+03  0.8070E+03
      5.608  0.1908E+02  0.1882E+02  0.8080E+03  0.8080E+03
      5.662  0.0000E+00  0.0000E+00  0.8080E+03  0.8080E+03
      5.716  0.0000E+00  0.0000E+00  0.8080E+03  0.8080E+03
      5.770  0.0000E+00  0.0000E+00  0.8080E+03  0.8080E+03
      5.824  0.0000E+00  0.0000E+00  0.8080E+03  0.8080E+03
      5.877  0.0000E+00  0.0000E+00  0.8080E+03  0.8080E+03
      5.931  0.0000E+00  0.0000E+00  0.8080E+03  0.8080E+03
      5.985  0.0000E+00  0.0000E+00  0.8080E+03  0.8080E+03
      6.039  0.0000E+00  0.0000E+00  0.8080E+03  0.8080E+03
      6.093  0.0000E+00  0.0000E+00  0.8080E+03  0.8080E+03
      6.147  0.0000E+00  0.0000E+00  0.8080E+03  0.8080E+03
      6.201  0.0000E+00  0.0000E+00  0.8080E+03  0.8080E+03
      6.255  0.0000E+00  0.0000E+00  0.8080E+03  0.8080E+03
      6.308  0.0000E+00  0.0000E+00  0.8080E+03  0.8080E+03
