<?xml version="1.0" encoding="ISO-8859-1"?>
<modeling>
 <generator>
  <i name="program" type="string">vasp </i>
  <i name="version" type="string">6.4.3  </i>
  <i name="subversion" type="string">19Mar24 (build Oct 22 2024 11:23:12) complex                          parallel </i>
  <i name="platform" type="string">LinuxIFC </i>
  <i name="date" type="string">2025 06 09 </i>
  <i name="time" type="string">17:41:22 </i>
 </generator>
 <incar>
  <i type="string" name="SYSTEM">Si and Ge interface calculation</i>
  <i type="int" name="ISTART">     0</i>
  <i type="logical" name="ADDGRID"> T  </i>
  <i type="int" name="ISPIN">     2</i>
  <i name="AMIX">      0.60000000</i>
  <i type="int" name="ICHARG">     2</i>
  <i type="int" name="NELM">   100</i>
  <i name="EDIFF">      0.00000010</i>
  <i name="ENCUT">    700.00000000</i>
  <i name="ENAUG">    900.00000000</i>
  <i type="int" name="NBANDS">   548</i>
  <i name="NUPDOWN">      1.00000000</i>
  <i name="NELECT">    912.00000000</i>
  <i type="string" name="LREAL">AUTO</i>
  <i type="int" name="ISMEAR">     0</i>
  <i name="SIGMA">      0.01000000</i>
  <i type="int" name="LMAXMIX">     6</i>
  <i type="logical" name="LWAVE"> F  </i>
  <i type="logical" name="LVTOT"> F  </i>
  <i type="logical" name="LVHAR"> T  </i>
  <i type="logical" name="LASPH"> T  </i>
  <i type="logical" name="LMIXTAU"> T  </i>
 </incar>
 <primitive_cell>
  <structure name="primitive_cell" >
   <crystal>
    <varray name="basis" >
     <v>       8.58716480      -8.58716385       0.00000000 </v>
     <v>       8.58716480       8.58716591       0.00000000 </v>
     <v>       0.00000000       0.00000000      17.66099930 </v>
    </varray>
    <i name="volume">   2604.62298321 </i>
    <varray name="rec_basis" >
     <v>       0.05822644      -0.05822644       0.00000000 </v>
     <v>       0.05822643       0.05822644       0.00000000 </v>
     <v>       0.00000000       0.00000000       0.05662194 </v>
    </varray>
   </crystal>
   <varray name="positions" >
    <v>       0.02157390       0.97123504       0.00000000 </v>
    <v>       0.32157396       0.57123494       0.15375686 </v>
    <v>       0.62157402       0.17123473       0.30751380 </v>
    <v>       0.42157369       0.77123514       0.00000000 </v>
    <v>       0.72157370       0.37123499       0.15375686 </v>
    <v>       0.02157396       0.97123474       0.30751380 </v>
    <v>       0.82157390       0.57123530       0.00000000 </v>
    <v>       0.12157378       0.17123494       0.15375686 </v>
    <v>       0.42157385       0.77123470       0.30751380 </v>
    <v>       0.22157380       0.37123505       0.00000000 </v>
    <v>       0.52157392       0.97123496       0.15375686 </v>
    <v>       0.82157396       0.57123476       0.30751380 </v>
    <v>       0.62157402       0.17123520       0.00000000 </v>
    <v>       0.92157402       0.77123505       0.15375686 </v>
    <v>       0.22157392       0.37123476       0.30751380 </v>
    <v>       0.77157398       0.22123508       0.07687847 </v>
    <v>       0.07157396       0.82123482       0.23063532 </v>
    <v>       0.37157393       0.42123488       0.38439217 </v>
    <v>       0.17157377       0.02123498       0.07687847 </v>
    <v>       0.47157377       0.62123482       0.23063532 </v>
    <v>       0.77157408       0.22123462       0.38439217 </v>
    <v>       0.57157402       0.82123518       0.07687847 </v>
    <v>       0.87157383       0.42123489       0.23063532 </v>
    <v>       0.17157379       0.02123476       0.38439217 </v>
    <v>       0.97157396       0.62123519       0.07687847 </v>
    <v>       0.27157389       0.22123484       0.23063532 </v>
    <v>       0.57157402       0.82123482       0.38439217 </v>
    <v>       0.37157387       0.42123505       0.07687847 </v>
    <v>       0.67157404       0.02123491       0.23063532 </v>
    <v>       0.97157402       0.62123477       0.38439217 </v>
    <v>       0.52157390       0.47123504       0.00000000 </v>
    <v>       0.82157396       0.07123494       0.15375686 </v>
    <v>       0.12157402       0.67123473       0.30751380 </v>
    <v>       0.92157374       0.27123504       0.00000000 </v>
    <v>       0.22157373       0.87123490       0.15375686 </v>
    <v>       0.52157402       0.47123468       0.30751380 </v>
    <v>       0.32157380       0.07123507       0.00000000 </v>
    <v>       0.62157392       0.67123489       0.15375686 </v>
    <v>       0.92157385       0.27123470       0.30751380 </v>
    <v>       0.72157398       0.87123506       0.00000000 </v>
    <v>       0.02157378       0.47123492       0.15375686 </v>
    <v>       0.32157381       0.07123473       0.30751380 </v>
    <v>       0.12157402       0.67123520       0.00000000 </v>
    <v>       0.42157384       0.27123499       0.15375686 </v>
    <v>       0.72157407       0.87123484       0.30751380 </v>
    <v>       0.27157384       0.72123510       0.07687847 </v>
    <v>       0.57157390       0.32123488       0.23063532 </v>
    <v>       0.87157394       0.92123480       0.38439217 </v>
    <v>       0.67157390       0.52123511       0.07687847 </v>
    <v>       0.97157375       0.12123487       0.23063532 </v>
    <v>       0.27157396       0.72123474       0.38439217 </v>
    <v>       0.07157380       0.32123507       0.07687847 </v>
    <v>       0.37157380       0.92123492       0.23063532 </v>
    <v>       0.67157390       0.52123487       0.38439217 </v>
    <v>       0.47157375       0.12123510       0.07687847 </v>
    <v>       0.77157396       0.72123480       0.23063532 </v>
    <v>       0.07157381       0.32123473       0.38439217 </v>
    <v>       0.87157398       0.92123501       0.07687847 </v>
    <v>       0.17157396       0.52123487       0.23063532 </v>
    <v>       0.47157375       0.12123486       0.38439217 </v>
    <v>       0.32763895       0.84810656       0.49197382 </v>
    <v>       0.16097252       0.68143994       0.65215164 </v>
    <v>       0.99430573       0.51477319       0.81232941 </v>
    <v>       0.66097238       0.51477313       0.49197382 </v>
    <v>       0.49430565       0.34810644       0.65215164 </v>
    <v>       0.32763893       0.18143976       0.81232941 </v>
    <v>       0.99430551       0.18144000       0.49197382 </v>
    <v>       0.82763909       0.01477337       0.65215164 </v>
    <v>       0.66097230       0.84810662       0.81232941 </v>
    <v>       0.66097240       0.18143994       0.49197382 </v>
    <v>       0.49430564       0.01477322       0.65215164 </v>
    <v>       0.32763895       0.84810656       0.81232941 </v>
    <v>       0.99430583       0.84810650       0.49197382 </v>
    <v>       0.82763911       0.68143982       0.65215164 </v>
    <v>       0.66097238       0.51477313       0.81232941 </v>
    <v>       0.32763915       0.51477319       0.49197382 </v>
    <v>       0.16097221       0.34810665       0.65215164 </v>
    <v>       0.99430551       0.18144000       0.81232941 </v>
    <v>       0.99430573       0.51477319       0.49197382 </v>
    <v>       0.82763889       0.34810662       0.65215164 </v>
    <v>       0.66097240       0.18143994       0.81232941 </v>
    <v>       0.32763905       0.18143988       0.49197382 </v>
    <v>       0.16097232       0.01477319       0.65215164 </v>
    <v>       0.99430583       0.84810650       0.81232941 </v>
    <v>       0.66097230       0.84810662       0.49197382 </v>
    <v>       0.49430563       0.68143988       0.65215164 </v>
    <v>       0.32763915       0.51477319       0.81232941 </v>
    <v>       0.16097225       0.18143997       0.57206267 </v>
    <v>       0.99430549       0.01477325       0.73224050 </v>
    <v>       0.82763907       0.84810662       0.89241833 </v>
    <v>       0.49430556       0.84810665       0.57206267 </v>
    <v>       0.32763881       0.68143994       0.73224050 </v>
    <v>       0.16097238       0.51477331       0.89241833 </v>
    <v>       0.82763915       0.51477325       0.57206267 </v>
    <v>       0.66097218       0.34810656       0.73224050 </v>
    <v>       0.49430563       0.18143982       0.89241833 </v>
    <v>       0.49430561       0.51477337       0.57206267 </v>
    <v>       0.32763889       0.34810656       0.73224050 </v>
    <v>       0.16097213       0.18143985       0.89241833 </v>
    <v>       0.82763891       0.18144007       0.57206267 </v>
    <v>       0.66097236       0.01477332       0.73224050 </v>
    <v>       0.49430544       0.84810653       0.89241833 </v>
    <v>       0.16097236       0.84810662       0.57206267 </v>
    <v>       0.99430581       0.68143988       0.73224050 </v>
    <v>       0.82763903       0.51477313       0.89241833 </v>
    <v>       0.82763907       0.84810662       0.57206267 </v>
    <v>       0.66097228       0.68143988       0.73224050 </v>
    <v>       0.49430549       0.51477325       0.89241833 </v>
    <v>       0.16097238       0.51477331       0.57206267 </v>
    <v>       0.99430549       0.34810661       0.73224050 </v>
    <v>       0.82763879       0.18143995       0.89241833 </v>
    <v>       0.49430566       0.18143985       0.57206267 </v>
    <v>       0.32763894       0.01477316       0.73224050 </v>
    <v>       0.16097224       0.84810650       0.89241833 </v>
   </varray>
  </structure>
  <varray name="primitive_index" >
   <v type="int" >        1 </v>
   <v type="int" >        2 </v>
   <v type="int" >        3 </v>
   <v type="int" >        4 </v>
   <v type="int" >        5 </v>
   <v type="int" >        6 </v>
   <v type="int" >       22 </v>
   <v type="int" >        8 </v>
   <v type="int" >        9 </v>
   <v type="int" >       10 </v>
   <v type="int" >       26 </v>
   <v type="int" >       27 </v>
   <v type="int" >       28 </v>
   <v type="int" >       29 </v>
   <v type="int" >       15 </v>
   <v type="int" >       31 </v>
   <v type="int" >       32 </v>
   <v type="int" >       48 </v>
   <v type="int" >       34 </v>
   <v type="int" >       35 </v>
   <v type="int" >       36 </v>
   <v type="int" >       52 </v>
   <v type="int" >       38 </v>
   <v type="int" >       39 </v>
   <v type="int" >       55 </v>
   <v type="int" >       41 </v>
   <v type="int" >       57 </v>
   <v type="int" >       43 </v>
   <v type="int" >       59 </v>
   <v type="int" >       60 </v>
   <v type="int" >       76 </v>
   <v type="int" >       62 </v>
   <v type="int" >       63 </v>
   <v type="int" >       64 </v>
   <v type="int" >       65 </v>
   <v type="int" >       66 </v>
   <v type="int" >       67 </v>
   <v type="int" >       83 </v>
   <v type="int" >       69 </v>
   <v type="int" >       85 </v>
   <v type="int" >       71 </v>
   <v type="int" >       72 </v>
   <v type="int" >       88 </v>
   <v type="int" >       74 </v>
   <v type="int" >       90 </v>
   <v type="int" >       91 </v>
   <v type="int" >       92 </v>
   <v type="int" >       93 </v>
   <v type="int" >      109 </v>
   <v type="int" >       95 </v>
   <v type="int" >       96 </v>
   <v type="int" >       97 </v>
   <v type="int" >       98 </v>
   <v type="int" >      114 </v>
   <v type="int" >      100 </v>
   <v type="int" >      116 </v>
   <v type="int" >      102 </v>
   <v type="int" >      118 </v>
   <v type="int" >      119 </v>
   <v type="int" >      105 </v>
   <v type="int" >      121 </v>
   <v type="int" >      122 </v>
   <v type="int" >      123 </v>
   <v type="int" >      184 </v>
   <v type="int" >      185 </v>
   <v type="int" >      186 </v>
   <v type="int" >      127 </v>
   <v type="int" >      128 </v>
   <v type="int" >      129 </v>
   <v type="int" >      199 </v>
   <v type="int" >      131 </v>
   <v type="int" >      132 </v>
   <v type="int" >      193 </v>
   <v type="int" >      194 </v>
   <v type="int" >      195 </v>
   <v type="int" >      196 </v>
   <v type="int" >      137 </v>
   <v type="int" >      138 </v>
   <v type="int" >      139 </v>
   <v type="int" >      182 </v>
   <v type="int" >      183 </v>
   <v type="int" >      175 </v>
   <v type="int" >      176 </v>
   <v type="int" >      177 </v>
   <v type="int" >      145 </v>
   <v type="int" >      179 </v>
   <v type="int" >      180 </v>
   <v type="int" >      148 </v>
   <v type="int" >      149 </v>
   <v type="int" >      150 </v>
   <v type="int" >      151 </v>
   <v type="int" >      152 </v>
   <v type="int" >      153 </v>
   <v type="int" >      211 </v>
   <v type="int" >      155 </v>
   <v type="int" >      213 </v>
   <v type="int" >      223 </v>
   <v type="int" >      158 </v>
   <v type="int" >      159 </v>
   <v type="int" >      226 </v>
   <v type="int" >      227 </v>
   <v type="int" >      162 </v>
   <v type="int" >      220 </v>
   <v type="int" >      221 </v>
   <v type="int" >      222 </v>
   <v type="int" >      166 </v>
   <v type="int" >      167 </v>
   <v type="int" >      207 </v>
   <v type="int" >      169 </v>
   <v type="int" >      209 </v>
   <v type="int" >      210 </v>
   <v type="int" >      202 </v>
   <v type="int" >      203 </v>
   <v type="int" >      204 </v>
  </varray>
 </primitive_cell>
 <kpoints>
  <generation param="Gamma">
   <v type="int" name="divisions">       2        2        2 </v>
   <v name="usershift">      0.00000000       0.00000000       0.00000000 </v>
   <v name="genvec1">      0.50000000       0.00000000       0.00000000 </v>
   <v name="genvec2">      0.00000000       0.50000000       0.00000000 </v>
   <v name="genvec3">      0.00000000       0.00000000       0.50000000 </v>
   <v name="shift">      0.00000000       0.00000000       0.00000000 </v>
  </generation>
  <varray name="kpointlist" >
   <v>       0.00000000       0.00000000       0.00000000 </v>
   <v>       0.50000000       0.00000000       0.00000000 </v>
   <v>       0.00000000       0.50000000       0.00000000 </v>
   <v>       0.50000000       0.50000000       0.00000000 </v>
   <v>       0.00000000       0.00000000       0.50000000 </v>
   <v>       0.50000000       0.00000000       0.50000000 </v>
   <v>       0.00000000       0.50000000       0.50000000 </v>
   <v>       0.50000000       0.50000000       0.50000000 </v>
  </varray>
  <varray name="weights" >
   <v>       0.12500000 </v>
   <v>       0.12500000 </v>
   <v>       0.12500000 </v>
   <v>       0.12500000 </v>
   <v>       0.12500000 </v>
   <v>       0.12500000 </v>
   <v>       0.12500000 </v>
   <v>       0.12500000 </v>
  </varray>
 </kpoints>
 <parameters>
  <separator name="general" >
   <i type="string" name="SYSTEM">Si and Ge interface calculation</i>
   <i type="logical" name="LCOMPAT"> F  </i>
  </separator>
  <separator name="electronic" >
   <i type="string" name="PREC">normal</i>
   <i name="ENMAX">    700.00000000</i>
   <i name="ENAUG">    900.00000000</i>
   <i name="EDIFF">      0.00000010</i>
   <i type="int" name="IALGO">    38</i>
   <i type="int" name="IWAVPR">    10</i>
   <i type="int" name="NBANDS">   548</i>
   <i type="int" name="NBANDSLOW">    -1</i>
   <i type="int" name="NBANDSHIGH">    -1</i>
   <i name="NELECT">    912.00000000</i>
   <i type="int" name="TURBO">     0</i>
   <i type="int" name="IRESTART">     0</i>
   <i type="int" name="NREBOOT">     0</i>
   <i type="int" name="NMIN">     0</i>
   <i name="EREF">      0.00000000</i>
   <separator name="electronic smearing" >
    <i type="int" name="ISMEAR">     0</i>
    <i name="SIGMA">      0.01000000</i>
    <i name="KSPACING">      0.50000000</i>
    <i type="logical" name="KGAMMA"> T  </i>
    <i type="logical" name="KBLOWUP"> T  </i>
   </separator>
   <separator name="electronic projectors" >
    <i type="logical" name="LREAL"> T  </i>
    <v name="ROPT">     -0.00050000     -0.00050000</v>
    <i type="int" name="LMAXPAW">  -100</i>
    <i type="int" name="LMAXMIX">     6</i>
    <i type="logical" name="NLSPLINE"> F  </i>
   </separator>
   <separator name="electronic startup" >
    <i type="int" name="ISTART">     0</i>
    <i type="int" name="ICHARG">     2</i>
    <i type="int" name="INIWAV">     1</i>
   </separator>
   <separator name="electronic spin" >
    <i type="int" name="ISPIN">     2</i>
    <i type="logical" name="LNONCOLLINEAR"> F  </i>
    <v name="MAGMOM">      0.00438596      0.00438596      0.00438596      0.00438596      0.00438596      0.00438596      0.00438596      0.00438596      0.00438596      0.00438596      0.00438596      0.00438596      0.00438596      0.00438596      0.00438596      0.00438596      0.00438596      0.00438596      0.00438596      0.00438596
      0.00438596      0.00438596      0.00438596      0.00438596      0.00438596      0.00438596      0.00438596      0.00438596      0.00438596      0.00438596      0.00438596      0.00438596      0.00438596      0.00438596      0.00438596      0.00438596      0.00438596      0.00438596      0.00438596      0.00438596
      0.00438596      0.00438596      0.00438596      0.00438596      0.00438596      0.00438596      0.00438596      0.00438596      0.00438596      0.00438596      0.00438596      0.00438596      0.00438596      0.00438596      0.00438596      0.00438596      0.00438596      0.00438596      0.00438596      0.00438596
      0.00438596      0.00438596      0.00438596      0.00438596      0.00438596      0.00438596      0.00438596      0.00438596      0.00438596      0.00438596      0.00438596      0.00438596      0.00438596      0.00438596      0.00438596      0.00438596      0.00438596      0.00438596      0.00438596      0.00438596
      0.00438596      0.00438596      0.00438596      0.00438596      0.00438596      0.00438596      0.00438596      0.00438596      0.00438596      0.00438596      0.00438596      0.00438596      0.00438596      0.00438596      0.00438596      0.00438596      0.00438596      0.00438596      0.00438596      0.00438596
      0.00438596      0.00438596      0.00438596      0.00438596      0.00438596      0.00438596      0.00438596      0.00438596      0.00438596      0.00438596      0.00438596      0.00438596      0.00438596      0.00438596      0.00438596      0.00438596      0.00438596      0.00438596      0.00438596      0.00438596
      0.00438596      0.00438596      0.00438596      0.00438596      0.00438596      0.00438596      0.00438596      0.00438596      0.00438596      0.00438596      0.00438596      0.00438596      0.00438596      0.00438596      0.00438596      0.00438596      0.00438596      0.00438596      0.00438596      0.00438596
      0.00438596      0.00438596      0.00438596      0.00438596      0.00438596      0.00438596      0.00438596      0.00438596      0.00438596      0.00438596      0.00438596      0.00438596      0.00438596      0.00438596      0.00438596      0.00438596      0.00438596      0.00438596      0.00438596      0.00438596
      0.00438596      0.00438596      0.00438596      0.00438596      0.00438596      0.00438596      0.00438596      0.00438596      0.00438596      0.00438596      0.00438596      0.00438596      0.00438596      0.00438596      0.00438596      0.00438596      0.00438596      0.00438596      0.00438596      0.00438596
      0.00438596      0.00438596      0.00438596      0.00438596      0.00438596      0.00438596      0.00438596      0.00438596      0.00438596      0.00438596      0.00438596      0.00438596      0.00438596      0.00438596      0.00438596      0.00438596      0.00438596      0.00438596      0.00438596      0.00438596
      0.00438596      0.00438596      0.00438596      0.00438596      0.00438596      0.00438596      0.00438596      0.00438596      0.00438596      0.00438596      0.00438596      0.00438596      0.00438596      0.00438596      0.00438596      0.00438596      0.00438596      0.00438596      0.00438596      0.00438596
      0.00438596      0.00438596      0.00438596      0.00438596      0.00438596      0.00438596      0.00438596      0.00438596</v>
    <i name="NUPDOWN">      1.00000000</i>
    <i type="logical" name="LSORBIT"> F  </i>
    <v name="SAXIS">      0.00000000      0.00000000      1.00000000</v>
    <i type="logical" name="LSPIRAL"> F  </i>
    <v name="QSPIRAL">      0.00000000      0.00000000      0.00000000</v>
    <i type="logical" name="LZEROZ"> F  </i>
   </separator>
   <separator name="electronic exchange-correlation" >
    <i type="logical" name="LASPH"> T  </i>
   </separator>
   <separator name="electronic convergence" >
    <i type="int" name="NELM">   100</i>
    <i type="int" name="NELMDL">    -5</i>
    <i type="int" name="NELMIN">     2</i>
    <i name="ENINI">    700.00000000</i>
    <separator name="electronic convergence detail" >
     <i type="logical" name="LDIAG"> T  </i>
     <i type="logical" name="LSUBROT"> F  </i>
     <i name="WEIMIN">      0.00000000</i>
     <i name="EBREAK">      0.00000000</i>
     <i name="DEPER">      0.30000000</i>
     <i type="int" name="NRMM">     4</i>
     <i name="TIME">      0.40000000</i>
    </separator>
   </separator>
   <separator name="electronic mixer" >
    <i name="AMIX">      0.60000000</i>
    <i name="BMIX">      1.00000000</i>
    <i name="AMIN">      0.10000000</i>
    <i name="AMIX_MAG">      2.40000000</i>
    <i name="BMIX_MAG">      1.00000000</i>
    <separator name="electronic mixer details" >
     <i type="int" name="IMIX">     4</i>
     <i type="logical" name="MIXFIRST"> F  </i>
     <i type="int" name="MAXMIX">   -45</i>
     <i name="WC">    100.00000000</i>
     <i type="int" name="INIMIX">     1</i>
     <i type="int" name="MIXPRE">     1</i>
     <i type="int" name="MREMOVE">     5</i>
    </separator>
   </separator>
   <separator name="electronic dipolcorrection" >
    <i type="logical" name="LDIPOL"> F  </i>
    <i type="logical" name="LMONO"> F  </i>
    <i type="int" name="IDIPOL">     0</i>
    <i name="EPSILON">      1.00000000</i>
    <v name="DIPOL">   -100.00000000   -100.00000000   -100.00000000</v>
    <i name="EFIELD">      0.00000000</i>
    <i type="logical" name="LVACPOTAV"> F  </i>
   </separator>
  </separator>
  <separator name="grids" >
   <i type="int" name="NGX">   112</i>
   <i type="int" name="NGY">   112</i>
   <i type="int" name="NGZ">   120</i>
   <i type="int" name="NGXF">   224</i>
   <i type="int" name="NGYF">   224</i>
   <i type="int" name="NGZF">   240</i>
   <i type="logical" name="ADDGRID"> T  </i>
  </separator>
  <separator name="ionic" >
   <i type="int" name="NSW">     0</i>
   <i type="int" name="IBRION">    -1</i>
   <i type="int" name="MDALGO">     0</i>
   <i type="int" name="ISIF">     2</i>
   <i name="PSTRESS">      0.00000000</i>
   <i name="EDIFFG">      0.00000100</i>
   <i type="int" name="NFREE">     0</i>
   <i name="POTIM">      0.50000000</i>
   <i name="SMASS">     -3.00000000</i>
   <i name="SCALEE">      1.00000000</i>
  </separator>
  <separator name="ionic md" >
   <i name="TEBEG">      0.00010000</i>
   <i name="TEEND">      0.00010000</i>
   <i type="int" name="NBLOCK">     1</i>
   <i type="int" name="KBLOCK">     1</i>
   <i type="int" name="NPACO">   256</i>
   <i name="APACO">     10.00000000</i>
  </separator>
  <separator name="symmetry" >
   <i type="int" name="ISYM">     2</i>
   <i name="SYMPREC">      0.00001000</i>
  </separator>
  <separator name="dos" >
   <i type="int" name="LORBIT">     0</i>
   <v name="RWIGS">     -1.00000000     -1.00000000</v>
   <i type="int" name="NEDOS">   301</i>
   <i name="EMIN">     10.00000000</i>
   <i name="EMAX">    -10.00000000</i>
   <i name="EFERMI">      0.00000000</i>
  </separator>
  <separator name="writing" >
   <i type="int" name="NWRITE">     2</i>
   <i type="logical" name="LWAVE"> F  </i>
   <i type="logical" name="LDOWNSAMPLE"> F  </i>
   <i type="logical" name="LCHARG"> T  </i>
   <i type="logical" name="LPARD"> F  </i>
   <i type="logical" name="LVTOT"> F  </i>
   <i type="logical" name="LVHAR"> T  </i>
   <i type="logical" name="LELF"> F  </i>
   <i type="logical" name="LOPTICS"> F  </i>
   <v name="STM">      0.00000000      0.00000000      0.00000000      0.00000000      0.00000000      0.00000000      0.00000000</v>
  </separator>
  <separator name="performance" >
   <i type="int" name="NPAR">     4</i>
   <i type="int" name="NSIM">     4</i>
   <i type="int" name="NBLK">    -1</i>
   <i type="logical" name="LPLANE"> T  </i>
   <i type="logical" name="LSCALAPACK"> T  </i>
   <i type="logical" name="LSCAAWARE"> F  </i>
   <i type="logical" name="LSCALU"> F  </i>
   <i type="logical" name="LASYNC"> F  </i>
   <i type="logical" name="LORBITALREAL"> F  </i>
  </separator>
  <separator name="miscellaneous" >
   <i type="int" name="IDIOT">     3</i>
   <i type="int" name="PHON_NSTRUCT">    -1</i>
   <i type="logical" name="LMUSIC"> F  </i>
   <v name="POMASS">     28.08500000     72.61000000</v>
   <v name="DARWINR">      0.00000000      0.00000000</v>
   <v name="DARWINV">      1.00000000      1.00000000</v>
   <i type="logical" name="LCORR"> T  </i>
  </separator>
  <i type="logical" name="GGA_COMPAT"> T  </i>
  <i type="logical" name="LBERRY"> F  </i>
  <i type="int" name="ICORELEVEL">     0</i>
  <i type="logical" name="LDAU"> F  </i>
  <i type="int" name="I_CONSTRAINED_M">     0</i>
  <separator name="electronic exchange-correlation" >
   <i type="string" name="GGA    ">PE</i>
   <i type="string" name="XC_C">1</i>
   <i type="int" name="VOSKOWN">     0</i>
   <i type="logical" name="LHFCALC"> F  </i>
   <i type="string" name="PRECFOCK"></i>
   <i type="logical" name="LSYMGRAD"> F  </i>
   <i type="logical" name="LHFONE"> F  </i>
   <i type="logical" name="LRHFCALC"> F  </i>
   <i type="logical" name="LTHOMAS"> F  </i>
   <i type="logical" name="LMODELHF"> F  </i>
   <i type="logical" name="LFOCKACE"> F  </i>
   <i name="ENCUT4O">     -1.00000000</i>
   <i type="int" name="EXXOEP">     0</i>
   <i type="int" name="FOURORBIT">     0</i>
   <i name="AEXX">      0.00000000</i>
   <i name="HFALPHA">      0.00000000</i>
   <i name="MCALPHA">      0.00000000</i>
   <i name="ALDAX">      1.00000000</i>
   <i name="AGGAX">      1.00000000</i>
   <i name="AMGGAX">      1.00000000</i>
   <i name="ALDAC">      1.00000000</i>
   <i name="AGGAC">      1.00000000</i>
   <i name="AMGGAC">      1.00000000</i>
   <i type="int" name="NKREDX">     1</i>
   <i type="int" name="NKREDY">     1</i>
   <i type="int" name="NKREDZ">     1</i>
   <i type="logical" name="SHIFTRED"> F  </i>
   <i type="logical" name="ODDONLY"> F  </i>
   <i type="logical" name="EVENONLY"> F  </i>
   <i type="int" name="LMAXFOCK">     0</i>
   <i type="int" name="NMAXFOCKAE">     0</i>
   <i type="logical" name="LFOCKAEDFT"> F  </i>
   <i name="HFSCREEN">      0.00000000</i>
   <i name="HFSCREENC">      0.00000000</i>
   <i type="int" name="NBANDSGWLOW">     0</i>
  </separator>
  <separator name="vdW DFT" >
   <i type="logical" name="LUSE_VDW"> F  </i>
   <i type="int" name="IVDW_NL">    -1</i>
   <i type="logical" name="LSPIN_VDW"> F  </i>
   <i name="ZAB_VDW">     -0.84910000</i>
   <i name="GAMMA_VDW">      1.39626340</i>
   <i name="ALPHA_VDW">      0.00000000</i>
   <i name="PARAM1">      0.12340000</i>
   <i name="PARAM2">      1.00000000</i>
   <i name="BPARAM">      6.30000000</i>
   <i name="CPARAM">      0.00930000</i>
  </separator>
  <separator name="model GW" >
   <i type="int" name="MODEL_GW">     0</i>
   <i name="MODEL_EPS0">     13.70854366</i>
   <i name="MODEL_ALPHA">      1.00000000</i>
  </separator>
  <separator name="linear response parameters" >
   <i type="logical" name="LEPSILON"> F  </i>
   <i type="logical" name="LRPA"> F  </i>
   <i type="logical" name="LNABLA"> F  </i>
   <i type="logical" name="LVEL"> F  </i>
   <i name="CSHIFT">      0.10000000</i>
   <i name="OMEGAMAX">     -1.00000000</i>
   <i name="DEG_THRESHOLD">      0.00200000</i>
   <i name="RTIME">     -0.10000000</i>
   <i name="WPLASMAI">      0.00000000</i>
   <v name="DFIELD">      0.00000000      0.00000000      0.00000000</v>
   <v name="WPLASMA">      0.00000000      0.00000000      0.00000000      0.00000000      0.00000000      0.00000000      0.00000000      0.00000000      0.00000000</v>
  </separator>
  <separator name="orbital magnetization" >
   <i type="logical" name="NUCIND"> F  </i>
   <v name="MAGPOS">      0.00000000      0.00000000      0.00000000</v>
   <i type="logical" name="LNICSALL"> T  </i>
   <i type="logical" name="ORBITALMAG"> F  </i>
   <i type="logical" name="LMAGBLOCH"> F  </i>
   <i type="logical" name="LCHIMAG"> F  </i>
   <i type="logical" name="LGAUGE"> T  </i>
   <i type="int" name="MAGATOM">     0</i>
   <v name="MAGDIPOL">      0.00000000      0.00000000      0.00000000</v>
   <v name="AVECCONST">      0.00000000      0.00000000      0.00000000</v>
  </separator>
  <separator name="response functions" >
   <i type="logical" name="LALL_IN_ONE"> F  </i>
   <i type="int" name="IALL_IN_ONE">    -1</i>
   <i type="int" name="NBANDS_WAVE">    -1</i>
   <i type="logical" name="LFINITE_TEMPERATURE"> F  </i>
   <i type="logical" name="LADDER"> F  </i>
   <i type="logical" name="LRPAFORCE"> F  </i>
   <i type="logical" name="LFXC"> F  </i>
   <i type="logical" name="LHARTREE"> T  </i>
   <i type="int" name="IBSE">     0</i>
   <v type="int" name="KPOINT">    -1     0     0     0</v>
   <i type="logical" name="LTCTC"> F  </i>
   <i type="logical" name="LTCTE"> F  </i>
   <i type="logical" name="LTETE"> F  </i>
   <i type="logical" name="LTRIPLET"> F  </i>
   <i type="logical" name="LFXCEPS"> F  </i>
   <i type="logical" name="LFXHEG"> F  </i>
   <i type="int" name="NATURALO">     2</i>
   <i type="logical" name="LHOLEGF"> F  </i>
   <i type="logical" name="L2ORDER"> F  </i>
   <i type="logical" name="LDMP1"> F  </i>
   <i type="logical" name="LMP2LT"> F  </i>
   <i type="logical" name="LSMP2LT"> F  </i>
   <i type="logical" name="LGWLF"> F  </i>
   <i name="ENCUTGW">     -1.60000002</i>
   <i name="ENCUTGWSOFT">     -1.60000002</i>
   <i name="ENCUTLF">     -1.00000000</i>
   <i type="logical" name="ESF_SPLINES"> F  </i>
   <i name="ESF_CONV">      0.01000000</i>
   <i type="int" name="ESF_NINTER">    15</i>
   <i type="int" name="LMAXMP2">    -1</i>
   <i name="SCISSOR">      0.00000000</i>
   <i type="int" name="NOMEGA">     0</i>
   <i type="int" name="NOMEGAR">     0</i>
   <i type="int" name="NBANDSGW">    -1</i>
   <i type="int" name="NBANDSO">    -1</i>
   <i type="int" name="NBANDSV">    -1</i>
   <i type="int" name="NELMGW">     1</i>
   <i type="int" name="NELMHF">     1</i>
   <i type="int" name="DIM">     3</i>
   <i type="int" name="IESPILON">     4</i>
   <i type="int" name="ANTIRES">     0</i>
   <i name="OMEGAMAX">    -30.00000000</i>
   <i name="OMEGAMIN">    -30.00000000</i>
   <i name="OMEGATL">   -200.00000000</i>
   <i type="int" name="OMEGAGRID">     0</i>
   <i name="CSHIFT">     -0.10000000</i>
   <i type="logical" name="LSELFENERGY"> F  </i>
   <i type="logical" name="LSPECTRAL"> F  </i>
   <i type="logical" name="LSPECTRALGW"> F  </i>
   <i type="logical" name="LSINGLES"> F  </i>
   <i type="logical" name="LFERMIGW"> F  </i>
   <i type="logical" name="ODDONLYGW"> F  </i>
   <i type="logical" name="EVENONLYGW"> F  </i>
   <i type="int" name="NKREDLFX">     1</i>
   <i type="int" name="NKREDLFY">     1</i>
   <i type="int" name="NKREDLFZ">     1</i>
   <i type="int" name="MAXMEM">  2800</i>
   <i type="int" name="TELESCOPE">     0</i>
   <i type="int" name="NTAUPAR">    -1</i>
   <i type="int" name="NOMEGAPAR">    -1</i>
   <i name="DAMP_NEWTON">      0.80000001</i>
   <i name="LAMBDA">      1.00000000</i>
  </separator>
  <separator name="External order field" >
   <i name="OFIELD_KAPPA">      0.00000000</i>
   <v name="OFIELD_K">      0.00000000      0.00000000      0.00000000</v>
   <i name="OFIELD_Q6_NEAR">      0.00000000</i>
   <i name="OFIELD_Q6_FAR">      0.00000000</i>
   <i name="OFIELD_A">      0.00000000</i>
  </separator>
  <separator name="optional k-points parameters" >
   <i type="int" name="KPOINTS_OPT_MODE">     1</i>
   <i type="logical" name="LKPOINTS_OPT"> F  </i>
  </separator>
 </parameters>
 <atominfo>
  <atoms>     228 </atoms>
  <types>       2 </types>
  <array name="atoms" >
   <dimension dim="1">ion</dimension>
   <field type="string">element</field>
   <field type="int">atomtype</field>
   <set>
    <rc><c>Si</c><c>   1</c></rc>
    <rc><c>Si</c><c>   1</c></rc>
    <rc><c>Si</c><c>   1</c></rc>
    <rc><c>Si</c><c>   1</c></rc>
    <rc><c>Si</c><c>   1</c></rc>
    <rc><c>Si</c><c>   1</c></rc>
    <rc><c>Si</c><c>   1</c></rc>
    <rc><c>Si</c><c>   1</c></rc>
    <rc><c>Si</c><c>   1</c></rc>
    <rc><c>Si</c><c>   1</c></rc>
    <rc><c>Si</c><c>   1</c></rc>
    <rc><c>Si</c><c>   1</c></rc>
    <rc><c>Si</c><c>   1</c></rc>
    <rc><c>Si</c><c>   1</c></rc>
    <rc><c>Si</c><c>   1</c></rc>
    <rc><c>Si</c><c>   1</c></rc>
    <rc><c>Si</c><c>   1</c></rc>
    <rc><c>Si</c><c>   1</c></rc>
    <rc><c>Si</c><c>   1</c></rc>
    <rc><c>Si</c><c>   1</c></rc>
    <rc><c>Si</c><c>   1</c></rc>
    <rc><c>Si</c><c>   1</c></rc>
    <rc><c>Si</c><c>   1</c></rc>
    <rc><c>Si</c><c>   1</c></rc>
    <rc><c>Si</c><c>   1</c></rc>
    <rc><c>Si</c><c>   1</c></rc>
    <rc><c>Si</c><c>   1</c></rc>
    <rc><c>Si</c><c>   1</c></rc>
    <rc><c>Si</c><c>   1</c></rc>
    <rc><c>Si</c><c>   1</c></rc>
    <rc><c>Si</c><c>   1</c></rc>
    <rc><c>Si</c><c>   1</c></rc>
    <rc><c>Si</c><c>   1</c></rc>
    <rc><c>Si</c><c>   1</c></rc>
    <rc><c>Si</c><c>   1</c></rc>
    <rc><c>Si</c><c>   1</c></rc>
    <rc><c>Si</c><c>   1</c></rc>
    <rc><c>Si</c><c>   1</c></rc>
    <rc><c>Si</c><c>   1</c></rc>
    <rc><c>Si</c><c>   1</c></rc>
    <rc><c>Si</c><c>   1</c></rc>
    <rc><c>Si</c><c>   1</c></rc>
    <rc><c>Si</c><c>   1</c></rc>
    <rc><c>Si</c><c>   1</c></rc>
    <rc><c>Si</c><c>   1</c></rc>
    <rc><c>Si</c><c>   1</c></rc>
    <rc><c>Si</c><c>   1</c></rc>
    <rc><c>Si</c><c>   1</c></rc>
    <rc><c>Si</c><c>   1</c></rc>
    <rc><c>Si</c><c>   1</c></rc>
    <rc><c>Si</c><c>   1</c></rc>
    <rc><c>Si</c><c>   1</c></rc>
    <rc><c>Si</c><c>   1</c></rc>
    <rc><c>Si</c><c>   1</c></rc>
    <rc><c>Si</c><c>   1</c></rc>
    <rc><c>Si</c><c>   1</c></rc>
    <rc><c>Si</c><c>   1</c></rc>
    <rc><c>Si</c><c>   1</c></rc>
    <rc><c>Si</c><c>   1</c></rc>
    <rc><c>Si</c><c>   1</c></rc>
    <rc><c>Si</c><c>   1</c></rc>
    <rc><c>Si</c><c>   1</c></rc>
    <rc><c>Si</c><c>   1</c></rc>
    <rc><c>Si</c><c>   1</c></rc>
    <rc><c>Si</c><c>   1</c></rc>
    <rc><c>Si</c><c>   1</c></rc>
    <rc><c>Si</c><c>   1</c></rc>
    <rc><c>Si</c><c>   1</c></rc>
    <rc><c>Si</c><c>   1</c></rc>
    <rc><c>Si</c><c>   1</c></rc>
    <rc><c>Si</c><c>   1</c></rc>
    <rc><c>Si</c><c>   1</c></rc>
    <rc><c>Si</c><c>   1</c></rc>
    <rc><c>Si</c><c>   1</c></rc>
    <rc><c>Si</c><c>   1</c></rc>
    <rc><c>Si</c><c>   1</c></rc>
    <rc><c>Si</c><c>   1</c></rc>
    <rc><c>Si</c><c>   1</c></rc>
    <rc><c>Si</c><c>   1</c></rc>
    <rc><c>Si</c><c>   1</c></rc>
    <rc><c>Si</c><c>   1</c></rc>
    <rc><c>Si</c><c>   1</c></rc>
    <rc><c>Si</c><c>   1</c></rc>
    <rc><c>Si</c><c>   1</c></rc>
    <rc><c>Si</c><c>   1</c></rc>
    <rc><c>Si</c><c>   1</c></rc>
    <rc><c>Si</c><c>   1</c></rc>
    <rc><c>Si</c><c>   1</c></rc>
    <rc><c>Si</c><c>   1</c></rc>
    <rc><c>Si</c><c>   1</c></rc>
    <rc><c>Si</c><c>   1</c></rc>
    <rc><c>Si</c><c>   1</c></rc>
    <rc><c>Si</c><c>   1</c></rc>
    <rc><c>Si</c><c>   1</c></rc>
    <rc><c>Si</c><c>   1</c></rc>
    <rc><c>Si</c><c>   1</c></rc>
    <rc><c>Si</c><c>   1</c></rc>
    <rc><c>Si</c><c>   1</c></rc>
    <rc><c>Si</c><c>   1</c></rc>
    <rc><c>Si</c><c>   1</c></rc>
    <rc><c>Si</c><c>   1</c></rc>
    <rc><c>Si</c><c>   1</c></rc>
    <rc><c>Si</c><c>   1</c></rc>
    <rc><c>Si</c><c>   1</c></rc>
    <rc><c>Si</c><c>   1</c></rc>
    <rc><c>Si</c><c>   1</c></rc>
    <rc><c>Si</c><c>   1</c></rc>
    <rc><c>Si</c><c>   1</c></rc>
    <rc><c>Si</c><c>   1</c></rc>
    <rc><c>Si</c><c>   1</c></rc>
    <rc><c>Si</c><c>   1</c></rc>
    <rc><c>Si</c><c>   1</c></rc>
    <rc><c>Si</c><c>   1</c></rc>
    <rc><c>Si</c><c>   1</c></rc>
    <rc><c>Si</c><c>   1</c></rc>
    <rc><c>Si</c><c>   1</c></rc>
    <rc><c>Si</c><c>   1</c></rc>
    <rc><c>Si</c><c>   1</c></rc>
    <rc><c>Si</c><c>   1</c></rc>
    <rc><c>Si</c><c>   1</c></rc>
    <rc><c>Ge</c><c>   2</c></rc>
    <rc><c>Ge</c><c>   2</c></rc>
    <rc><c>Ge</c><c>   2</c></rc>
    <rc><c>Ge</c><c>   2</c></rc>
    <rc><c>Ge</c><c>   2</c></rc>
    <rc><c>Ge</c><c>   2</c></rc>
    <rc><c>Ge</c><c>   2</c></rc>
    <rc><c>Ge</c><c>   2</c></rc>
    <rc><c>Ge</c><c>   2</c></rc>
    <rc><c>Ge</c><c>   2</c></rc>
    <rc><c>Ge</c><c>   2</c></rc>
    <rc><c>Ge</c><c>   2</c></rc>
    <rc><c>Ge</c><c>   2</c></rc>
    <rc><c>Ge</c><c>   2</c></rc>
    <rc><c>Ge</c><c>   2</c></rc>
    <rc><c>Ge</c><c>   2</c></rc>
    <rc><c>Ge</c><c>   2</c></rc>
    <rc><c>Ge</c><c>   2</c></rc>
    <rc><c>Ge</c><c>   2</c></rc>
    <rc><c>Ge</c><c>   2</c></rc>
    <rc><c>Ge</c><c>   2</c></rc>
    <rc><c>Ge</c><c>   2</c></rc>
    <rc><c>Ge</c><c>   2</c></rc>
    <rc><c>Ge</c><c>   2</c></rc>
    <rc><c>Ge</c><c>   2</c></rc>
    <rc><c>Ge</c><c>   2</c></rc>
    <rc><c>Ge</c><c>   2</c></rc>
    <rc><c>Ge</c><c>   2</c></rc>
    <rc><c>Ge</c><c>   2</c></rc>
    <rc><c>Ge</c><c>   2</c></rc>
    <rc><c>Ge</c><c>   2</c></rc>
    <rc><c>Ge</c><c>   2</c></rc>
    <rc><c>Ge</c><c>   2</c></rc>
    <rc><c>Ge</c><c>   2</c></rc>
    <rc><c>Ge</c><c>   2</c></rc>
    <rc><c>Ge</c><c>   2</c></rc>
    <rc><c>Ge</c><c>   2</c></rc>
    <rc><c>Ge</c><c>   2</c></rc>
    <rc><c>Ge</c><c>   2</c></rc>
    <rc><c>Ge</c><c>   2</c></rc>
    <rc><c>Ge</c><c>   2</c></rc>
    <rc><c>Ge</c><c>   2</c></rc>
    <rc><c>Ge</c><c>   2</c></rc>
    <rc><c>Ge</c><c>   2</c></rc>
    <rc><c>Ge</c><c>   2</c></rc>
    <rc><c>Ge</c><c>   2</c></rc>
    <rc><c>Ge</c><c>   2</c></rc>
    <rc><c>Ge</c><c>   2</c></rc>
    <rc><c>Ge</c><c>   2</c></rc>
    <rc><c>Ge</c><c>   2</c></rc>
    <rc><c>Ge</c><c>   2</c></rc>
    <rc><c>Ge</c><c>   2</c></rc>
    <rc><c>Ge</c><c>   2</c></rc>
    <rc><c>Ge</c><c>   2</c></rc>
    <rc><c>Ge</c><c>   2</c></rc>
    <rc><c>Ge</c><c>   2</c></rc>
    <rc><c>Ge</c><c>   2</c></rc>
    <rc><c>Ge</c><c>   2</c></rc>
    <rc><c>Ge</c><c>   2</c></rc>
    <rc><c>Ge</c><c>   2</c></rc>
    <rc><c>Ge</c><c>   2</c></rc>
    <rc><c>Ge</c><c>   2</c></rc>
    <rc><c>Ge</c><c>   2</c></rc>
    <rc><c>Ge</c><c>   2</c></rc>
    <rc><c>Ge</c><c>   2</c></rc>
    <rc><c>Ge</c><c>   2</c></rc>
    <rc><c>Ge</c><c>   2</c></rc>
    <rc><c>Ge</c><c>   2</c></rc>
    <rc><c>Ge</c><c>   2</c></rc>
    <rc><c>Ge</c><c>   2</c></rc>
    <rc><c>Ge</c><c>   2</c></rc>
    <rc><c>Ge</c><c>   2</c></rc>
    <rc><c>Ge</c><c>   2</c></rc>
    <rc><c>Ge</c><c>   2</c></rc>
    <rc><c>Ge</c><c>   2</c></rc>
    <rc><c>Ge</c><c>   2</c></rc>
    <rc><c>Ge</c><c>   2</c></rc>
    <rc><c>Ge</c><c>   2</c></rc>
    <rc><c>Ge</c><c>   2</c></rc>
    <rc><c>Ge</c><c>   2</c></rc>
    <rc><c>Ge</c><c>   2</c></rc>
    <rc><c>Ge</c><c>   2</c></rc>
    <rc><c>Ge</c><c>   2</c></rc>
    <rc><c>Ge</c><c>   2</c></rc>
    <rc><c>Ge</c><c>   2</c></rc>
    <rc><c>Ge</c><c>   2</c></rc>
    <rc><c>Ge</c><c>   2</c></rc>
    <rc><c>Ge</c><c>   2</c></rc>
    <rc><c>Ge</c><c>   2</c></rc>
    <rc><c>Ge</c><c>   2</c></rc>
    <rc><c>Ge</c><c>   2</c></rc>
    <rc><c>Ge</c><c>   2</c></rc>
    <rc><c>Ge</c><c>   2</c></rc>
    <rc><c>Ge</c><c>   2</c></rc>
    <rc><c>Ge</c><c>   2</c></rc>
    <rc><c>Ge</c><c>   2</c></rc>
    <rc><c>Ge</c><c>   2</c></rc>
    <rc><c>Ge</c><c>   2</c></rc>
    <rc><c>Ge</c><c>   2</c></rc>
    <rc><c>Ge</c><c>   2</c></rc>
    <rc><c>Ge</c><c>   2</c></rc>
    <rc><c>Ge</c><c>   2</c></rc>
    <rc><c>Ge</c><c>   2</c></rc>
    <rc><c>Ge</c><c>   2</c></rc>
    <rc><c>Ge</c><c>   2</c></rc>
    <rc><c>Ge</c><c>   2</c></rc>
    <rc><c>Ge</c><c>   2</c></rc>
    <rc><c>Ge</c><c>   2</c></rc>
   </set>
  </array>
  <array name="atomtypes" >
   <dimension dim="1">type</dimension>
   <field type="int">atomspertype</field>
   <field type="string">element</field>
   <field>mass</field>
   <field>valence</field>
   <field type="string">pseudopotential</field>
   <set>
    <rc><c> 120</c><c>Si</c><c>     28.08500000</c><c>      4.00000000</c><c>  PAW_PBE Si 05Jan2001                  </c></rc>
    <rc><c> 108</c><c>Ge</c><c>     72.61000000</c><c>      4.00000000</c><c>  PAW_PBE Ge 05Jan2001                  </c></rc>
   </set>
  </array>
 </atominfo>
 <structure name="initialpos" >
  <crystal>
   <varray name="basis" >
    <v>      17.17433167       0.00000000       0.00000000 </v>
    <v>       0.00000000      17.17432976       0.00000000 </v>
    <v>       0.00000000       0.00000000      17.66099930 </v>
   </varray>
   <i name="volume">   5209.24659153 </i>
   <varray name="rec_basis" >
    <v>       0.05822643       0.00000000       0.00000000 </v>
    <v>       0.00000000       0.05822644       0.00000000 </v>
    <v>       0.00000000       0.00000000       0.05662194 </v>
   </varray>
  </crystal>
  <varray name="positions" >
   <v>       0.99640435       0.97483069       0.00000000 </v>
   <v>       0.94640434       0.62483060       0.15375686 </v>
   <v>       0.89640427       0.27483046       0.30751380 </v>
   <v>       0.09640440       0.67483074       0.00000000 </v>
   <v>       0.04640434       0.32483065       0.15375686 </v>
   <v>       0.99640423       0.97483051       0.30751380 </v>
   <v>       0.19640441       0.37483066       0.00000000 </v>
   <v>       0.14640434       0.02483060       0.15375686 </v>
   <v>       0.09640426       0.67483044       0.30751380 </v>
   <v>       0.29640439       0.07483066       0.00000000 </v>
   <v>       0.24640430       0.72483063       0.15375686 </v>
   <v>       0.19640423       0.37483042       0.30751380 </v>
   <v>       0.39640445       0.77483070       0.00000000 </v>
   <v>       0.34640437       0.42483059       0.15375686 </v>
   <v>       0.29640430       0.07483046       0.30751380 </v>
   <v>       0.49640438       0.47483069       0.00000000 </v>
   <v>       0.44640431       0.12483060       0.15375686 </v>
   <v>       0.39640424       0.77483046       0.30751380 </v>
   <v>       0.59640437       0.17483065       0.00000000 </v>
   <v>       0.54640430       0.82483059       0.15375686 </v>
   <v>       0.49640426       0.47483045       0.30751380 </v>
   <v>       0.69640452       0.87483078       0.00000000 </v>
   <v>       0.64640445       0.52483064       0.15375686 </v>
   <v>       0.59640437       0.17483054       0.30751380 </v>
   <v>       0.79640442       0.57483071       0.00000000 </v>
   <v>       0.74640435       0.22483061       0.15375686 </v>
   <v>       0.69640428       0.87483048       0.30751380 </v>
   <v>       0.89640450       0.27483070       0.00000000 </v>
   <v>       0.84640443       0.92483062       0.15375686 </v>
   <v>       0.79640436       0.57483047       0.30751380 </v>
   <v>       0.99640441       0.22483067       0.07687847 </v>
   <v>       0.94640428       0.87483054       0.23063532 </v>
   <v>       0.89640427       0.52483046       0.38439217 </v>
   <v>       0.09640437       0.92483062       0.07687847 </v>
   <v>       0.04640429       0.57483053       0.23063532 </v>
   <v>       0.99640423       0.22483039       0.38439217 </v>
   <v>       0.19640441       0.62483066       0.07687847 </v>
   <v>       0.14640434       0.27483055       0.23063532 </v>
   <v>       0.09640426       0.92483050       0.38439217 </v>
   <v>       0.29640442       0.32483062       0.07687847 </v>
   <v>       0.24640434       0.97483051       0.23063532 </v>
   <v>       0.19640426       0.62483048       0.38439217 </v>
   <v>       0.39640441       0.02483064       0.07687847 </v>
   <v>       0.34640431       0.67483056       0.23063532 </v>
   <v>       0.29640424       0.32483047       0.38439217 </v>
   <v>       0.49640450       0.72483069       0.07687847 </v>
   <v>       0.44640443       0.37483057       0.23063532 </v>
   <v>       0.39640436       0.02483052       0.38439217 </v>
   <v>       0.59640437       0.42483059       0.07687847 </v>
   <v>       0.54640430       0.07483050       0.23063532 </v>
   <v>       0.49640426       0.72483045       0.38439217 </v>
   <v>       0.69640452       0.12483066       0.07687847 </v>
   <v>       0.64640439       0.77483058       0.23063532 </v>
   <v>       0.59640437       0.42483050       0.38439217 </v>
   <v>       0.79640448       0.82483071       0.07687847 </v>
   <v>       0.74640441       0.47483057       0.23063532 </v>
   <v>       0.69640434       0.12483048       0.38439217 </v>
   <v>       0.89640445       0.52483064       0.07687847 </v>
   <v>       0.84640437       0.17483054       0.23063532 </v>
   <v>       0.79640430       0.82483047       0.38439217 </v>
   <v>       0.99640441       0.47483069       0.00000000 </v>
   <v>       0.94640434       0.12483060       0.15375686 </v>
   <v>       0.89640427       0.77483046       0.30751380 </v>
   <v>       0.09640438       0.17483066       0.00000000 </v>
   <v>       0.04640431       0.82483059       0.15375686 </v>
   <v>       0.99640423       0.47483045       0.30751380 </v>
   <v>       0.19640441       0.87483066       0.00000000 </v>
   <v>       0.14640433       0.52483058       0.15375686 </v>
   <v>       0.09640426       0.17483044       0.30751380 </v>
   <v>       0.29640442       0.57483065       0.00000000 </v>
   <v>       0.24640432       0.22483060       0.15375686 </v>
   <v>       0.19640425       0.87483048       0.30751380 </v>
   <v>       0.39640445       0.27483067       0.00000000 </v>
   <v>       0.34640437       0.92483062       0.15375686 </v>
   <v>       0.29640430       0.57483047       0.30751380 </v>
   <v>       0.49640441       0.97483063       0.00000000 </v>
   <v>       0.44640434       0.62483054       0.15375686 </v>
   <v>       0.39640424       0.27483040       0.30751380 </v>
   <v>       0.59640437       0.67483068       0.00000000 </v>
   <v>       0.54640430       0.32483059       0.15375686 </v>
   <v>       0.49640423       0.97483045       0.30751380 </v>
   <v>       0.69640440       0.37483063       0.00000000 </v>
   <v>       0.64640433       0.02483056       0.15375686 </v>
   <v>       0.59640425       0.67483044       0.30751380 </v>
   <v>       0.79640442       0.07483064       0.00000000 </v>
   <v>       0.74640435       0.72483051       0.15375686 </v>
   <v>       0.69640428       0.37483042       0.30751380 </v>
   <v>       0.89640450       0.77483070       0.00000000 </v>
   <v>       0.84640443       0.42483062       0.15375686 </v>
   <v>       0.79640436       0.07483048       0.30751380 </v>
   <v>       0.99640435       0.72483075       0.07687847 </v>
   <v>       0.94640428       0.37483060       0.23063532 </v>
   <v>       0.89640427       0.02483054       0.38439217 </v>
   <v>       0.09640439       0.42483068       0.07687847 </v>
   <v>       0.04640431       0.07483057       0.23063532 </v>
   <v>       0.99640423       0.72483051       0.38439217 </v>
   <v>       0.19640441       0.12483066       0.07687847 </v>
   <v>       0.14640434       0.77483058       0.23063532 </v>
   <v>       0.09640427       0.42483050       0.38439217 </v>
   <v>       0.29640439       0.82483071       0.07687847 </v>
   <v>       0.24640432       0.47483057       0.23063532 </v>
   <v>       0.19640425       0.12483048       0.38439217 </v>
   <v>       0.39640441       0.52483076       0.07687847 </v>
   <v>       0.34640434       0.17483065       0.23063532 </v>
   <v>       0.29640427       0.82483059       0.38439217 </v>
   <v>       0.49640441       0.22483064       0.07687847 </v>
   <v>       0.44640434       0.87483054       0.23063532 </v>
   <v>       0.39640424       0.52483046       0.38439217 </v>
   <v>       0.59640443       0.92483068       0.07687847 </v>
   <v>       0.54640436       0.57483059       0.23063532 </v>
   <v>       0.49640429       0.22483051       0.38439217 </v>
   <v>       0.69640446       0.62483072       0.07687847 </v>
   <v>       0.64640439       0.27483058       0.23063532 </v>
   <v>       0.59640431       0.92483056       0.38439217 </v>
   <v>       0.79640436       0.32483062       0.07687847 </v>
   <v>       0.74640429       0.97483051       0.23063532 </v>
   <v>       0.69640422       0.62483048       0.38439217 </v>
   <v>       0.89640439       0.02483063       0.07687847 </v>
   <v>       0.84640431       0.67483056       0.23063532 </v>
   <v>       0.79640424       0.32483041       0.38439217 </v>
   <v>       0.08787274       0.76023382       0.49197382 </v>
   <v>       0.92120612       0.76023382       0.65215164 </v>
   <v>       0.75453937       0.76023382       0.81232941 </v>
   <v>       0.08787274       0.42690054       0.49197382 </v>
   <v>       0.92120612       0.42690054       0.65215164 </v>
   <v>       0.75453937       0.42690054       0.81232941 </v>
   <v>       0.08787274       0.09356725       0.49197382 </v>
   <v>       0.92120612       0.09356725       0.65215164 </v>
   <v>       0.75453937       0.09356725       0.81232941 </v>
   <v>       0.42120606       0.76023382       0.49197382 </v>
   <v>       0.25453940       0.76023382       0.65215164 </v>
   <v>       0.08787274       0.76023382       0.81232941 </v>
   <v>       0.42120606       0.42690054       0.49197382 </v>
   <v>       0.25453940       0.42690054       0.65215164 </v>
   <v>       0.08787274       0.42690054       0.81232941 </v>
   <v>       0.42120606       0.09356725       0.49197382 </v>
   <v>       0.25453940       0.09356725       0.65215164 </v>
   <v>       0.08787274       0.09356725       0.81232941 </v>
   <v>       0.75453937       0.76023382       0.49197382 </v>
   <v>       0.58787268       0.76023382       0.65215164 </v>
   <v>       0.42120600       0.76023382       0.81232941 </v>
   <v>       0.75453937       0.42690054       0.49197382 </v>
   <v>       0.58787268       0.42690054       0.65215164 </v>
   <v>       0.42120600       0.42690054       0.81232941 </v>
   <v>       0.75453937       0.09356725       0.49197382 </v>
   <v>       0.58787268       0.09356725       0.65215164 </v>
   <v>       0.42120600       0.09356725       0.81232941 </v>
   <v>       0.17120609       0.01023388       0.57206267 </v>
   <v>       0.00453937       0.01023388       0.73224050 </v>
   <v>       0.83787274       0.01023388       0.89241833 </v>
   <v>       0.17120609       0.67690057       0.57206267 </v>
   <v>       0.00453937       0.67690057       0.73224050 </v>
   <v>       0.83787274       0.67690057       0.89241833 </v>
   <v>       0.17120609       0.34356719       0.57206267 </v>
   <v>       0.00453937       0.34356719       0.73224050 </v>
   <v>       0.83787274       0.34356719       0.89241833 </v>
   <v>       0.50453937       0.01023388       0.57206267 </v>
   <v>       0.33787268       0.01023388       0.73224050 </v>
   <v>       0.17120597       0.01023388       0.89241833 </v>
   <v>       0.50453937       0.67690057       0.57206267 </v>
   <v>       0.33787268       0.67690057       0.73224050 </v>
   <v>       0.17120597       0.67690057       0.89241833 </v>
   <v>       0.50453937       0.34356719       0.57206267 </v>
   <v>       0.33787268       0.34356719       0.73224050 </v>
   <v>       0.17120597       0.34356719       0.89241833 </v>
   <v>       0.83787274       0.01023388       0.57206267 </v>
   <v>       0.67120600       0.01023388       0.73224050 </v>
   <v>       0.50453931       0.01023388       0.89241833 </v>
   <v>       0.83787274       0.67690057       0.57206267 </v>
   <v>       0.67120600       0.67690057       0.73224050 </v>
   <v>       0.50453931       0.67690057       0.89241833 </v>
   <v>       0.83787274       0.34356719       0.57206267 </v>
   <v>       0.67120600       0.34356719       0.73224050 </v>
   <v>       0.50453931       0.34356719       0.89241833 </v>
   <v>       0.25453943       0.92690045       0.49197382 </v>
   <v>       0.08787274       0.92690045       0.65215164 </v>
   <v>       0.92120606       0.92690045       0.81232941 </v>
   <v>       0.25453943       0.59356713       0.49197382 </v>
   <v>       0.08787274       0.59356713       0.65215164 </v>
   <v>       0.92120606       0.59356713       0.81232941 </v>
   <v>       0.25453943       0.26023388       0.49197382 </v>
   <v>       0.08787274       0.26023388       0.65215164 </v>
   <v>       0.92120606       0.26023388       0.81232941 </v>
   <v>       0.58787268       0.92690045       0.49197382 </v>
   <v>       0.42120600       0.92690045       0.65215164 </v>
   <v>       0.25453931       0.92690045       0.81232941 </v>
   <v>       0.58787268       0.59356713       0.49197382 </v>
   <v>       0.42120600       0.59356713       0.65215164 </v>
   <v>       0.25453931       0.59356713       0.81232941 </v>
   <v>       0.58787268       0.26023388       0.49197382 </v>
   <v>       0.42120600       0.26023388       0.65215164 </v>
   <v>       0.25453931       0.26023388       0.81232941 </v>
   <v>       0.92120606       0.92690045       0.49197382 </v>
   <v>       0.75453937       0.92690045       0.65215164 </v>
   <v>       0.58787268       0.92690045       0.81232941 </v>
   <v>       0.92120606       0.59356713       0.49197382 </v>
   <v>       0.75453937       0.59356713       0.65215164 </v>
   <v>       0.58787268       0.59356713       0.81232941 </v>
   <v>       0.92120606       0.26023388       0.49197382 </v>
   <v>       0.75453937       0.26023388       0.65215164 </v>
   <v>       0.58787268       0.26023388       0.81232941 </v>
   <v>       0.33787271       0.84356713       0.57206267 </v>
   <v>       0.17120603       0.84356713       0.73224050 </v>
   <v>       0.00453937       0.84356713       0.89241833 </v>
   <v>       0.33787271       0.51023388       0.57206267 </v>
   <v>       0.17120603       0.51023388       0.73224050 </v>
   <v>       0.00453937       0.51023388       0.89241833 </v>
   <v>       0.33787271       0.17690058       0.57206267 </v>
   <v>       0.17120603       0.17690058       0.73224050 </v>
   <v>       0.00453937       0.17690058       0.89241833 </v>
   <v>       0.67120612       0.84356713       0.57206267 </v>
   <v>       0.50453937       0.84356713       0.73224050 </v>
   <v>       0.33787268       0.84356713       0.89241833 </v>
   <v>       0.67120612       0.51023388       0.57206267 </v>
   <v>       0.50453937       0.51023388       0.73224050 </v>
   <v>       0.33787268       0.51023388       0.89241833 </v>
   <v>       0.67120612       0.17690058       0.57206267 </v>
   <v>       0.50453937       0.17690058       0.73224050 </v>
   <v>       0.33787268       0.17690058       0.89241833 </v>
   <v>       0.00453949       0.84356713       0.57206267 </v>
   <v>       0.83787274       0.84356713       0.73224050 </v>
   <v>       0.67120600       0.84356713       0.89241833 </v>
   <v>       0.00453949       0.51023388       0.57206267 </v>
   <v>       0.83787274       0.51023388       0.73224050 </v>
   <v>       0.67120600       0.51023388       0.89241833 </v>
   <v>       0.00453949       0.17690058       0.57206267 </v>
   <v>       0.83787274       0.17690058       0.73224050 </v>
   <v>       0.67120600       0.17690058       0.89241833 </v>
  </varray>
 </structure>
 <calculation>
  <scstep>
   <time name="dav">  112.39  113.49</time>
   <time name="total">  114.76  115.88</time>
   <energy>
    <i name="alphaZ">   1080.28393531 </i>
    <i name="ewald"> -24063.62985827 </i>
    <i name="hartreedc">  -2220.27803080 </i>
    <i name="XCdc">  -1951.93860017 </i>
    <i name="pawpsdc">  20094.53666134 </i>
    <i name="pawaedc"> -16418.68521354 </i>
    <i name="eentropy">     -0.00301521 </i>
    <i name="bandstr">   3571.38526756 </i>
    <i name="atom">  23707.55310521 </i>
    <i name="e_fr_energy">   3799.22425143 </i>
    <i name="e_wo_entrp">   3799.22726664 </i>
    <i name="e_0_energy">   3799.22575904 </i>
   </energy>
  </scstep>
  <scstep>
   <time name="dav">  127.03  128.34</time>
   <time name="total">  127.03  128.34</time>
   <energy>
    <i name="e_fr_energy">   -638.74802816 </i>
    <i name="e_wo_entrp">   -638.74473273 </i>
    <i name="e_0_energy">   -638.74638045 </i>
   </energy>
  </scstep>
  <scstep>
   <time name="dav">  132.97  134.28</time>
   <time name="total">  132.97  134.29</time>
   <energy>
    <i name="e_fr_energy">  -1064.12091349 </i>
    <i name="e_wo_entrp">  -1064.11739481 </i>
    <i name="e_0_energy">  -1064.11915415 </i>
   </energy>
  </scstep>
  <scstep>
   <time name="dav">  128.00  129.18</time>
   <time name="total">  128.00  129.19</time>
   <energy>
    <i name="e_fr_energy">  -1080.52441448 </i>
    <i name="e_wo_entrp">  -1080.51954143 </i>
    <i name="e_0_energy">  -1080.52197796 </i>
   </energy>
  </scstep>
  <scstep>
   <time name="dav">  143.43  144.72</time>
   <time name="total">  148.09  149.43</time>
   <energy>
    <i name="e_fr_energy">  -1081.19317048 </i>
    <i name="e_wo_entrp">  -1081.18841326 </i>
    <i name="e_0_energy">  -1081.19079187 </i>
   </energy>
  </scstep>
  <scstep>
   <time name="dav">  131.22  132.42</time>
   <time name="total">  138.23  139.49</time>
   <energy>
    <i name="e_fr_energy">  -1063.09276188 </i>
    <i name="e_wo_entrp">  -1063.08890810 </i>
    <i name="e_0_energy">  -1063.09083499 </i>
   </energy>
  </scstep>
  <scstep>
   <time name="dav">  128.16  129.44</time>
   <time name="total">  135.16  136.51</time>
   <energy>
    <i name="e_fr_energy">  -1062.62608472 </i>
    <i name="e_wo_entrp">  -1062.62258668 </i>
    <i name="e_0_energy">  -1062.62433570 </i>
   </energy>
  </scstep>
  <scstep>
   <time name="dav">  126.15  127.44</time>
   <time name="total">  133.17  134.51</time>
   <energy>
    <i name="e_fr_energy">  -1062.08879232 </i>
    <i name="e_wo_entrp">  -1062.08606242 </i>
    <i name="e_0_energy">  -1062.08742737 </i>
   </energy>
  </scstep>
  <scstep>
   <time name="dav">  130.26  131.52</time>
   <time name="total">  137.26  138.58</time>
   <energy>
    <i name="e_fr_energy">  -1062.03984010 </i>
    <i name="e_wo_entrp">  -1062.03715532 </i>
    <i name="e_0_energy">  -1062.03849771 </i>
   </energy>
  </scstep>
  <scstep>
   <time name="dav">  126.11  127.37</time>
   <time name="total">  133.11  134.44</time>
   <energy>
    <i name="e_fr_energy">  -1062.02980267 </i>
    <i name="e_wo_entrp">  -1062.02704727 </i>
    <i name="e_0_energy">  -1062.02842497 </i>
   </energy>
  </scstep>
  <scstep>
   <time name="dav">  122.19  123.38</time>
   <time name="total">  129.16  130.40</time>
   <energy>
    <i name="e_fr_energy">  -1062.02868602 </i>
    <i name="e_wo_entrp">  -1062.02602289 </i>
    <i name="e_0_energy">  -1062.02735445 </i>
   </energy>
  </scstep>
  <scstep>
   <time name="dav">  124.36  125.49</time>
   <time name="total">  131.32  132.51</time>
   <energy>
    <i name="e_fr_energy">  -1062.03092068 </i>
    <i name="e_wo_entrp">  -1062.02819139 </i>
    <i name="e_0_energy">  -1062.02955603 </i>
   </energy>
  </scstep>
  <scstep>
   <time name="dav">  124.03  125.16</time>
   <time name="total">  130.99  132.18</time>
   <energy>
    <i name="e_fr_energy">  -1062.03101236 </i>
    <i name="e_wo_entrp">  -1062.02829099 </i>
    <i name="e_0_energy">  -1062.02965168 </i>
   </energy>
  </scstep>
  <scstep>
   <time name="dav">  123.69  124.91</time>
   <time name="total">  130.63  131.92</time>
   <energy>
    <i name="e_fr_energy">  -1062.03104089 </i>
    <i name="e_wo_entrp">  -1062.02831653 </i>
    <i name="e_0_energy">  -1062.02967871 </i>
   </energy>
  </scstep>
  <scstep>
   <time name="dav">  123.74  124.97</time>
   <time name="total">  130.69  131.98</time>
   <energy>
    <i name="e_fr_energy">  -1062.03105928 </i>
    <i name="e_wo_entrp">  -1062.02834083 </i>
    <i name="e_0_energy">  -1062.02970006 </i>
   </energy>
  </scstep>
  <scstep>
   <time name="dav">  125.34  126.53</time>
   <time name="total">  132.28  133.53</time>
   <energy>
    <i name="e_fr_energy">  -1062.03106472 </i>
    <i name="e_wo_entrp">  -1062.02834215 </i>
    <i name="e_0_energy">  -1062.02970344 </i>
   </energy>
  </scstep>
  <scstep>
   <time name="dav">  123.08  124.27</time>
   <time name="total">  130.01  131.26</time>
   <energy>
    <i name="e_fr_energy">  -1062.03106610 </i>
    <i name="e_wo_entrp">  -1062.02834407 </i>
    <i name="e_0_energy">  -1062.02970509 </i>
   </energy>
  </scstep>
  <scstep>
   <time name="dav">  126.25  127.44</time>
   <time name="total">  133.19  134.44</time>
   <energy>
    <i name="e_fr_energy">  -1062.03106693 </i>
    <i name="e_wo_entrp">  -1062.02834478 </i>
    <i name="e_0_energy">  -1062.02970586 </i>
   </energy>
  </scstep>
  <scstep>
   <time name="dav">   87.78   88.61</time>
   <time name="total">   94.71   95.60</time>
   <energy>
    <i name="e_fr_energy">  -1062.03106793 </i>
    <i name="e_wo_entrp">  -1062.02834568 </i>
    <i name="e_0_energy">  -1062.02970681 </i>
   </energy>
  </scstep>
  <scstep>
   <time name="dav">   77.61   78.31</time>
   <time name="total">   84.52   85.29</time>
   <energy>
    <i name="e_fr_energy">  -1062.03106882 </i>
    <i name="e_wo_entrp">  -1062.02834667 </i>
    <i name="e_0_energy">  -1062.02970775 </i>
   </energy>
  </scstep>
  <scstep>
   <time name="dav">   76.90   77.62</time>
   <time name="total">   83.80   84.58</time>
   <energy>
    <i name="e_fr_energy">  -1062.03106933 </i>
    <i name="e_wo_entrp">  -1062.02834707 </i>
    <i name="e_0_energy">  -1062.02970820 </i>
   </energy>
  </scstep>
  <scstep>
   <time name="dav">   76.34   77.11</time>
   <time name="total">   83.26   84.10</time>
   <energy>
    <i name="e_fr_energy">  -1062.03106953 </i>
    <i name="e_wo_entrp">  -1062.02834729 </i>
    <i name="e_0_energy">  -1062.02970841 </i>
   </energy>
  </scstep>
  <scstep>
   <time name="dav">   76.01   76.73</time>
   <time name="total">   78.34   79.08</time>
   <energy>
    <i name="alphaZ">   1080.28393531 </i>
    <i name="ewald"> -24063.62985827 </i>
    <i name="hartreedc">  -2579.54232737 </i>
    <i name="XCdc">  -1892.32526727 </i>
    <i name="pawpsdc">  68867.52553420 </i>
    <i name="pawaedc"> -65218.75316248 </i>
    <i name="eentropy">     -0.00272227 </i>
    <i name="bandstr">   -963.14030667 </i>
    <i name="atom">  23707.55310521 </i>
    <i name="e_fr_energy">  -1062.03106961 </i>
    <i name="e_wo_entrp">  -1062.02834734 </i>
    <i name="e_0_energy">  -1062.02970847 </i>
   </energy>
  </scstep>
  <structure>
   <crystal>
    <varray name="basis" >
     <v>      17.17433167       0.00000000       0.00000000 </v>
     <v>       0.00000000      17.17432976       0.00000000 </v>
     <v>       0.00000000       0.00000000      17.66099930 </v>
    </varray>
    <i name="volume">   5209.24659153 </i>
    <varray name="rec_basis" >
     <v>       0.05822643       0.00000000       0.00000000 </v>
     <v>       0.00000000       0.05822644       0.00000000 </v>
     <v>       0.00000000       0.00000000       0.05662194 </v>
    </varray>
   </crystal>
   <varray name="positions" >
    <v>       0.99640435       0.97483069       0.00000000 </v>
    <v>       0.94640434       0.62483060       0.15375686 </v>
    <v>       0.89640427       0.27483046       0.30751380 </v>
    <v>       0.09640440       0.67483074       0.00000000 </v>
    <v>       0.04640434       0.32483065       0.15375686 </v>
    <v>       0.99640423       0.97483051       0.30751380 </v>
    <v>       0.19640441       0.37483066       0.00000000 </v>
    <v>       0.14640434       0.02483060       0.15375686 </v>
    <v>       0.09640426       0.67483044       0.30751380 </v>
    <v>       0.29640439       0.07483066       0.00000000 </v>
    <v>       0.24640430       0.72483063       0.15375686 </v>
    <v>       0.19640423       0.37483042       0.30751380 </v>
    <v>       0.39640445       0.77483070       0.00000000 </v>
    <v>       0.34640437       0.42483059       0.15375686 </v>
    <v>       0.29640430       0.07483046       0.30751380 </v>
    <v>       0.49640438       0.47483069       0.00000000 </v>
    <v>       0.44640431       0.12483060       0.15375686 </v>
    <v>       0.39640424       0.77483046       0.30751380 </v>
    <v>       0.59640437       0.17483065       0.00000000 </v>
    <v>       0.54640430       0.82483059       0.15375686 </v>
    <v>       0.49640426       0.47483045       0.30751380 </v>
    <v>       0.69640452       0.87483078       0.00000000 </v>
    <v>       0.64640445       0.52483064       0.15375686 </v>
    <v>       0.59640437       0.17483054       0.30751380 </v>
    <v>       0.79640442       0.57483071       0.00000000 </v>
    <v>       0.74640435       0.22483061       0.15375686 </v>
    <v>       0.69640428       0.87483048       0.30751380 </v>
    <v>       0.89640450       0.27483070       0.00000000 </v>
    <v>       0.84640443       0.92483062       0.15375686 </v>
    <v>       0.79640436       0.57483047       0.30751380 </v>
    <v>       0.99640441       0.22483067       0.07687847 </v>
    <v>       0.94640428       0.87483054       0.23063532 </v>
    <v>       0.89640427       0.52483046       0.38439217 </v>
    <v>       0.09640437       0.92483062       0.07687847 </v>
    <v>       0.04640429       0.57483053       0.23063532 </v>
    <v>       0.99640423       0.22483039       0.38439217 </v>
    <v>       0.19640441       0.62483066       0.07687847 </v>
    <v>       0.14640434       0.27483055       0.23063532 </v>
    <v>       0.09640426       0.92483050       0.38439217 </v>
    <v>       0.29640442       0.32483062       0.07687847 </v>
    <v>       0.24640434       0.97483051       0.23063532 </v>
    <v>       0.19640426       0.62483048       0.38439217 </v>
    <v>       0.39640441       0.02483064       0.07687847 </v>
    <v>       0.34640431       0.67483056       0.23063532 </v>
    <v>       0.29640424       0.32483047       0.38439217 </v>
    <v>       0.49640450       0.72483069       0.07687847 </v>
    <v>       0.44640443       0.37483057       0.23063532 </v>
    <v>       0.39640436       0.02483052       0.38439217 </v>
    <v>       0.59640437       0.42483059       0.07687847 </v>
    <v>       0.54640430       0.07483050       0.23063532 </v>
    <v>       0.49640426       0.72483045       0.38439217 </v>
    <v>       0.69640452       0.12483066       0.07687847 </v>
    <v>       0.64640439       0.77483058       0.23063532 </v>
    <v>       0.59640437       0.42483050       0.38439217 </v>
    <v>       0.79640448       0.82483071       0.07687847 </v>
    <v>       0.74640441       0.47483057       0.23063532 </v>
    <v>       0.69640434       0.12483048       0.38439217 </v>
    <v>       0.89640445       0.52483064       0.07687847 </v>
    <v>       0.84640437       0.17483054       0.23063532 </v>
    <v>       0.79640430       0.82483047       0.38439217 </v>
    <v>       0.99640441       0.47483069       0.00000000 </v>
    <v>       0.94640434       0.12483060       0.15375686 </v>
    <v>       0.89640427       0.77483046       0.30751380 </v>
    <v>       0.09640438       0.17483066       0.00000000 </v>
    <v>       0.04640431       0.82483059       0.15375686 </v>
    <v>       0.99640423       0.47483045       0.30751380 </v>
    <v>       0.19640441       0.87483066       0.00000000 </v>
    <v>       0.14640433       0.52483058       0.15375686 </v>
    <v>       0.09640426       0.17483044       0.30751380 </v>
    <v>       0.29640442       0.57483065       0.00000000 </v>
    <v>       0.24640432       0.22483060       0.15375686 </v>
    <v>       0.19640425       0.87483048       0.30751380 </v>
    <v>       0.39640445       0.27483067       0.00000000 </v>
    <v>       0.34640437       0.92483062       0.15375686 </v>
    <v>       0.29640430       0.57483047       0.30751380 </v>
    <v>       0.49640441       0.97483063       0.00000000 </v>
    <v>       0.44640434       0.62483054       0.15375686 </v>
    <v>       0.39640424       0.27483040       0.30751380 </v>
    <v>       0.59640437       0.67483068       0.00000000 </v>
    <v>       0.54640430       0.32483059       0.15375686 </v>
    <v>       0.49640423       0.97483045       0.30751380 </v>
    <v>       0.69640440       0.37483063       0.00000000 </v>
    <v>       0.64640433       0.02483056       0.15375686 </v>
    <v>       0.59640425       0.67483044       0.30751380 </v>
    <v>       0.79640442       0.07483064       0.00000000 </v>
    <v>       0.74640435       0.72483051       0.15375686 </v>
    <v>       0.69640428       0.37483042       0.30751380 </v>
    <v>       0.89640450       0.77483070       0.00000000 </v>
    <v>       0.84640443       0.42483062       0.15375686 </v>
    <v>       0.79640436       0.07483048       0.30751380 </v>
    <v>       0.99640435       0.72483075       0.07687847 </v>
    <v>       0.94640428       0.37483060       0.23063532 </v>
    <v>       0.89640427       0.02483054       0.38439217 </v>
    <v>       0.09640439       0.42483068       0.07687847 </v>
    <v>       0.04640431       0.07483057       0.23063532 </v>
    <v>       0.99640423       0.72483051       0.38439217 </v>
    <v>       0.19640441       0.12483066       0.07687847 </v>
    <v>       0.14640434       0.77483058       0.23063532 </v>
    <v>       0.09640427       0.42483050       0.38439217 </v>
    <v>       0.29640439       0.82483071       0.07687847 </v>
    <v>       0.24640432       0.47483057       0.23063532 </v>
    <v>       0.19640425       0.12483048       0.38439217 </v>
    <v>       0.39640441       0.52483076       0.07687847 </v>
    <v>       0.34640434       0.17483065       0.23063532 </v>
    <v>       0.29640427       0.82483059       0.38439217 </v>
    <v>       0.49640441       0.22483064       0.07687847 </v>
    <v>       0.44640434       0.87483054       0.23063532 </v>
    <v>       0.39640424       0.52483046       0.38439217 </v>
    <v>       0.59640443       0.92483068       0.07687847 </v>
    <v>       0.54640436       0.57483059       0.23063532 </v>
    <v>       0.49640429       0.22483051       0.38439217 </v>
    <v>       0.69640446       0.62483072       0.07687847 </v>
    <v>       0.64640439       0.27483058       0.23063532 </v>
    <v>       0.59640431       0.92483056       0.38439217 </v>
    <v>       0.79640436       0.32483062       0.07687847 </v>
    <v>       0.74640429       0.97483051       0.23063532 </v>
    <v>       0.69640422       0.62483048       0.38439217 </v>
    <v>       0.89640439       0.02483063       0.07687847 </v>
    <v>       0.84640431       0.67483056       0.23063532 </v>
    <v>       0.79640424       0.32483041       0.38439217 </v>
    <v>       0.08787274       0.76023382       0.49197382 </v>
    <v>       0.92120612       0.76023382       0.65215164 </v>
    <v>       0.75453937       0.76023382       0.81232941 </v>
    <v>       0.08787274       0.42690054       0.49197382 </v>
    <v>       0.92120612       0.42690054       0.65215164 </v>
    <v>       0.75453937       0.42690054       0.81232941 </v>
    <v>       0.08787274       0.09356725       0.49197382 </v>
    <v>       0.92120612       0.09356725       0.65215164 </v>
    <v>       0.75453937       0.09356725       0.81232941 </v>
    <v>       0.42120606       0.76023382       0.49197382 </v>
    <v>       0.25453940       0.76023382       0.65215164 </v>
    <v>       0.08787274       0.76023382       0.81232941 </v>
    <v>       0.42120606       0.42690054       0.49197382 </v>
    <v>       0.25453940       0.42690054       0.65215164 </v>
    <v>       0.08787274       0.42690054       0.81232941 </v>
    <v>       0.42120606       0.09356725       0.49197382 </v>
    <v>       0.25453940       0.09356725       0.65215164 </v>
    <v>       0.08787274       0.09356725       0.81232941 </v>
    <v>       0.75453937       0.76023382       0.49197382 </v>
    <v>       0.58787268       0.76023382       0.65215164 </v>
    <v>       0.42120600       0.76023382       0.81232941 </v>
    <v>       0.75453937       0.42690054       0.49197382 </v>
    <v>       0.58787268       0.42690054       0.65215164 </v>
    <v>       0.42120600       0.42690054       0.81232941 </v>
    <v>       0.75453937       0.09356725       0.49197382 </v>
    <v>       0.58787268       0.09356725       0.65215164 </v>
    <v>       0.42120600       0.09356725       0.81232941 </v>
    <v>       0.17120609       0.01023388       0.57206267 </v>
    <v>       0.00453937       0.01023388       0.73224050 </v>
    <v>       0.83787274       0.01023388       0.89241833 </v>
    <v>       0.17120609       0.67690057       0.57206267 </v>
    <v>       0.00453937       0.67690057       0.73224050 </v>
    <v>       0.83787274       0.67690057       0.89241833 </v>
    <v>       0.17120609       0.34356719       0.57206267 </v>
    <v>       0.00453937       0.34356719       0.73224050 </v>
    <v>       0.83787274       0.34356719       0.89241833 </v>
    <v>       0.50453937       0.01023388       0.57206267 </v>
    <v>       0.33787268       0.01023388       0.73224050 </v>
    <v>       0.17120597       0.01023388       0.89241833 </v>
    <v>       0.50453937       0.67690057       0.57206267 </v>
    <v>       0.33787268       0.67690057       0.73224050 </v>
    <v>       0.17120597       0.67690057       0.89241833 </v>
    <v>       0.50453937       0.34356719       0.57206267 </v>
    <v>       0.33787268       0.34356719       0.73224050 </v>
    <v>       0.17120597       0.34356719       0.89241833 </v>
    <v>       0.83787274       0.01023388       0.57206267 </v>
    <v>       0.67120600       0.01023388       0.73224050 </v>
    <v>       0.50453931       0.01023388       0.89241833 </v>
    <v>       0.83787274       0.67690057       0.57206267 </v>
    <v>       0.67120600       0.67690057       0.73224050 </v>
    <v>       0.50453931       0.67690057       0.89241833 </v>
    <v>       0.83787274       0.34356719       0.57206267 </v>
    <v>       0.67120600       0.34356719       0.73224050 </v>
    <v>       0.50453931       0.34356719       0.89241833 </v>
    <v>       0.25453943       0.92690045       0.49197382 </v>
    <v>       0.08787274       0.92690045       0.65215164 </v>
    <v>       0.92120606       0.92690045       0.81232941 </v>
    <v>       0.25453943       0.59356713       0.49197382 </v>
    <v>       0.08787274       0.59356713       0.65215164 </v>
    <v>       0.92120606       0.59356713       0.81232941 </v>
    <v>       0.25453943       0.26023388       0.49197382 </v>
    <v>       0.08787274       0.26023388       0.65215164 </v>
    <v>       0.92120606       0.26023388       0.81232941 </v>
    <v>       0.58787268       0.92690045       0.49197382 </v>
    <v>       0.42120600       0.92690045       0.65215164 </v>
    <v>       0.25453931       0.92690045       0.81232941 </v>
    <v>       0.58787268       0.59356713       0.49197382 </v>
    <v>       0.42120600       0.59356713       0.65215164 </v>
    <v>       0.25453931       0.59356713       0.81232941 </v>
    <v>       0.58787268       0.26023388       0.49197382 </v>
    <v>       0.42120600       0.26023388       0.65215164 </v>
    <v>       0.25453931       0.26023388       0.81232941 </v>
    <v>       0.92120606       0.92690045       0.49197382 </v>
    <v>       0.75453937       0.92690045       0.65215164 </v>
    <v>       0.58787268       0.92690045       0.81232941 </v>
    <v>       0.92120606       0.59356713       0.49197382 </v>
    <v>       0.75453937       0.59356713       0.65215164 </v>
    <v>       0.58787268       0.59356713       0.81232941 </v>
    <v>       0.92120606       0.26023388       0.49197382 </v>
    <v>       0.75453937       0.26023388       0.65215164 </v>
    <v>       0.58787268       0.26023388       0.81232941 </v>
    <v>       0.33787271       0.84356713       0.57206267 </v>
    <v>       0.17120603       0.84356713       0.73224050 </v>
    <v>       0.00453937       0.84356713       0.89241833 </v>
    <v>       0.33787271       0.51023388       0.57206267 </v>
    <v>       0.17120603       0.51023388       0.73224050 </v>
    <v>       0.00453937       0.51023388       0.89241833 </v>
    <v>       0.33787271       0.17690058       0.57206267 </v>
    <v>       0.17120603       0.17690058       0.73224050 </v>
    <v>       0.00453937       0.17690058       0.89241833 </v>
    <v>       0.67120612       0.84356713       0.57206267 </v>
    <v>       0.50453937       0.84356713       0.73224050 </v>
    <v>       0.33787268       0.84356713       0.89241833 </v>
    <v>       0.67120612       0.51023388       0.57206267 </v>
    <v>       0.50453937       0.51023388       0.73224050 </v>
    <v>       0.33787268       0.51023388       0.89241833 </v>
    <v>       0.67120612       0.17690058       0.57206267 </v>
    <v>       0.50453937       0.17690058       0.73224050 </v>
    <v>       0.33787268       0.17690058       0.89241833 </v>
    <v>       0.00453949       0.84356713       0.57206267 </v>
    <v>       0.83787274       0.84356713       0.73224050 </v>
    <v>       0.67120600       0.84356713       0.89241833 </v>
    <v>       0.00453949       0.51023388       0.57206267 </v>
    <v>       0.83787274       0.51023388       0.73224050 </v>
    <v>       0.67120600       0.51023388       0.89241833 </v>
    <v>       0.00453949       0.17690058       0.57206267 </v>
    <v>       0.83787274       0.17690058       0.73224050 </v>
    <v>       0.67120600       0.17690058       0.89241833 </v>
   </varray>
  </structure>
  <varray name="forces" >
   <v>       0.74258218      -0.20566263      -0.78795377 </v>
   <v>       0.11403420      -0.02186476       0.02587336 </v>
   <v>       0.34449041       0.03740186      -0.17395681 </v>
   <v>       0.31423998      -0.46769621       0.66152654 </v>
   <v>      -0.08391611       0.01703214       0.09987886 </v>
   <v>      -0.05248353       0.10016316      -0.01856792 </v>
   <v>       1.21118128       1.52174316       5.08811703 </v>
   <v>      -0.01797956       0.02977780       0.08037615 </v>
   <v>      -0.40250805      -0.02521163       0.28416313 </v>
   <v>      -0.87569032       0.41455298      -1.35038914 </v>
   <v>       0.07924241      -0.02321638       0.06672062 </v>
   <v>       0.02103088      -0.00690022       0.46386148 </v>
   <v>      -0.82909080       0.00275388       0.10418895 </v>
   <v>       0.01072577      -0.03613075       0.07528351 </v>
   <v>       0.14318584      -0.12172324       0.33884708 </v>
   <v>       0.74258218      -0.20566263      -0.78795377 </v>
   <v>       0.11403420      -0.02186476       0.02587336 </v>
   <v>       0.34449041       0.03740186      -0.17395681 </v>
   <v>       0.31423998      -0.46769621       0.66152654 </v>
   <v>      -0.08391611       0.01703214       0.09987886 </v>
   <v>      -0.05248353       0.10016316      -0.01856792 </v>
   <v>       1.21118128       1.52174316       5.08811703 </v>
   <v>      -0.01797956       0.02977780       0.08037615 </v>
   <v>      -0.40250805      -0.02521163       0.28416313 </v>
   <v>      -0.87569032       0.41455298      -1.35038914 </v>
   <v>       0.07924241      -0.02321638       0.06672062 </v>
   <v>       0.02103088      -0.00690022       0.46386148 </v>
   <v>      -0.82909080       0.00275388       0.10418895 </v>
   <v>       0.01072577      -0.03613075       0.07528351 </v>
   <v>       0.14318584      -0.12172324       0.33884708 </v>
   <v>       0.48402864       0.16095545       0.01736773 </v>
[...]
       <r>     1.8011   140.3757   685.4894 </r>
       <r>     1.8539   140.2506   692.9004 </r>
       <r>     1.9067   118.7004   699.1727 </r>
       <r>     1.9596   126.6875   705.8671 </r>
       <r>     2.0124   100.3689   711.1708 </r>
       <r>     2.0653   157.7426   719.5061 </r>
       <r>     2.1181   182.0043   729.1235 </r>
       <r>     2.1710   106.1415   734.7322 </r>
       <r>     2.2238   118.4546   740.9916 </r>
       <r>     2.2766   142.8933   748.5423 </r>
       <r>     2.3295   135.9898   755.7282 </r>
       <r>     2.3823   139.1697   763.0822 </r>
       <r>     2.4352   101.9696   768.4704 </r>
       <r>     2.4880   119.7591   774.7987 </r>
       <r>     2.5408   110.9692   780.6625 </r>
       <r>     2.5937   109.5687   786.4523 </r>
       <r>     2.6465   100.8582   791.7818 </r>
       <r>     2.6994   133.3213   798.8267 </r>
       <r>     2.7522   134.1948   805.9178 </r>
       <r>     2.8050   139.8471   813.3076 </r>
       <r>     2.8579   110.9637   819.1711 </r>
       <r>     2.9107   109.1045   824.9364 </r>
       <r>     2.9636    82.4078   829.2909 </r>
       <r>     3.0164    93.9109   834.2533 </r>
       <r>     3.0693    69.7012   837.9364 </r>
       <r>     3.1221    76.4358   841.9754 </r>
       <r>     3.1749    62.8356   845.2958 </r>
       <r>     3.2278    91.2985   850.1201 </r>
       <r>     3.2806    87.4770   854.7426 </r>
       <r>     3.3335   106.2669   860.3579 </r>
       <r>     3.3863    79.1854   864.5422 </r>
       <r>     3.4391    68.4752   868.1605 </r>
       <r>     3.4920    76.9458   872.2265 </r>
       <r>     3.5448    72.9991   876.0839 </r>
       <r>     3.5977    58.8785   879.1951 </r>
       <r>     3.6505    63.0591   882.5273 </r>
       <r>     3.7034    63.3448   885.8745 </r>
       <r>     3.7562    59.1614   889.0007 </r>
       <r>     3.8090    39.5318   891.0896 </r>
       <r>     3.8619    44.5002   893.4411 </r>
       <r>     3.9147    39.0824   895.5062 </r>
       <r>     3.9676    62.0200   898.7835 </r>
       <r>     4.0204    47.4268   901.2896 </r>
       <r>     4.0732    46.9843   903.7723 </r>
       <r>     4.1261    28.3611   905.2710 </r>
       <r>     4.1789    79.0708   909.4492 </r>
       <r>     4.2318    67.2334   913.0019 </r>
       <r>     4.2846    32.4164   914.7149 </r>
       <r>     4.3375    77.8557   918.8289 </r>
       <r>     4.3903    45.1630   921.2154 </r>
       <r>     4.4431    51.6905   923.9468 </r>
       <r>     4.4960    56.0870   926.9105 </r>
       <r>     4.5488    95.5578   931.9599 </r>
       <r>     4.6017    67.7057   935.5376 </r>
       <r>     4.6545    66.3816   939.0453 </r>
       <r>     4.7073    78.7759   943.2080 </r>
       <r>     4.7602    72.6695   947.0479 </r>
       <r>     4.8130    87.2214   951.6569 </r>
       <r>     4.8659    54.3536   954.5290 </r>
       <r>     4.9187    93.8218   959.4867 </r>
       <r>     4.9716   107.6111   965.1731 </r>
       <r>     5.0244   102.4637   970.5874 </r>
       <r>     5.0772    98.2975   975.7816 </r>
       <r>     5.1301    86.6832   980.3621 </r>
       <r>     5.1829    82.6551   984.7297 </r>
       <r>     5.2358    82.6632   989.0978 </r>
       <r>     5.2886    88.7029   993.7850 </r>
       <r>     5.3414    97.6853   998.9468 </r>
       <r>     5.3943   119.2751  1005.2495 </r>
       <r>     5.4471   112.0443  1011.1701 </r>
       <r>     5.5000   109.9261  1016.9788 </r>
       <r>     5.5528   112.7868  1022.9386 </r>
       <r>     5.6056    91.9289  1027.7963 </r>
       <r>     5.6585   101.8806  1033.1798 </r>
       <r>     5.7113   101.3153  1038.5335 </r>
       <r>     5.7642   112.1333  1044.4588 </r>
       <r>     5.8170   124.1704  1051.0201 </r>
       <r>     5.8699   139.9716  1058.4165 </r>
       <r>     5.9227    90.3508  1063.1908 </r>
       <r>     5.9755   116.9242  1069.3692 </r>
       <r>     6.0284    92.2128  1074.2419 </r>
       <r>     6.0812    97.3753  1079.3874 </r>
       <r>     6.1341   114.5817  1085.4421 </r>
       <r>     6.1869    90.6899  1090.2342 </r>
       <r>     6.2397    64.4780  1093.6414 </r>
       <r>     6.2926    37.1033  1095.6020 </r>
       <r>     6.3454     7.5325  1096.0000 </r>
       <r>     6.3983     0.0000  1096.0000 </r>
       <r>     6.4511     0.0000  1096.0000 </r>
       <r>     6.5040     0.0000  1096.0000 </r>
       <r>     6.5568     0.0000  1096.0000 </r>
       <r>     6.6096     0.0000  1096.0000 </r>
       <r>     6.6625     0.0000  1096.0000 </r>
       <r>     6.7153     0.0000  1096.0000 </r>
       <r>     6.7682     0.0000  1096.0000 </r>
       <r>     6.8210     0.0000  1096.0000 </r>
       <r>     6.8738     0.0000  1096.0000 </r>
       <r>     6.9267     0.0000  1096.0000 </r>
       <r>     6.9795     0.0000  1096.0000 </r>
       <r>     7.0324     0.0000  1096.0000 </r>
      </set>
     </set>
    </array>
   </total>
  </dos>
 </calculation>
 <structure name="finalpos" >
  <crystal>
   <varray name="basis" >
    <v>      17.17433167       0.00000000       0.00000000 </v>
    <v>       0.00000000      17.17432976       0.00000000 </v>
    <v>       0.00000000       0.00000000      17.66099930 </v>
   </varray>
   <i name="volume">   5209.24659153 </i>
   <varray name="rec_basis" >
    <v>       0.05822643       0.00000000       0.00000000 </v>
    <v>       0.00000000       0.05822644       0.00000000 </v>
    <v>       0.00000000       0.00000000       0.05662194 </v>
   </varray>
  </crystal>
  <varray name="positions" >
   <v>       0.99640435       0.97483069       0.00000000 </v>
   <v>       0.94640434       0.62483060       0.15375686 </v>
   <v>       0.89640427       0.27483046       0.30751380 </v>
   <v>       0.09640440       0.67483074       0.00000000 </v>
   <v>       0.04640434       0.32483065       0.15375686 </v>
   <v>       0.99640423       0.97483051       0.30751380 </v>
   <v>       0.19640441       0.37483066       0.00000000 </v>
   <v>       0.14640434       0.02483060       0.15375686 </v>
   <v>       0.09640426       0.67483044       0.30751380 </v>
   <v>       0.29640439       0.07483066       0.00000000 </v>
   <v>       0.24640430       0.72483063       0.15375686 </v>
   <v>       0.19640423       0.37483042       0.30751380 </v>
   <v>       0.39640445       0.77483070       0.00000000 </v>
   <v>       0.34640437       0.42483059       0.15375686 </v>
   <v>       0.29640430       0.07483046       0.30751380 </v>
   <v>       0.49640438       0.47483069       0.00000000 </v>
   <v>       0.44640431       0.12483060       0.15375686 </v>
   <v>       0.39640424       0.77483046       0.30751380 </v>
   <v>       0.59640437       0.17483065       0.00000000 </v>
   <v>       0.54640430       0.82483059       0.15375686 </v>
   <v>       0.49640426       0.47483045       0.30751380 </v>
   <v>       0.69640452       0.87483078       0.00000000 </v>
   <v>       0.64640445       0.52483064       0.15375686 </v>
   <v>       0.59640437       0.17483054       0.30751380 </v>
   <v>       0.79640442       0.57483071       0.00000000 </v>
   <v>       0.74640435       0.22483061       0.15375686 </v>
   <v>       0.69640428       0.87483048       0.30751380 </v>
   <v>       0.89640450       0.27483070       0.00000000 </v>
   <v>       0.84640443       0.92483062       0.15375686 </v>
   <v>       0.79640436       0.57483047       0.30751380 </v>
   <v>       0.99640441       0.22483067       0.07687847 </v>
   <v>       0.94640428       0.87483054       0.23063532 </v>
   <v>       0.89640427       0.52483046       0.38439217 </v>
   <v>       0.09640437       0.92483062       0.07687847 </v>
   <v>       0.04640429       0.57483053       0.23063532 </v>
   <v>       0.99640423       0.22483039       0.38439217 </v>
   <v>       0.19640441       0.62483066       0.07687847 </v>
   <v>       0.14640434       0.27483055       0.23063532 </v>
   <v>       0.09640426       0.92483050       0.38439217 </v>
   <v>       0.29640442       0.32483062       0.07687847 </v>
   <v>       0.24640434       0.97483051       0.23063532 </v>
   <v>       0.19640426       0.62483048       0.38439217 </v>
   <v>       0.39640441       0.02483064       0.07687847 </v>
   <v>       0.34640431       0.67483056       0.23063532 </v>
   <v>       0.29640424       0.32483047       0.38439217 </v>
   <v>       0.49640450       0.72483069       0.07687847 </v>
   <v>       0.44640443       0.37483057       0.23063532 </v>
   <v>       0.39640436       0.02483052       0.38439217 </v>
   <v>       0.59640437       0.42483059       0.07687847 </v>
   <v>       0.54640430       0.07483050       0.23063532 </v>
   <v>       0.49640426       0.72483045       0.38439217 </v>
   <v>       0.69640452       0.12483066       0.07687847 </v>
   <v>       0.64640439       0.77483058       0.23063532 </v>
   <v>       0.59640437       0.42483050       0.38439217 </v>
   <v>       0.79640448       0.82483071       0.07687847 </v>
   <v>       0.74640441       0.47483057       0.23063532 </v>
   <v>       0.69640434       0.12483048       0.38439217 </v>
   <v>       0.89640445       0.52483064       0.07687847 </v>
   <v>       0.84640437       0.17483054       0.23063532 </v>
   <v>       0.79640430       0.82483047       0.38439217 </v>
   <v>       0.99640441       0.47483069       0.00000000 </v>
   <v>       0.94640434       0.12483060       0.15375686 </v>
   <v>       0.89640427       0.77483046       0.30751380 </v>
   <v>       0.09640438       0.17483066       0.00000000 </v>
   <v>       0.04640431       0.82483059       0.15375686 </v>
   <v>       0.99640423       0.47483045       0.30751380 </v>
   <v>       0.19640441       0.87483066       0.00000000 </v>
   <v>       0.14640433       0.52483058       0.15375686 </v>
   <v>       0.09640426       0.17483044       0.30751380 </v>
   <v>       0.29640442       0.57483065       0.00000000 </v>
   <v>       0.24640432       0.22483060       0.15375686 </v>
   <v>       0.19640425       0.87483048       0.30751380 </v>
   <v>       0.39640445       0.27483067       0.00000000 </v>
   <v>       0.34640437       0.92483062       0.15375686 </v>
   <v>       0.29640430       0.57483047       0.30751380 </v>
   <v>       0.49640441       0.97483063       0.00000000 </v>
   <v>       0.44640434       0.62483054       0.15375686 </v>
   <v>       0.39640424       0.27483040       0.30751380 </v>
   <v>       0.59640437       0.67483068       0.00000000 </v>
   <v>       0.54640430       0.32483059       0.15375686 </v>
   <v>       0.49640423       0.97483045       0.30751380 </v>
   <v>       0.69640440       0.37483063       0.00000000 </v>
   <v>       0.64640433       0.02483056       0.15375686 </v>
   <v>       0.59640425       0.67483044       0.30751380 </v>
   <v>       0.79640442       0.07483064       0.00000000 </v>
   <v>       0.74640435       0.72483051       0.15375686 </v>
   <v>       0.69640428       0.37483042       0.30751380 </v>
   <v>       0.89640450       0.77483070       0.00000000 </v>
   <v>       0.84640443       0.42483062       0.15375686 </v>
   <v>       0.79640436       0.07483048       0.30751380 </v>
   <v>       0.99640435       0.72483075       0.07687847 </v>
   <v>       0.94640428       0.37483060       0.23063532 </v>
   <v>       0.89640427       0.02483054       0.38439217 </v>
   <v>       0.09640439       0.42483068       0.07687847 </v>
   <v>       0.04640431       0.07483057       0.23063532 </v>
   <v>       0.99640423       0.72483051       0.38439217 </v>
   <v>       0.19640441       0.12483066       0.07687847 </v>
   <v>       0.14640434       0.77483058       0.23063532 </v>
   <v>       0.09640427       0.42483050       0.38439217 </v>
   <v>       0.29640439       0.82483071       0.07687847 </v>
   <v>       0.24640432       0.47483057       0.23063532 </v>
   <v>       0.19640425       0.12483048       0.38439217 </v>
   <v>       0.39640441       0.52483076       0.07687847 </v>
   <v>       0.34640434       0.17483065       0.23063532 </v>
   <v>       0.29640427       0.82483059       0.38439217 </v>
   <v>       0.49640441       0.22483064       0.07687847 </v>
   <v>       0.44640434       0.87483054       0.23063532 </v>
   <v>       0.39640424       0.52483046       0.38439217 </v>
   <v>       0.59640443       0.92483068       0.07687847 </v>
   <v>       0.54640436       0.57483059       0.23063532 </v>
   <v>       0.49640429       0.22483051       0.38439217 </v>
   <v>       0.69640446       0.62483072       0.07687847 </v>
   <v>       0.64640439       0.27483058       0.23063532 </v>
   <v>       0.59640431       0.92483056       0.38439217 </v>
   <v>       0.79640436       0.32483062       0.07687847 </v>
   <v>       0.74640429       0.97483051       0.23063532 </v>
   <v>       0.69640422       0.62483048       0.38439217 </v>
   <v>       0.89640439       0.02483063       0.07687847 </v>
   <v>       0.84640431       0.67483056       0.23063532 </v>
   <v>       0.79640424       0.32483041       0.38439217 </v>
   <v>       0.08787274       0.76023382       0.49197382 </v>
   <v>       0.92120612       0.76023382       0.65215164 </v>
   <v>       0.75453937       0.76023382       0.81232941 </v>
   <v>       0.08787274       0.42690054       0.49197382 </v>
   <v>       0.92120612       0.42690054       0.65215164 </v>
   <v>       0.75453937       0.42690054       0.81232941 </v>
   <v>       0.08787274       0.09356725       0.49197382 </v>
   <v>       0.92120612       0.09356725       0.65215164 </v>
   <v>       0.75453937       0.09356725       0.81232941 </v>
   <v>       0.42120606       0.76023382       0.49197382 </v>
   <v>       0.25453940       0.76023382       0.65215164 </v>
   <v>       0.08787274       0.76023382       0.81232941 </v>
   <v>       0.42120606       0.42690054       0.49197382 </v>
   <v>       0.25453940       0.42690054       0.65215164 </v>
   <v>       0.08787274       0.42690054       0.81232941 </v>
   <v>       0.42120606       0.09356725       0.49197382 </v>
   <v>       0.25453940       0.09356725       0.65215164 </v>
   <v>       0.08787274       0.09356725       0.81232941 </v>
   <v>       0.75453937       0.76023382       0.49197382 </v>
   <v>       0.58787268       0.76023382       0.65215164 </v>
   <v>       0.42120600       0.76023382       0.81232941 </v>
   <v>       0.75453937       0.42690054       0.49197382 </v>
   <v>       0.58787268       0.42690054       0.65215164 </v>
   <v>       0.42120600       0.42690054       0.81232941 </v>
   <v>       0.75453937       0.09356725       0.49197382 </v>
   <v>       0.58787268       0.09356725       0.65215164 </v>
   <v>       0.42120600       0.09356725       0.81232941 </v>
   <v>       0.17120609       0.01023388       0.57206267 </v>
   <v>       0.00453937       0.01023388       0.73224050 </v>
   <v>       0.83787274       0.01023388       0.89241833 </v>
   <v>       0.17120609       0.67690057       0.57206267 </v>
   <v>       0.00453937       0.67690057       0.73224050 </v>
   <v>       0.83787274       0.67690057       0.89241833 </v>
   <v>       0.17120609       0.34356719       0.57206267 </v>
   <v>       0.00453937       0.34356719       0.73224050 </v>
   <v>       0.83787274       0.34356719       0.89241833 </v>
   <v>       0.50453937       0.01023388       0.57206267 </v>
   <v>       0.33787268       0.01023388       0.73224050 </v>
   <v>       0.17120597       0.01023388       0.89241833 </v>
   <v>       0.50453937       0.67690057       0.57206267 </v>
   <v>       0.33787268       0.67690057       0.73224050 </v>
   <v>       0.17120597       0.67690057       0.89241833 </v>
   <v>       0.50453937       0.34356719       0.57206267 </v>
   <v>       0.33787268       0.34356719       0.73224050 </v>
   <v>       0.17120597       0.34356719       0.89241833 </v>
   <v>       0.83787274       0.01023388       0.57206267 </v>
   <v>       0.67120600       0.01023388       0.73224050 </v>
   <v>       0.50453931       0.01023388       0.89241833 </v>
   <v>       0.83787274       0.67690057       0.57206267 </v>
   <v>       0.67120600       0.67690057       0.73224050 </v>
   <v>       0.50453931       0.67690057       0.89241833 </v>
   <v>       0.83787274       0.34356719       0.57206267 </v>
   <v>       0.67120600       0.34356719       0.73224050 </v>
   <v>       0.50453931       0.34356719       0.89241833 </v>
   <v>       0.25453943       0.92690045       0.49197382 </v>
   <v>       0.08787274       0.92690045       0.65215164 </v>
   <v>       0.92120606       0.92690045       0.81232941 </v>
   <v>       0.25453943       0.59356713       0.49197382 </v>
   <v>       0.08787274       0.59356713       0.65215164 </v>
   <v>       0.92120606       0.59356713       0.81232941 </v>
   <v>       0.25453943       0.26023388       0.49197382 </v>
   <v>       0.08787274       0.26023388       0.65215164 </v>
   <v>       0.92120606       0.26023388       0.81232941 </v>
   <v>       0.58787268       0.92690045       0.49197382 </v>
   <v>       0.42120600       0.92690045       0.65215164 </v>
   <v>       0.25453931       0.92690045       0.81232941 </v>
   <v>       0.58787268       0.59356713       0.49197382 </v>
   <v>       0.42120600       0.59356713       0.65215164 </v>
   <v>       0.25453931       0.59356713       0.81232941 </v>
   <v>       0.58787268       0.26023388       0.49197382 </v>
   <v>       0.42120600       0.26023388       0.65215164 </v>
   <v>       0.25453931       0.26023388       0.81232941 </v>
   <v>       0.92120606       0.92690045       0.49197382 </v>
   <v>       0.75453937       0.92690045       0.65215164 </v>
   <v>       0.58787268       0.92690045       0.81232941 </v>
   <v>       0.92120606       0.59356713       0.49197382 </v>
   <v>       0.75453937       0.59356713       0.65215164 </v>
   <v>       0.58787268       0.59356713       0.81232941 </v>
   <v>       0.92120606       0.26023388       0.49197382 </v>
   <v>       0.75453937       0.26023388       0.65215164 </v>
   <v>       0.58787268       0.26023388       0.81232941 </v>
   <v>       0.33787271       0.84356713       0.57206267 </v>
   <v>       0.17120603       0.84356713       0.73224050 </v>
   <v>       0.00453937       0.84356713       0.89241833 </v>
   <v>       0.33787271       0.51023388       0.57206267 </v>
   <v>       0.17120603       0.51023388       0.73224050 </v>
   <v>       0.00453937       0.51023388       0.89241833 </v>
   <v>       0.33787271       0.17690058       0.57206267 </v>
   <v>       0.17120603       0.17690058       0.73224050 </v>
   <v>       0.00453937       0.17690058       0.89241833 </v>
   <v>       0.67120612       0.84356713       0.57206267 </v>
   <v>       0.50453937       0.84356713       0.73224050 </v>
   <v>       0.33787268       0.84356713       0.89241833 </v>
   <v>       0.67120612       0.51023388       0.57206267 </v>
   <v>       0.50453937       0.51023388       0.73224050 </v>
   <v>       0.33787268       0.51023388       0.89241833 </v>
   <v>       0.67120612       0.17690058       0.57206267 </v>
   <v>       0.50453937       0.17690058       0.73224050 </v>
   <v>       0.33787268       0.17690058       0.89241833 </v>
   <v>       0.00453949       0.84356713       0.57206267 </v>
   <v>       0.83787274       0.84356713       0.73224050 </v>
   <v>       0.67120600       0.84356713       0.89241833 </v>
   <v>       0.00453949       0.51023388       0.57206267 </v>
   <v>       0.83787274       0.51023388       0.73224050 </v>
   <v>       0.67120600       0.51023388       0.89241833 </v>
   <v>       0.00453949       0.17690058       0.57206267 </v>
   <v>       0.83787274       0.17690058       0.73224050 </v>
   <v>       0.67120600       0.17690058       0.89241833 </v>
  </varray>
 </structure>
</modeling>
