Si and Ge interface calculation         
           1
    17.174332    0.000000    0.000000
     0.000000   17.174330    0.000000
     0.000000    0.000000   17.660999
   Si   Ge
   120   108
Direct configuration=     1
   0.99640435  0.97483069  0.00000000
   0.94640434  0.62483060  0.15375686
   0.89640427  0.27483046  0.30751380
   0.09640440  0.67483074  0.00000000
   0.04640434  0.32483065  0.15375686
   0.99640423  0.97483051  0.30751380
   0.19640441  0.37483066  0.00000000
   0.14640434  0.02483060  0.15375686
   0.09640426  0.67483044  0.30751380
   0.29640439  0.07483066  0.00000000
   0.24640430  0.72483063  0.15375686
   0.19640423  0.37483042  0.30751380
   0.39640445  0.77483070  0.00000000
   0.34640437  0.42483059  0.15375686
   0.29640430  0.07483046  0.30751380
   0.49640438  0.47483069  0.00000000
   0.44640431  0.12483060  0.15375686
   0.39640424  0.77483046  0.30751380
   0.59640437  0.17483065  0.00000000
   0.54640430  0.82483059  0.15375686
   0.49640426  0.47483045  0.30751380
   0.69640452  0.87483078  0.00000000
   0.64640445  0.52483064  0.15375686
   0.59640437  0.17483054  0.30751380
   0.79640442  0.57483071  0.00000000
   0.74640435  0.22483061  0.15375686
   0.69640428  0.87483048  0.30751380
   0.89640450  0.27483070  0.00000000
   0.84640443  0.92483062  0.15375686
   0.79640436  0.57483047  0.30751380
   0.99640441  0.22483067  0.07687847
   0.94640428  0.87483054  0.23063532
   0.89640427  0.52483046  0.38439217
   0.09640437  0.92483062  0.07687847
   0.04640429  0.57483053  0.23063532
   0.99640423  0.22483039  0.38439217
   0.19640441  0.62483066  0.07687847
   0.14640434  0.27483055  0.23063532
   0.09640426  0.92483050  0.38439217
   0.29640442  0.32483062  0.07687847
   0.24640434  0.97483051  0.23063532
   0.19640426  0.62483048  0.38439217
   0.39640441  0.02483064  0.07687847
   0.34640431  0.67483056  0.23063532
   0.29640424  0.32483047  0.38439217
   0.49640450  0.72483069  0.07687847
   0.44640443  0.37483057  0.23063532
   0.39640436  0.02483052  0.38439217
   0.59640437  0.42483059  0.07687847
   0.54640430  0.07483050  0.23063532
   0.49640426  0.72483045  0.38439217
   0.69640452  0.12483066  0.07687847
   0.64640439  0.77483058  0.23063532
   0.59640437  0.42483050  0.38439217
   0.79640448  0.82483071  0.07687847
   0.74640441  0.47483057  0.23063532
   0.69640434  0.12483048  0.38439217
   0.89640445  0.52483064  0.07687847
   0.84640437  0.17483054  0.23063532
   0.79640430  0.82483047  0.38439217
   0.99640441  0.47483069  0.00000000
   0.94640434  0.12483060  0.15375686
   0.89640427  0.77483046  0.30751380
   0.09640438  0.17483066  0.00000000
   0.04640431  0.82483059  0.15375686
   0.99640423  0.47483045  0.30751380
   0.19640441  0.87483066  0.00000000
   0.14640433  0.52483058  0.15375686
   0.09640426  0.17483044  0.30751380
   0.29640442  0.57483065  0.00000000
   0.24640432  0.22483060  0.15375686
   0.19640425  0.87483048  0.30751380
   0.39640445  0.27483067  0.00000000
   0.34640437  0.92483062  0.15375686
   0.29640430  0.57483047  0.30751380
   0.49640441  0.97483063  0.00000000
   0.44640434  0.62483054  0.15375686
   0.39640424  0.27483040  0.30751380
   0.59640437  0.67483068  0.00000000
   0.54640430  0.32483059  0.15375686
   0.49640423  0.97483045  0.30751380
   0.69640440  0.37483063  0.00000000
   0.64640433  0.02483056  0.15375686
   0.59640425  0.67483044  0.30751380
   0.79640442  0.07483064  0.00000000
   0.74640435  0.72483051  0.15375686
   0.69640428  0.37483042  0.30751380
   0.89640450  0.77483070  0.00000000
   0.84640443  0.42483062  0.15375686
   0.79640436  0.07483048  0.30751380
   0.99640435  0.72483075  0.07687847
   0.94640428  0.37483060  0.23063532
   0.89640427  0.02483054  0.38439217
   0.09640439  0.42483068  0.07687847
   0.04640431  0.07483057  0.23063532
   0.99640423  0.72483051  0.38439217
   0.19640441  0.12483066  0.07687847
   0.14640434  0.77483058  0.23063532
   0.09640427  0.42483050  0.38439217
   0.29640439  0.82483071  0.07687847
   0.24640432  0.47483057  0.23063532
   0.19640425  0.12483048  0.38439217
   0.39640441  0.52483076  0.07687847
   0.34640434  0.17483065  0.23063532
   0.29640427  0.82483059  0.38439217
   0.49640441  0.22483064  0.07687847
   0.44640434  0.87483054  0.23063532
   0.39640424  0.52483046  0.38439217
   0.59640443  0.92483068  0.07687847
   0.54640436  0.57483059  0.23063532
   0.49640429  0.22483051  0.38439217
   0.69640446  0.62483072  0.07687847
   0.64640439  0.27483058  0.23063532
   0.59640431  0.92483056  0.38439217
   0.79640436  0.32483062  0.07687847
   0.74640429  0.97483051  0.23063532
   0.69640422  0.62483048  0.38439217
   0.89640439  0.02483063  0.07687847
   0.84640431  0.67483056  0.23063532
   0.79640424  0.32483041  0.38439217
   0.08787274  0.76023382  0.49197382
   0.92120612  0.76023382  0.65215164
   0.75453937  0.76023382  0.81232941
   0.08787274  0.42690054  0.49197382
   0.92120612  0.42690054  0.65215164
   0.75453937  0.42690054  0.81232941
   0.08787274  0.09356725  0.49197382
   0.92120612  0.09356725  0.65215164
   0.75453937  0.09356725  0.81232941
   0.42120606  0.76023382  0.49197382
   0.25453940  0.76023382  0.65215164
   0.08787274  0.76023382  0.81232941
   0.42120606  0.42690054  0.49197382
   0.25453940  0.42690054  0.65215164
   0.08787274  0.42690054  0.81232941
   0.42120606  0.09356725  0.49197382
   0.25453940  0.09356725  0.65215164
   0.08787274  0.09356725  0.81232941
   0.75453937  0.76023382  0.49197382
   0.58787268  0.76023382  0.65215164
   0.42120600  0.76023382  0.81232941
   0.75453937  0.42690054  0.49197382
   0.58787268  0.42690054  0.65215164
   0.42120600  0.42690054  0.81232941
   0.75453937  0.09356725  0.49197382
   0.58787268  0.09356725  0.65215164
   0.42120600  0.09356725  0.81232941
   0.17120609  0.01023388  0.57206267
   0.00453937  0.01023388  0.73224050
   0.83787274  0.01023388  0.89241833
   0.17120609  0.67690057  0.57206267
   0.00453937  0.67690057  0.73224050
   0.83787274  0.67690057  0.89241833
   0.17120609  0.34356719  0.57206267
   0.00453937  0.34356719  0.73224050
   0.83787274  0.34356719  0.89241833
   0.50453937  0.01023388  0.57206267
   0.33787268  0.01023388  0.73224050
   0.17120597  0.01023388  0.89241833
   0.50453937  0.67690057  0.57206267
   0.33787268  0.67690057  0.73224050
   0.17120597  0.67690057  0.89241833
   0.50453937  0.34356719  0.57206267
   0.33787268  0.34356719  0.73224050
   0.17120597  0.34356719  0.89241833
   0.83787274  0.01023388  0.57206267
   0.67120600  0.01023388  0.73224050
   0.50453931  0.01023388  0.89241833
   0.83787274  0.67690057  0.57206267
   0.67120600  0.67690057  0.73224050
   0.50453931  0.67690057  0.89241833
   0.83787274  0.34356719  0.57206267
   0.67120600  0.34356719  0.73224050
   0.50453931  0.34356719  0.89241833
   0.25453943  0.92690045  0.49197382
   0.08787274  0.92690045  0.65215164
   0.92120606  0.92690045  0.81232941
   0.25453943  0.59356713  0.49197382
   0.08787274  0.59356713  0.65215164
   0.92120606  0.59356713  0.81232941
   0.25453943  0.26023388  0.49197382
   0.08787274  0.26023388  0.65215164
   0.92120606  0.26023388  0.81232941
   0.58787268  0.92690045  0.49197382
   0.42120600  0.92690045  0.65215164
   0.25453931  0.92690045  0.81232941
   0.58787268  0.59356713  0.49197382
   0.42120600  0.59356713  0.65215164
   0.25453931  0.59356713  0.81232941
   0.58787268  0.26023388  0.49197382
   0.42120600  0.26023388  0.65215164
   0.25453931  0.26023388  0.81232941
   0.92120606  0.92690045  0.49197382
   0.75453937  0.92690045  0.65215164
   0.58787268  0.92690045  0.81232941
   0.92120606  0.59356713  0.49197382
   0.75453937  0.59356713  0.65215164
   0.58787268  0.59356713  0.81232941
   0.92120606  0.26023388  0.49197382
   0.75453937  0.26023388  0.65215164
   0.58787268  0.26023388  0.81232941
   0.33787271  0.84356713  0.57206267
   0.17120603  0.84356713  0.73224050
   0.00453937  0.84356713  0.89241833
   0.33787271  0.51023388  0.57206267
   0.17120603  0.51023388  0.73224050
   0.00453937  0.51023388  0.89241833
   0.33787271  0.17690058  0.57206267
   0.17120603  0.17690058  0.73224050
   0.00453937  0.17690058  0.89241833
   0.67120612  0.84356713  0.57206267
   0.50453937  0.84356713  0.73224050
   0.33787268  0.84356713  0.89241833
   0.67120612  0.51023388  0.57206267
   0.50453937  0.51023388  0.73224050
   0.33787268  0.51023388  0.89241833
   0.67120612  0.17690058  0.57206267
   0.50453937  0.17690058  0.73224050
   0.33787268  0.17690058  0.89241833
   0.00453949  0.84356713  0.57206267
   0.83787274  0.84356713  0.73224050
   0.67120600  0.84356713  0.89241833
   0.00453949  0.51023388  0.57206267
   0.83787274  0.51023388  0.73224050
   0.67120600  0.51023388  0.89241833
   0.00453949  0.17690058  0.57206267
   0.83787274  0.17690058  0.73224050
   0.67120600  0.17690058  0.89241833
