       N       E                     dE             d eps       ncg     rms          rms(c)
DAV:   1     0.238797162742E+04    0.23880E+04   -0.26178E+05 16128   0.189E+03
DAV:   2    -0.527144299220E+03   -0.29151E+04   -0.27828E+04 19768   0.299E+02
DAV:   3    -0.825388955711E+03   -0.29824E+03   -0.28508E+03 19880   0.894E+01
DAV:   4    -0.839716885267E+03   -0.14328E+02   -0.13841E+02 20952   0.196E+01
DAV:   5    -0.840341094454E+03   -0.62421E+00   -0.61444E+00 21576   0.375E+00    0.454E+01
DAV:   6    -0.806907174043E+03    0.33434E+02   -0.40572E+02 22056   0.401E+01    0.341E+01
DAV:   7    -0.782791741388E+03    0.24115E+02   -0.18092E+02 20544   0.258E+01    0.136E+01
DAV:   8    -0.786395968229E+03   -0.36042E+01   -0.31287E+01 21832   0.137E+01    0.103E+01
DAV:   9    -0.783211330221E+03    0.31846E+01   -0.10516E+01 21408   0.981E+00    0.437E+00
DAV:  10    -0.783073149183E+03    0.13818E+00   -0.29914E+00 20552   0.384E+00    0.260E+00
DAV:  11    -0.783055248264E+03    0.17901E-01   -0.85252E-01 20544   0.222E+00    0.194E+00
DAV:  12    -0.783042812421E+03    0.12436E-01   -0.25058E-01 20392   0.135E+00    0.139E+00
DAV:  13    -0.783030829678E+03    0.11983E-01   -0.96934E-02 20312   0.797E-01    0.682E-01
DAV:  14    -0.783029328184E+03    0.15015E-02   -0.29635E-02 20184   0.415E-01    0.282E-01
DAV:  15    -0.783028298881E+03    0.10293E-02   -0.93628E-03 20392   0.240E-01    0.148E-01
DAV:  16    -0.783027987329E+03    0.31155E-03   -0.27588E-03 20448   0.129E-01    0.874E-02
DAV:  17    -0.783027917803E+03    0.69526E-04   -0.84984E-04 20552   0.678E-02    0.478E-02
DAV:  18    -0.783027912082E+03    0.57217E-05   -0.30074E-04 21088   0.354E-02    0.257E-02
DAV:  19    -0.783027911812E+03    0.27008E-06   -0.76775E-05 19728   0.182E-02    0.128E-02
DAV:  20    -0.783027912807E+03   -0.99500E-06   -0.17506E-05 19536   0.918E-03    0.661E-03
DAV:  21    -0.783027912746E+03    0.60805E-07   -0.54795E-06 20112   0.613E-03    0.445E-03
DAV:  22    -0.783027912370E+03    0.37588E-06   -0.19198E-06 20704   0.363E-03    0.236E-03
DAV:  23    -0.783027912347E+03    0.22810E-07   -0.81012E-07 19352   0.190E-03
   1 F= -.78302791E+03 E0= -.78302711E+03  d E =-.160998E-02  mag=     1.0000
