 120 120   0   0
  0.1318225E+02  0.1330318E-08  0.1629300E-08  0.7994753E-09  0.5000000E-15
  1.000000000000000E-004
  CAR 
 Si and Ge interface calculation         
      7.72197629    -14.87475926  301      4.34452057      1.00000000
    -14.875  0.0000E+00  0.0000E+00  0.0000E+00  0.0000E+00
    -14.799  0.0000E+00  0.0000E+00  0.0000E+00  0.0000E+00
    -14.724  0.0000E+00  0.0000E+00  0.0000E+00  0.0000E+00
    -14.649  0.0000E+00  0.0000E+00  0.0000E+00  0.0000E+00
    -14.573  0.0000E+00  0.0000E+00  0.0000E+00  0.0000E+00
    -14.498  0.0000E+00  0.0000E+00  0.0000E+00  0.0000E+00
    -14.423  0.0000E+00  0.0000E+00  0.0000E+00  0.0000E+00
    -14.348  0.0000E+00  0.0000E+00  0.0000E+00  0.0000E+00
    -14.272  0.0000E+00  0.0000E+00  0.0000E+00  0.0000E+00
    -14.197  0.0000E+00  0.0000E+00  0.0000E+00  0.0000E+00
    -14.122  0.0000E+00  0.0000E+00  0.0000E+00  0.0000E+00
    -14.046  0.0000E+00  0.0000E+00  0.0000E+00  0.0000E+00
    -13.971  0.0000E+00  0.0000E+00  0.0000E+00  0.0000E+00
    -13.896  0.1548E-10  0.9212E-15  0.1166E-11  0.6939E-16
    -13.820  0.4425E+01  0.4398E+01  0.3333E+00  0.3313E+00
    -13.745  0.1350E+02  0.1087E+02  0.1350E+01  0.1152E+01
    -13.670  0.1248E+02  0.1561E+02  0.2333E+01  0.2333E+01
    -13.594  0.1693E+01  0.1477E+00  0.2461E+01  0.2344E+01
    -13.519  0.2486E+02  0.2639E+02  0.4333E+01  0.4332E+01
    -13.444  0.8837E+01  0.8416E+01  0.4999E+01  0.4967E+01
    -13.368  0.1328E+02  0.1326E+02  0.6000E+01  0.5999E+01
    -13.293  0.8926E+01  0.8851E+01  0.6672E+01  0.6667E+01
    -13.218  0.1766E+02  0.1770E+02  0.8002E+01  0.8000E+01
    -13.142  0.5774E+01  0.4505E+01  0.8437E+01  0.8339E+01
    -13.067  0.1632E+02  0.1762E+02  0.9667E+01  0.9667E+01
    -12.992  0.1299E+02  0.9622E+01  0.1064E+02  0.1039E+02
    -12.916  0.9140E+01  0.1248E+02  0.1133E+02  0.1133E+02
    -12.841  0.2191E+02  0.1391E+02  0.1298E+02  0.1238E+02
    -12.766  0.2041E+02  0.2794E+02  0.1464E+02  0.1449E+02
    -12.690  0.4404E+01  0.5591E+01  0.1500E+02  0.1497E+02
    -12.615  0.2211E+02  0.2153E+02  0.1667E+02  0.1662E+02
    -12.540  0.4870E+01  0.1137E+01  0.1703E+02  0.1675E+02
    -12.464  0.1281E+02  0.1618E+02  0.1800E+02  0.1797E+02
    -12.389  0.8851E+01  0.8851E+01  0.1867E+02  0.1867E+02
    -12.314  0.1770E+02  0.1763E+02  0.2000E+02  0.1999E+02
    -12.238  0.2253E+02  0.1788E+02  0.2170E+02  0.2135E+02
    -12.163  0.7214E+01  0.9939E+01  0.2228E+02  0.2215E+02
    -12.088  0.9550E+01  0.1101E+02  0.2305E+02  0.2298E+02
    -12.013  0.1504E+02  0.1374E+02  0.2419E+02  0.2404E+02
    -11.937  0.6370E+01  0.7960E+01  0.2467E+02  0.2464E+02
    -11.862  0.3441E+01  0.1703E+01  0.2493E+02  0.2479E+02
    -11.787  0.4349E+01  0.7148E+01  0.2533E+02  0.2533E+02
    -11.711  0.1660E+02  0.9127E+01  0.2658E+02  0.2602E+02
    -11.636  0.1716E+02  0.2628E+02  0.2800E+02  0.2800E+02
    -11.561  0.0000E+00  0.0000E+00  0.2800E+02  0.2800E+02
    -11.485  0.1394E-12  0.0000E+00  0.2800E+02  0.2800E+02
    -11.410  0.4422E+01  0.4291E+01  0.2833E+02  0.2832E+02
    -11.335  0.8846E+01  0.8637E+01  0.2900E+02  0.2898E+02
    -11.259  0.2764E-06  0.1603E-09  0.2900E+02  0.2900E+02
    -11.184  0.8851E+01  0.8851E+01  0.2967E+02  0.2967E+02
    -11.109  0.3934E+01  0.1533E+01  0.2996E+02  0.2978E+02
    -11.033  0.3569E+02  0.3430E+02  0.3269E+02  0.3237E+02
    -10.958  0.2775E+02  0.2934E+02  0.3484E+02  0.3460E+02
    -10.883  0.2378E+02  0.2046E+02  0.3664E+02  0.3626E+02
    -10.807  0.5221E+01  0.9524E+01  0.3706E+02  0.3700E+02
    -10.732  0.1566E+02  0.1259E+02  0.3824E+02  0.3795E+02
    -10.657  0.8851E+01  0.1390E+02  0.3900E+02  0.3900E+02
    -10.581  0.8853E+01  0.8797E+01  0.3967E+02  0.3966E+02
    -10.506  0.4423E+01  0.4425E+01  0.4000E+02  0.4000E+02
    -10.431  0.1718E+02  0.1387E+02  0.4129E+02  0.4104E+02
    -10.355  0.1318E+02  0.1711E+02  0.4233E+02  0.4233E+02
    -10.280  0.8844E+01  0.8605E+01  0.4300E+02  0.4298E+02
    -10.205  0.8849E+01  0.8851E+01  0.4367E+02  0.4367E+02
    -10.129  0.6096E-12  0.0000E+00  0.4367E+02  0.4367E+02
    -10.054  0.9380E+01  0.8746E+01  0.4437E+02  0.4433E+02
     -9.979  0.1617E+02  0.1364E+02  0.4559E+02  0.4536E+02
     -9.903  0.1430E+02  0.1727E+02  0.4667E+02  0.4667E+02
     -9.828  0.1325E+02  0.1328E+02  0.4767E+02  0.4767E+02
     -9.753  0.2206E+02  0.2051E+02  0.4933E+02  0.4921E+02
     -9.678  0.1066E+02  0.8114E+01  0.5014E+02  0.4994E+02
     -9.602  0.1227E+02  0.1310E+02  0.5107E+02  0.5100E+02
     -9.527  0.1678E+02  0.1708E+02  0.5233E+02  0.5229E+02
     -9.452  0.2653E+02  0.2456E+02  0.5433E+02  0.5418E+02
     -9.376  0.1323E+02  0.1373E+02  0.5533E+02  0.5533E+02
     -9.301  0.2259E+02  0.1057E+02  0.5703E+02  0.5613E+02
     -9.226  0.2512E+02  0.3800E+02  0.5900E+02  0.5900E+02
     -9.150  0.1235E+02  0.8961E+01  0.5993E+02  0.5967E+02
     -9.075  0.2893E+02  0.2959E+02  0.6213E+02  0.6191E+02
     -9.000  0.3323E+02  0.3089E+02  0.6464E+02  0.6427E+02
     -8.924  0.1116E+02  0.8772E+01  0.6551E+02  0.6497E+02
     -8.849  0.1454E+02  0.2206E+02  0.6667E+02  0.6663E+02
     -8.774  0.2159E+02  0.1861E+02  0.6829E+02  0.6807E+02
     -8.698  0.8776E+01  0.8318E+01  0.6899E+02  0.6873E+02
     -8.623  0.1578E+02  0.1489E+02  0.7021E+02  0.6986E+02
     -8.548  0.1437E+02  0.1736E+02  0.7133E+02  0.7124E+02
     -8.472  0.2674E+02  0.2726E+02  0.7335E+02  0.7333E+02
     -8.397  0.1751E+02  0.1745E+02  0.7467E+02  0.7465E+02
     -8.322  0.2400E+02  0.1837E+02  0.7647E+02  0.7605E+02
     -8.246  0.1628E+02  0.2058E+02  0.7774E+02  0.7767E+02
     -8.171  0.1330E+02  0.1322E+02  0.7875E+02  0.7867E+02
     -8.096  0.1662E+02  0.1709E+02  0.8000E+02  0.7996E+02
     -8.020  0.1740E+02  0.1419E+02  0.8132E+02  0.8103E+02
     -7.945  0.4367E+01  0.6942E+01  0.8166E+02  0.8155E+02
     -7.870  0.9310E-08  0.1490E+01  0.8167E+02  0.8167E+02
     -7.794  0.4761E+01  0.4295E+01  0.8203E+02  0.8199E+02
     -7.719  0.1282E+02  0.1194E+02  0.8299E+02  0.8290E+02
     -7.644  0.0000E+00  0.6071E+00  0.8300E+02  0.8300E+02
     -7.568  0.5907E-10  0.9212E-15  0.8300E+02  0.8300E+02
     -7.493  0.1312E+02  0.1201E+02  0.8399E+02  0.8390E+02
     -7.418  0.0000E+00  0.0000E+00  0.8400E+02  0.8400E+02
     -7.343  0.2396E-01  0.1030E-02  0.8400E+02  0.8400E+02
     -7.267  0.4503E+01  0.4426E+01  0.8434E+02  0.8433E+02
     -7.192  0.1338E+02  0.1328E+02  0.8535E+02  0.8533E+02
     -7.117  0.1307E+02  0.1327E+02  0.8633E+02  0.8633E+02
     -7.041  0.5355E+01  0.4582E+01  0.8674E+02  0.8668E+02
     -6.966  0.1232E+02  0.1137E+02  0.8767E+02  0.8753E+02
     -6.891  0.1079E+02  0.9639E+01  0.8848E+02  0.8827E+02
     -6.815  0.1706E+01  0.4909E+01  0.8867E+02  0.8867E+02
     -6.740  0.1075E+02  0.6588E+01  0.8948E+02  0.8916E+02
     -6.665  0.6210E+01  0.1110E+02  0.9000E+02  0.9000E+02
     -6.589  0.1489E+02  0.1170E+02  0.9112E+02  0.9088E+02
     -6.514  0.9711E+01  0.1096E+02  0.9187E+02  0.9179E+02
     -6.439  0.1334E+02  0.1394E+02  0.9288E+02  0.9284E+02
     -6.363  0.1821E+02  0.1377E+02  0.9425E+02  0.9388E+02
     -6.288  0.4316E+02  0.4317E+02  0.9752E+02  0.9716E+02
     -6.213  0.2631E+02  0.2557E+02  0.9952E+02  0.9914E+02
     -6.137  0.2736E+02  0.2928E+02  0.1016E+03  0.1014E+03
     -6.062  0.2952E+02  0.2957E+02  0.1039E+03  0.1036E+03
     -5.987  0.2221E+02  0.2019E+02  0.1056E+03  0.1051E+03
     -5.911  0.2570E+02  0.2856E+02  0.1076E+03  0.1073E+03
     -5.836  0.2231E+02  0.2392E+02  0.1093E+03  0.1091E+03
     -5.761  0.2306E+02  0.2403E+02  0.1111E+03  0.1109E+03
     -5.685  0.3068E+02  0.2863E+02  0.1134E+03  0.1131E+03
     -5.610  0.2510E+02  0.2530E+02  0.1153E+03  0.1151E+03
     -5.535  0.3076E+02  0.2952E+02  0.1176E+03  0.1174E+03
     -5.459  0.2136E+02  0.2361E+02  0.1193E+03  0.1192E+03
     -5.384  0.3430E+02  0.3282E+02  0.1219E+03  0.1217E+03
     -5.309  0.1556E+02  0.1729E+02  0.1231E+03  0.1230E+03
     -5.233  0.3607E+02  0.3333E+02  0.1258E+03  0.1256E+03
     -5.158  0.3377E+02  0.2973E+02  0.1284E+03  0.1279E+03
     -5.083  0.2175E+02  0.2541E+02  0.1301E+03  0.1298E+03
     -5.008  0.3948E+02  0.3985E+02  0.1331E+03  0.1328E+03
     -4.932  0.3230E+02  0.3266E+02  0.1356E+03  0.1353E+03
     -4.857  0.2805E+02  0.2999E+02  0.1378E+03  0.1376E+03
     -4.782  0.2780E+02  0.2698E+02  0.1399E+03  0.1397E+03
     -4.706  0.2013E+02  0.1905E+02  0.1415E+03  0.1412E+03
     -4.631  0.3200E+02  0.3062E+02  0.1439E+03  0.1436E+03
     -4.556  0.1797E+02  0.2059E+02  0.1453E+03  0.1452E+03
     -4.480  0.3329E+02  0.3087E+02  0.1478E+03  0.1476E+03
     -4.405  0.3330E+02  0.2935E+02  0.1503E+03  0.1498E+03
     -4.330  0.3064E+02  0.3222E+02  0.1527E+03  0.1523E+03
     -4.254  0.2436E+02  0.3017E+02  0.1546E+03  0.1546E+03
     -4.179  0.3237E+02  0.2722E+02  0.1571E+03  0.1566E+03
     -4.104  0.2656E+02  0.3123E+02  0.1592E+03  0.1590E+03
     -4.028  0.3269E+02  0.2925E+02  0.1616E+03  0.1613E+03
     -3.953  0.3345E+02  0.3547E+02  0.1642E+03  0.1640E+03
     -3.878  0.2674E+02  0.2524E+02  0.1662E+03  0.1660E+03
     -3.802  0.2855E+02  0.2969E+02  0.1684E+03  0.1683E+03
     -3.727  0.2528E+02  0.2459E+02  0.1704E+03  0.1701E+03
     -3.652  0.2429E+02  0.2512E+02  0.1722E+03  0.1721E+03
     -3.576  0.2232E+02  0.2005E+02  0.1739E+03  0.1736E+03
     -3.501  0.3187E+02  0.3280E+02  0.1763E+03  0.1760E+03
     -3.426  0.1885E+02  0.2063E+02  0.1778E+03  0.1776E+03
     -3.350  0.3079E+02  0.3310E+02  0.1802E+03  0.1801E+03
     -3.275  0.2058E+02  0.1987E+02  0.1817E+03  0.1817E+03
     -3.200  0.2141E+02  0.1888E+02  0.1833E+03  0.1831E+03
     -3.124  0.3264E+02  0.3294E+02  0.1858E+03  0.1856E+03
     -3.049  0.2209E+02  0.2290E+02  0.1875E+03  0.1874E+03
     -2.974  0.2113E+02  0.1836E+02  0.1891E+03  0.1888E+03
     -2.898  0.3475E+02  0.3602E+02  0.1918E+03  0.1916E+03
     -2.823  0.2817E+02  0.2688E+02  0.1939E+03  0.1936E+03
     -2.748  0.2614E+02  0.2676E+02  0.1959E+03  0.1957E+03
     -2.673  0.2812E+02  0.2775E+02  0.1980E+03  0.1978E+03
     -2.597  0.3537E+02  0.3355E+02  0.2007E+03  0.2004E+03
     -2.522  0.3068E+02  0.3147E+02  0.2030E+03  0.2028E+03
     -2.447  0.2472E+02  0.2605E+02  0.2049E+03  0.2047E+03
     -2.371  0.3303E+02  0.3243E+02  0.2074E+03  0.2072E+03
     -2.296  0.2852E+02  0.2692E+02  0.2096E+03  0.2093E+03
     -2.221  0.3989E+02  0.4041E+02  0.2126E+03  0.2123E+03
     -2.145  0.2500E+02  0.2469E+02  0.2145E+03  0.2142E+03
     -2.070  0.3411E+02  0.3530E+02  0.2171E+03  0.2169E+03
     -1.995  0.3273E+02  0.2962E+02  0.2196E+03  0.2191E+03
     -1.919  0.3814E+02  0.4050E+02  0.2226E+03  0.2222E+03
     -1.844  0.4134E+02  0.4167E+02  0.2257E+03  0.2254E+03
     -1.769  0.3595E+02  0.3602E+02  0.2285E+03  0.2281E+03
     -1.693  0.3854E+02  0.3839E+02  0.2314E+03  0.2310E+03
     -1.618  0.4183E+02  0.4035E+02  0.2346E+03  0.2341E+03
     -1.543  0.3062E+02  0.3456E+02  0.2370E+03  0.2367E+03
     -1.467  0.3935E+02  0.3994E+02  0.2400E+03  0.2398E+03
     -1.392  0.3211E+02  0.2921E+02  0.2425E+03  0.2421E+03
     -1.317  0.4315E+02  0.4292E+02  0.2458E+03  0.2453E+03
     -1.241  0.3464E+02  0.3773E+02  0.2484E+03  0.2482E+03
     -1.166  0.4442E+02  0.4240E+02  0.2518E+03  0.2514E+03
     -1.091  0.4005E+02  0.3820E+02  0.2548E+03  0.2544E+03
     -1.015  0.3513E+02  0.3808E+02  0.2575E+03  0.2573E+03
     -0.940  0.4258E+02  0.4111E+02  0.2608E+03  0.2604E+03
     -0.865  0.3698E+02  0.3897E+02  0.2637E+03  0.2633E+03
     -0.789  0.3708E+02  0.3682E+02  0.2666E+03  0.2661E+03
     -0.714  0.3687E+02  0.3861E+02  0.2694E+03  0.2690E+03
     -0.639  0.2924E+02  0.2983E+02  0.2717E+03  0.2713E+03
     -0.563  0.3754E+02  0.4004E+02  0.2746E+03  0.2744E+03
     -0.488  0.3515E+02  0.3522E+02  0.2773E+03  0.2771E+03
     -0.413  0.3471E+02  0.3115E+02  0.2799E+03  0.2795E+03
     -0.338  0.3399E+02  0.3316E+02  0.2825E+03  0.2821E+03
     -0.262  0.2609E+02  0.2673E+02  0.2845E+03  0.2841E+03
     -0.187  0.3453E+02  0.3565E+02  0.2871E+03  0.2868E+03
     -0.112  0.3141E+02  0.2986E+02  0.2895E+03  0.2891E+03
     -0.036  0.2822E+02  0.3089E+02  0.2916E+03  0.2915E+03
      0.039  0.3497E+02  0.2731E+02  0.2942E+03  0.2936E+03
      0.114  0.5068E+02  0.5383E+02  0.2982E+03  0.2977E+03
      0.190  0.3894E+02  0.3765E+02  0.3011E+03  0.3007E+03
      0.265  0.3585E+02  0.3620E+02  0.3038E+03  0.3034E+03
      0.340  0.4212E+02  0.4152E+02  0.3070E+03  0.3066E+03
      0.416  0.3966E+02  0.3882E+02  0.3100E+03  0.3096E+03
      0.491  0.4637E+02  0.4878E+02  0.3136E+03  0.3132E+03
      0.566  0.3260E+02  0.3193E+02  0.3161E+03  0.3157E+03
      0.642  0.3623E+02  0.4034E+02  0.3188E+03  0.3187E+03
      0.717  0.2759E+02  0.2424E+02  0.3209E+03  0.3206E+03
      0.792  0.4788E+02  0.4833E+02  0.3246E+03  0.3242E+03
      0.868  0.3378E+02  0.3042E+02  0.3271E+03  0.3266E+03
      0.943  0.2701E+02  0.2930E+02  0.3293E+03  0.3288E+03
      1.018  0.4761E+02  0.4667E+02  0.3329E+03  0.3324E+03
      1.094  0.3985E+02  0.4266E+02  0.3359E+03  0.3357E+03
      1.169  0.4301E+02  0.3911E+02  0.3392E+03  0.3387E+03
      1.244  0.4243E+02  0.4009E+02  0.3424E+03  0.3417E+03
      1.320  0.4366E+02  0.4567E+02  0.3457E+03  0.3452E+03
      1.395  0.4383E+02  0.4290E+02  0.3491E+03  0.3484E+03
      1.470  0.4742E+02  0.4965E+02  0.3527E+03  0.3522E+03
      1.546  0.4042E+02  0.3962E+02  0.3559E+03  0.3552E+03
      1.621  0.3991E+02  0.4169E+02  0.3589E+03  0.3584E+03
      1.696  0.4272E+02  0.4266E+02  0.3622E+03  0.3616E+03
      1.772  0.4170E+02  0.4377E+02  0.3654E+03  0.3650E+03
      1.847  0.4580E+02  0.4338E+02  0.3689E+03  0.3683E+03
      1.922  0.4616E+02  0.4378E+02  0.3724E+03  0.3716E+03
      1.997  0.4984E+02  0.4686E+02  0.3762E+03  0.3752E+03
      2.073  0.4220E+02  0.4973E+02  0.3794E+03  0.3789E+03
      2.148  0.5482E+02  0.5128E+02  0.3836E+03  0.3828E+03
      2.223  0.3570E+02  0.3980E+02  0.3863E+03  0.3859E+03
      2.299  0.4752E+02  0.4848E+02  0.3899E+03  0.3896E+03
      2.374  0.4697E+02  0.4313E+02  0.3934E+03  0.3929E+03
      2.449  0.4082E+02  0.4204E+02  0.3965E+03  0.3961E+03
      2.525  0.4192E+02  0.3785E+02  0.3997E+03  0.3990E+03
      2.600  0.4869E+02  0.4739E+02  0.4034E+03  0.4027E+03
      2.675  0.5190E+02  0.5570E+02  0.4074E+03  0.4069E+03
      2.751  0.4410E+02  0.4002E+02  0.4107E+03  0.4100E+03
      2.826  0.4322E+02  0.5021E+02  0.4141E+03  0.4138E+03
      2.901  0.3575E+02  0.2915E+02  0.4167E+03  0.4160E+03
      2.977  0.4934E+02  0.5027E+02  0.4206E+03  0.4198E+03
      3.052  0.5302E+02  0.5107E+02  0.4246E+03  0.4237E+03
      3.127  0.3139E+02  0.3717E+02  0.4270E+03  0.4266E+03
      3.203  0.5230E+02  0.5105E+02  0.4310E+03  0.4305E+03
      3.278  0.4126E+02  0.4333E+02  0.4341E+03  0.4338E+03
      3.353  0.4931E+02  0.4321E+02  0.4378E+03  0.4371E+03
      3.429  0.4111E+02  0.4257E+02  0.4410E+03  0.4404E+03
      3.504  0.4533E+02  0.4237E+02  0.4445E+03  0.4436E+03
      3.579  0.4029E+02  0.3865E+02  0.4476E+03  0.4466E+03
      3.655  0.4547E+02  0.4756E+02  0.4510E+03  0.4502E+03
      3.730  0.4126E+02  0.3993E+02  0.4542E+03  0.4533E+03
      3.805  0.4477E+02  0.4368E+02  0.4576E+03  0.4567E+03
      3.881  0.4096E+02  0.4934E+02  0.4608E+03  0.4604E+03
      3.956  0.4020E+02  0.3546E+02  0.4638E+03  0.4632E+03
      4.031  0.4187E+02  0.3648E+02  0.4670E+03  0.4660E+03
      4.106  0.4291E+02  0.4471E+02  0.4703E+03  0.4694E+03
      4.182  0.3985E+02  0.4095E+02  0.4733E+03  0.4726E+03
      4.257  0.4216E+02  0.3652E+02  0.4765E+03  0.4754E+03
      4.332  0.4638E+02  0.4223E+02  0.4801E+03  0.4786E+03
      4.408  0.4846E+02  0.5689E+02  0.4838E+03  0.4829E+03
      4.483  0.4234E+02  0.3701E+02  0.4870E+03  0.4858E+03
      4.558  0.4551E+02  0.4950E+02  0.4905E+03  0.4895E+03
      4.634  0.4997E+02  0.4707E+02  0.4943E+03  0.4931E+03
      4.709  0.4554E+02  0.4887E+02  0.4977E+03  0.4968E+03
      4.784  0.5491E+02  0.4934E+02  0.5019E+03  0.5006E+03
      4.860  0.3922E+02  0.4200E+02  0.5049E+03  0.5039E+03
      4.935  0.4252E+02  0.4592E+02  0.5081E+03  0.5074E+03
      5.010  0.3937E+02  0.3644E+02  0.5111E+03  0.5102E+03
      5.086  0.5427E+02  0.5414E+02  0.5152E+03  0.5143E+03
      5.161  0.3652E+02  0.4186E+02  0.5180E+03  0.5176E+03
      5.236  0.3628E+02  0.3298E+02  0.5208E+03  0.5201E+03
      5.312  0.4103E+02  0.3797E+02  0.5239E+03  0.5230E+03
      5.387  0.4138E+02  0.4520E+02  0.5270E+03  0.5264E+03
      5.462  0.4050E+02  0.3724E+02  0.5301E+03  0.5294E+03
      5.538  0.4349E+02  0.4049E+02  0.5334E+03  0.5325E+03
      5.613  0.3462E+02  0.3932E+02  0.5360E+03  0.5355E+03
      5.688  0.4275E+02  0.3455E+02  0.5392E+03  0.5382E+03
      5.764  0.4010E+02  0.4313E+02  0.5423E+03  0.5414E+03
      5.839  0.4285E+02  0.4374E+02  0.5456E+03  0.5447E+03
      5.914  0.4084E+02  0.3994E+02  0.5487E+03  0.5478E+03
      5.990  0.3729E+02  0.3688E+02  0.5516E+03  0.5506E+03
      6.065  0.4677E+02  0.4864E+02  0.5551E+03  0.5543E+03
      6.140  0.4110E+02  0.4138E+02  0.5583E+03  0.5574E+03
      6.216  0.3397E+02  0.3418E+02  0.5608E+03  0.5600E+03
      6.291  0.3920E+02  0.4159E+02  0.5638E+03  0.5633E+03
      6.366  0.4300E+02  0.3816E+02  0.5671E+03  0.5662E+03
      6.441  0.3051E+02  0.2977E+02  0.5695E+03  0.5685E+03
      6.517  0.3224E+02  0.3686E+02  0.5720E+03  0.5713E+03
      6.592  0.3230E+02  0.3053E+02  0.5745E+03  0.5736E+03
      6.667  0.1979E+02  0.2916E+02  0.5760E+03  0.5758E+03
      6.743  0.0000E+00  0.2213E+01  0.5760E+03  0.5760E+03
      6.818  0.0000E+00  0.0000E+00  0.5760E+03  0.5760E+03
      6.893  0.0000E+00  0.0000E+00  0.5760E+03  0.5760E+03
      6.969  0.0000E+00  0.0000E+00  0.5760E+03  0.5760E+03
      7.044  0.0000E+00  0.0000E+00  0.5760E+03  0.5760E+03
      7.119  0.0000E+00  0.0000E+00  0.5760E+03  0.5760E+03
      7.195  0.0000E+00  0.0000E+00  0.5760E+03  0.5760E+03
      7.270  0.0000E+00  0.0000E+00  0.5760E+03  0.5760E+03
      7.345  0.0000E+00  0.0000E+00  0.5760E+03  0.5760E+03
      7.421  0.0000E+00  0.0000E+00  0.5760E+03  0.5760E+03
      7.496  0.0000E+00  0.0000E+00  0.5760E+03  0.5760E+03
      7.571  0.0000E+00  0.0000E+00  0.5760E+03  0.5760E+03
      7.647  0.0000E+00  0.0000E+00  0.5760E+03  0.5760E+03
      7.722  0.0000E+00  0.0000E+00  0.5760E+03  0.5760E+03
