  48  48   0   0
  0.1668663E+02  0.7680595E-09  0.1629300E-08  0.6400500E-09  0.5000000E-15
  1.000000000000000E-004
  CAR 
 Si and Ge interface calculation         
     10.89417341     -8.17223370  301      7.90324928      1.00000000
     -8.172  0.0000E+00  0.0000E+00  0.0000E+00  0.0000E+00
     -8.109  0.0000E+00  0.0000E+00  0.0000E+00  0.0000E+00
     -8.045  0.0000E+00  0.0000E+00  0.0000E+00  0.0000E+00
     -7.982  0.0000E+00  0.0000E+00  0.0000E+00  0.0000E+00
     -7.918  0.0000E+00  0.0000E+00  0.0000E+00  0.0000E+00
     -7.854  0.0000E+00  0.0000E+00  0.0000E+00  0.0000E+00
     -7.791  0.0000E+00  0.0000E+00  0.0000E+00  0.0000E+00
     -7.727  0.0000E+00  0.0000E+00  0.0000E+00  0.0000E+00
     -7.664  0.0000E+00  0.0000E+00  0.0000E+00  0.0000E+00
     -7.600  0.0000E+00  0.0000E+00  0.0000E+00  0.0000E+00
     -7.537  0.0000E+00  0.0000E+00  0.0000E+00  0.0000E+00
     -7.473  0.0000E+00  0.0000E+00  0.0000E+00  0.0000E+00
     -7.410  0.0000E+00  0.0000E+00  0.0000E+00  0.0000E+00
     -7.346  0.7789E-08  0.0000E+00  0.4950E-09  0.0000E+00
     -7.282  0.1573E+01  0.5435E+00  0.9994E-01  0.3454E-01
     -7.219  0.2379E-05  0.1030E+01  0.1000E+00  0.1000E+00
     -7.155  0.6293E+01  0.3585E+01  0.4999E+00  0.3279E+00
     -7.092  0.2922E-04  0.2708E+01  0.5000E+00  0.5000E+00
     -7.028  0.6294E+01  0.5163E+01  0.9000E+00  0.8282E+00
     -6.965  0.0000E+00  0.1130E+01  0.9000E+00  0.9000E+00
     -6.901  0.0000E+00  0.0000E+00  0.9000E+00  0.9000E+00
     -6.838  0.1957E+01  0.1506E-02  0.1024E+01  0.9001E+00
     -6.774  0.4337E+01  0.5931E+01  0.1300E+01  0.1277E+01
     -6.710  0.5622E+01  0.4153E+00  0.1657E+01  0.1303E+01
     -6.647  0.7198E+01  0.1252E+02  0.2115E+01  0.2099E+01
     -6.583  0.1341E+01  0.1573E+01  0.2200E+01  0.2200E+01
     -6.520  0.3966E+01  0.7404E-02  0.2452E+01  0.2200E+01
     -6.456  0.2328E+01  0.6286E+01  0.2600E+01  0.2600E+01
     -6.393  0.6133E+01  0.3568E+00  0.2990E+01  0.2623E+01
     -6.329  0.9593E+01  0.1218E+02  0.3599E+01  0.3397E+01
     -6.266  0.1239E-03  0.3198E+01  0.3600E+01  0.3600E+01
     -6.202  0.9934E+01  0.5728E+01  0.4231E+01  0.3964E+01
     -6.138  0.5800E+01  0.9187E+01  0.4600E+01  0.4548E+01
     -6.075  0.1235E+02  0.3524E+01  0.5385E+01  0.4772E+01
     -6.011  0.8098E+01  0.1665E+02  0.5900E+01  0.5830E+01
     -5.948  0.1146E-01  0.1098E+01  0.5901E+01  0.5900E+01
     -5.884  0.9428E+01  0.6221E+01  0.6500E+01  0.6295E+01
     -5.821  0.7934E-03  0.3212E+01  0.6500E+01  0.6500E+01
     -5.757  0.9554E+01  0.6060E+01  0.7107E+01  0.6885E+01
     -5.694  0.6179E+01  0.9674E+01  0.7500E+01  0.7500E+01
     -5.630  0.8291E+01  0.1557E+01  0.8027E+01  0.7599E+01
     -5.566  0.4282E+01  0.1102E+02  0.8300E+01  0.8299E+01
     -5.503  0.5577E+01  0.7726E-01  0.8654E+01  0.8305E+01
     -5.439  0.4658E+01  0.7709E+01  0.8950E+01  0.8795E+01
     -5.376  0.1040E+02  0.7830E+01  0.9612E+01  0.9293E+01
     -5.312  0.1240E+02  0.1670E+02  0.1040E+02  0.1035E+02
     -5.249  0.2740E+01  0.7230E+00  0.1057E+02  0.1040E+02
     -5.185  0.6659E+01  0.6666E+01  0.1100E+02  0.1082E+02
     -5.122  0.3188E+01  0.5609E+01  0.1120E+02  0.1118E+02
     -5.058  0.6294E+01  0.4646E+01  0.1160E+02  0.1148E+02
     -4.994  0.4341E-06  0.1960E+01  0.1160E+02  0.1160E+02
     -4.931  0.9279E+01  0.4039E+01  0.1219E+02  0.1186E+02
     -4.867  0.2772E+01  0.6974E+01  0.1237E+02  0.1230E+02
     -4.804  0.1884E+02  0.1244E+02  0.1356E+02  0.1309E+02
     -4.740  0.2109E+01  0.9587E+01  0.1370E+02  0.1370E+02
     -4.677  0.1702E+01  0.6234E-03  0.1381E+02  0.1370E+02
     -4.613  0.9355E+01  0.8661E+01  0.1440E+02  0.1425E+02
     -4.550  0.1141E+02  0.9705E+01  0.1513E+02  0.1487E+02
     -4.486  0.4629E+01  0.8381E+01  0.1542E+02  0.1540E+02
     -4.423  0.1384E+02  0.1363E+02  0.1630E+02  0.1627E+02
     -4.359  0.6286E+01  0.4438E+01  0.1670E+02  0.1655E+02
     -4.295  0.4679E+01  0.6415E+01  0.1700E+02  0.1696E+02
     -4.232  0.3163E+01  0.3785E+01  0.1720E+02  0.1720E+02
     -4.168  0.3106E+01  0.1214E+00  0.1740E+02  0.1721E+02
     -4.105  0.7234E+01  0.8961E+01  0.1786E+02  0.1778E+02
     -4.041  0.5210E+01  0.2880E+01  0.1819E+02  0.1796E+02
     -3.978  0.8265E+01  0.9819E+01  0.1871E+02  0.1859E+02
     -3.914  0.4504E+01  0.6134E+01  0.1900E+02  0.1898E+02
     -3.851  0.3146E+01  0.3007E+01  0.1920E+02  0.1917E+02
     -3.787  0.4553E+00  0.5310E+00  0.1923E+02  0.1920E+02
     -3.723  0.8984E+01  0.8195E+01  0.1980E+02  0.1972E+02
     -3.660  0.1560E+01  0.1247E+01  0.1990E+02  0.1980E+02
     -3.596  0.1130E+02  0.1090E+02  0.2062E+02  0.2049E+02
     -3.533  0.2870E+01  0.4832E+01  0.2080E+02  0.2080E+02
     -3.469  0.5581E+01  0.3154E+01  0.2115E+02  0.2100E+02
     -3.406  0.3384E+01  0.4717E+01  0.2137E+02  0.2130E+02
     -3.342  0.6687E+01  0.5266E+01  0.2179E+02  0.2164E+02
     -3.279  0.4368E+01  0.3606E+01  0.2207E+02  0.2187E+02
     -3.215  0.8138E+01  0.7787E+01  0.2259E+02  0.2236E+02
     -3.151  0.5608E+01  0.4707E+01  0.2295E+02  0.2266E+02
     -3.088  0.1655E+02  0.1904E+02  0.2400E+02  0.2387E+02
     -3.024  0.5800E+01  0.3101E+01  0.2437E+02  0.2407E+02
     -2.961  0.9769E+01  0.1204E+02  0.2499E+02  0.2483E+02
     -2.897  0.2120E+00  0.2615E+01  0.2500E+02  0.2500E+02
     -2.834  0.2748E+01  0.1786E+01  0.2518E+02  0.2511E+02
     -2.770  0.8171E+01  0.7301E+01  0.2570E+02  0.2558E+02
     -2.707  0.9961E+01  0.1104E+02  0.2633E+02  0.2628E+02
     -2.643  0.8934E+01  0.8758E+01  0.2690E+02  0.2684E+02
     -2.579  0.1187E+02  0.7342E+01  0.2765E+02  0.2730E+02
     -2.516  0.2259E+02  0.2004E+02  0.2909E+02  0.2858E+02
     -2.452  0.1618E+02  0.1970E+02  0.3012E+02  0.2983E+02
     -2.389  0.1303E+02  0.1342E+02  0.3095E+02  0.3068E+02
     -2.325  0.1919E+02  0.1421E+02  0.3217E+02  0.3159E+02
     -2.262  0.1392E+02  0.1882E+02  0.3305E+02  0.3278E+02
     -2.198  0.1051E+02  0.9738E+01  0.3372E+02  0.3340E+02
     -2.135  0.1362E+02  0.1241E+02  0.3458E+02  0.3419E+02
     -2.071  0.6600E+01  0.1275E+02  0.3501E+02  0.3500E+02
     -2.007  0.1090E+02  0.9511E+01  0.3570E+02  0.3560E+02
     -1.944  0.1025E+02  0.4077E+01  0.3635E+02  0.3587E+02
     -1.880  0.1561E+02  0.1483E+02  0.3734E+02  0.3681E+02
     -1.817  0.1177E+02  0.1346E+02  0.3809E+02  0.3766E+02
     -1.753  0.1703E+01  0.8433E+01  0.3820E+02  0.3820E+02
     -1.690  0.6628E+01  0.5684E+01  0.3862E+02  0.3856E+02
     -1.626  0.9960E+01  0.1005E+02  0.3925E+02  0.3920E+02
     -1.563  0.2157E+02  0.1054E+02  0.4062E+02  0.3987E+02
     -1.499  0.9755E+01  0.2071E+02  0.4125E+02  0.4119E+02
     -1.435  0.1428E+02  0.1196E+02  0.4215E+02  0.4195E+02
     -1.372  0.6739E+01  0.9333E+01  0.4258E+02  0.4254E+02
     -1.308  0.2002E+02  0.1683E+02  0.4385E+02  0.4361E+02
     -1.245  0.1473E+02  0.1462E+02  0.4479E+02  0.4454E+02
     -1.181  0.9391E+01  0.9420E+01  0.4539E+02  0.4514E+02
     -1.118  0.5203E+01  0.8811E+01  0.4572E+02  0.4570E+02
     -1.054  0.6248E+01  0.4363E+01  0.4612E+02  0.4598E+02
     -0.991  0.1521E+02  0.8218E+01  0.4708E+02  0.4650E+02
     -0.927  0.8718E+01  0.1354E+02  0.4764E+02  0.4736E+02
     -0.863  0.1427E+02  0.1215E+02  0.4855E+02  0.4813E+02
     -0.800  0.1427E+02  0.1928E+02  0.4945E+02  0.4936E+02
     -0.736  0.1285E+02  0.1170E+02  0.5027E+02  0.5010E+02
     -0.673  0.1018E+02  0.1248E+02  0.5092E+02  0.5090E+02
     -0.609  0.1545E+02  0.1335E+02  0.5190E+02  0.5175E+02
     -0.546  0.7678E+01  0.4688E+01  0.5239E+02  0.5204E+02
     -0.482  0.5439E+01  0.6136E+01  0.5273E+02  0.5243E+02
     -0.419  0.8794E+01  0.1051E+02  0.5329E+02  0.5310E+02
     -0.355  0.1067E+02  0.9461E+01  0.5397E+02  0.5371E+02
     -0.291  0.2034E+01  0.6189E+01  0.5410E+02  0.5410E+02
     -0.228  0.6475E+01  0.2907E+01  0.5451E+02  0.5428E+02
     -0.164  0.1092E+02  0.1317E+02  0.5521E+02  0.5512E+02
     -0.101  0.1822E+02  0.8313E+01  0.5636E+02  0.5565E+02
     -0.037  0.1530E+02  0.2073E+02  0.5734E+02  0.5697E+02
      0.026  0.1021E+02  0.1107E+02  0.5799E+02  0.5767E+02
      0.090  0.8059E+01  0.1091E+02  0.5850E+02  0.5836E+02
      0.153  0.1036E+02  0.6528E+01  0.5916E+02  0.5878E+02
      0.217  0.1680E+02  0.1792E+02  0.6023E+02  0.5992E+02
      0.281  0.1720E+02  0.1703E+02  0.6132E+02  0.6100E+02
      0.344  0.1554E+02  0.1375E+02  0.6231E+02  0.6188E+02
      0.408  0.9893E+01  0.1201E+02  0.6294E+02  0.6264E+02
      0.471  0.2684E+02  0.2364E+02  0.6464E+02  0.6414E+02
      0.535  0.1104E+02  0.1690E+02  0.6535E+02  0.6522E+02
      0.598  0.8892E+01  0.3550E+01  0.6591E+02  0.6544E+02
      0.662  0.1094E+02  0.1300E+02  0.6661E+02  0.6627E+02
      0.725  0.1034E+02  0.1289E+02  0.6726E+02  0.6709E+02
      0.789  0.1164E+02  0.1158E+02  0.6800E+02  0.6782E+02
      0.853  0.1581E+02  0.1152E+02  0.6901E+02  0.6856E+02
      0.916  0.9457E+01  0.1641E+02  0.6961E+02  0.6960E+02
      0.980  0.1490E+02  0.1142E+02  0.7056E+02  0.7033E+02
      1.043  0.9216E+01  0.1110E+02  0.7114E+02  0.7103E+02
      1.107  0.1491E+02  0.1365E+02  0.7209E+02  0.7190E+02
      1.170  0.1158E+02  0.1035E+02  0.7283E+02  0.7256E+02
      1.234  0.2373E+02  0.1936E+02  0.7434E+02  0.7379E+02
      1.297  0.1935E+02  0.1820E+02  0.7557E+02  0.7495E+02
      1.361  0.1967E+02  0.2569E+02  0.7682E+02  0.7658E+02
      1.425  0.1658E+02  0.1162E+02  0.7787E+02  0.7732E+02
      1.488  0.1674E+02  0.1646E+02  0.7894E+02  0.7837E+02
      1.552  0.6480E+01  0.1396E+02  0.7935E+02  0.7925E+02
      1.615  0.1021E+02  0.8171E+01  0.8000E+02  0.7977E+02
      1.679  0.1691E+02  0.7978E+01  0.8107E+02  0.8028E+02
      1.742  0.2354E+02  0.3223E+02  0.8257E+02  0.8233E+02
      1.806  0.1252E+02  0.1118E+02  0.8337E+02  0.8304E+02
      1.869  0.9797E+01  0.9508E+01  0.8399E+02  0.8365E+02
      1.933  0.2043E+02  0.1927E+02  0.8529E+02  0.8487E+02
      1.997  0.1200E+02  0.1778E+02  0.8605E+02  0.8600E+02
      2.060  0.2314E+02  0.1376E+02  0.8752E+02  0.8688E+02
      2.124  0.2393E+02  0.2471E+02  0.8904E+02  0.8845E+02
      2.187  0.1251E+02  0.1829E+02  0.8984E+02  0.8961E+02
      2.251  0.2945E+02  0.2599E+02  0.9171E+02  0.9126E+02
      2.314  0.3063E+02  0.2768E+02  0.9366E+02  0.9302E+02
      2.378  0.1615E+02  0.2017E+02  0.9468E+02  0.9430E+02
      2.441  0.1521E+02  0.1558E+02  0.9565E+02  0.9529E+02
      2.505  0.1537E+02  0.1639E+02  0.9663E+02  0.9634E+02
      2.569  0.1623E+02  0.1502E+02  0.9766E+02  0.9729E+02
      2.632  0.7917E+01  0.1041E+02  0.9816E+02  0.9795E+02
      2.696  0.1900E+02  0.1714E+02  0.9937E+02  0.9904E+02
      2.759  0.1421E+02  0.1498E+02  0.1003E+03  0.9999E+02
      2.823  0.1331E+02  0.1315E+02  0.1011E+03  0.1008E+03
      2.886  0.2796E+02  0.2388E+02  0.1029E+03  0.1023E+03
      2.950  0.1429E+02  0.2021E+02  0.1038E+03  0.1036E+03
      3.013  0.2324E+02  0.1944E+02  0.1053E+03  0.1049E+03
      3.077  0.2453E+02  0.2583E+02  0.1068E+03  0.1065E+03
      3.141  0.8203E+01  0.1003E+02  0.1074E+03  0.1071E+03
      3.204  0.2529E+02  0.2067E+02  0.1090E+03  0.1085E+03
      3.268  0.6975E+01  0.1386E+02  0.1094E+03  0.1093E+03
      3.331  0.1573E+02  0.8140E+01  0.1104E+03  0.1099E+03
      3.395  0.8630E+01  0.1515E+02  0.1110E+03  0.1108E+03
      3.458  0.1408E+02  0.1183E+02  0.1119E+03  0.1116E+03
      3.522  0.1462E+02  0.1417E+02  0.1128E+03  0.1125E+03
      3.585  0.1854E+02  0.1715E+02  0.1140E+03  0.1136E+03
      3.649  0.2476E+02  0.2230E+02  0.1155E+03  0.1150E+03
      3.712  0.1792E+02  0.1779E+02  0.1167E+03  0.1161E+03
      3.776  0.1865E+02  0.2367E+02  0.1179E+03  0.1176E+03
      3.840  0.1307E+02  0.9907E+01  0.1187E+03  0.1183E+03
      3.903  0.1340E+02  0.1185E+02  0.1196E+03  0.1190E+03
      3.967  0.1467E+02  0.1944E+02  0.1205E+03  0.1202E+03
      4.030  0.1502E+02  0.1798E+02  0.1214E+03  0.1214E+03
      4.094  0.1707E+02  0.7538E+01  0.1225E+03  0.1219E+03
      4.157  0.1701E+02  0.2332E+02  0.1236E+03  0.1233E+03
      4.221  0.1248E+02  0.1439E+02  0.1244E+03  0.1243E+03
      4.284  0.1569E+02  0.8706E+01  0.1254E+03  0.1248E+03
      4.348  0.1406E+02  0.1704E+02  0.1263E+03  0.1259E+03
      4.412  0.1635E+02  0.1859E+02  0.1273E+03  0.1271E+03
      4.475  0.1553E+02  0.1630E+02  0.1283E+03  0.1281E+03
      4.539  0.2081E+02  0.1082E+02  0.1296E+03  0.1288E+03
      4.602  0.1574E+02  0.2496E+02  0.1306E+03  0.1304E+03
      4.666  0.2610E+02  0.2091E+02  0.1323E+03  0.1317E+03
      4.729  0.1373E+02  0.2053E+02  0.1332E+03  0.1330E+03
      4.793  0.1429E+02  0.1255E+02  0.1341E+03  0.1338E+03
      4.856  0.1027E+02  0.1250E+02  0.1347E+03  0.1346E+03
      4.920  0.1665E+02  0.1237E+02  0.1358E+03  0.1354E+03
      4.984  0.2508E+02  0.2440E+02  0.1374E+03  0.1370E+03
      5.047  0.1729E+02  0.2060E+02  0.1385E+03  0.1383E+03
      5.111  0.2557E+02  0.2650E+02  0.1401E+03  0.1400E+03
      5.174  0.2895E+02  0.2297E+02  0.1420E+03  0.1414E+03
      5.238  0.2233E+02  0.2502E+02  0.1434E+03  0.1430E+03
      5.301  0.2184E+02  0.2646E+02  0.1448E+03  0.1447E+03
      5.365  0.3084E+02  0.2221E+02  0.1467E+03  0.1461E+03
      5.428  0.2045E+02  0.2187E+02  0.1480E+03  0.1475E+03
      5.492  0.2030E+02  0.2230E+02  0.1493E+03  0.1489E+03
      5.556  0.2331E+02  0.2429E+02  0.1508E+03  0.1505E+03
      5.619  0.1193E+02  0.1301E+02  0.1516E+03  0.1513E+03
      5.683  0.1448E+02  0.1399E+02  0.1525E+03  0.1522E+03
      5.746  0.2363E+02  0.1775E+02  0.1540E+03  0.1533E+03
      5.810  0.2210E+02  0.2675E+02  0.1554E+03  0.1550E+03
      5.873  0.2592E+02  0.2671E+02  0.1570E+03  0.1567E+03
      5.937  0.1819E+02  0.1498E+02  0.1582E+03  0.1577E+03
      6.000  0.2950E+02  0.3121E+02  0.1601E+03  0.1596E+03
      6.064  0.1587E+02  0.1786E+02  0.1611E+03  0.1608E+03
      6.128  0.1689E+02  0.9905E+01  0.1621E+03  0.1614E+03
      6.191  0.1581E+02  0.2407E+02  0.1632E+03  0.1629E+03
      6.255  0.2924E+02  0.2235E+02  0.1650E+03  0.1644E+03
      6.318  0.1750E+02  0.2649E+02  0.1661E+03  0.1660E+03
      6.382  0.1296E+02  0.5875E+01  0.1669E+03  0.1664E+03
      6.445  0.1510E+02  0.2014E+02  0.1679E+03  0.1677E+03
      6.509  0.2072E+02  0.1661E+02  0.1692E+03  0.1687E+03
      6.572  0.1723E+02  0.1530E+02  0.1703E+03  0.1697E+03
      6.636  0.1707E+02  0.1995E+02  0.1714E+03  0.1710E+03
      6.700  0.1673E+02  0.1907E+02  0.1725E+03  0.1722E+03
      6.763  0.1211E+02  0.1188E+02  0.1732E+03  0.1730E+03
      6.827  0.1092E+02  0.1130E+02  0.1739E+03  0.1737E+03
      6.890  0.1254E+02  0.9008E+01  0.1747E+03  0.1742E+03
      6.954  0.1291E+02  0.1954E+02  0.1756E+03  0.1755E+03
      7.017  0.1578E+02  0.1314E+02  0.1766E+03  0.1763E+03
      7.081  0.1244E+02  0.8583E+01  0.1773E+03  0.1769E+03
      7.144  0.1140E+02  0.1474E+02  0.1781E+03  0.1778E+03
      7.208  0.1466E+02  0.9117E+01  0.1790E+03  0.1784E+03
      7.272  0.1228E+02  0.1669E+02  0.1798E+03  0.1794E+03
      7.335  0.2117E+02  0.1456E+02  0.1811E+03  0.1804E+03
      7.399  0.2235E+02  0.2805E+02  0.1826E+03  0.1822E+03
      7.462  0.1521E+02  0.1438E+02  0.1835E+03  0.1831E+03
      7.526  0.2229E+02  0.1520E+02  0.1849E+03  0.1840E+03
      7.589  0.2554E+02  0.2582E+02  0.1866E+03  0.1857E+03
      7.653  0.2041E+02  0.2711E+02  0.1879E+03  0.1874E+03
      7.716  0.7503E+01  0.9132E+01  0.1883E+03  0.1880E+03
      7.780  0.1840E+02  0.1330E+02  0.1895E+03  0.1888E+03
      7.844  0.1370E+02  0.2196E+02  0.1904E+03  0.1902E+03
      7.907  0.2243E+02  0.1411E+02  0.1918E+03  0.1911E+03
      7.971  0.8998E+01  0.1497E+02  0.1924E+03  0.1921E+03
      8.034  0.1430E+02  0.1414E+02  0.1933E+03  0.1930E+03
      8.098  0.1361E+02  0.1140E+02  0.1941E+03  0.1937E+03
      8.161  0.2457E+02  0.1864E+02  0.1957E+03  0.1949E+03
      8.225  0.9461E+01  0.1551E+02  0.1963E+03  0.1959E+03
      8.288  0.2093E+02  0.1544E+02  0.1976E+03  0.1968E+03
      8.352  0.1805E+02  0.1869E+02  0.1988E+03  0.1980E+03
      8.416  0.2808E+02  0.3157E+02  0.2006E+03  0.2000E+03
      8.479  0.1861E+02  0.1631E+02  0.2018E+03  0.2011E+03
      8.543  0.2691E+02  0.2635E+02  0.2035E+03  0.2028E+03
      8.606  0.1733E+02  0.2522E+02  0.2046E+03  0.2044E+03
      8.670  0.2711E+02  0.1472E+02  0.2063E+03  0.2053E+03
      8.733  0.2737E+02  0.2940E+02  0.2080E+03  0.2072E+03
      8.797  0.2615E+02  0.2823E+02  0.2097E+03  0.2090E+03
      8.860  0.1704E+02  0.2176E+02  0.2108E+03  0.2103E+03
      8.924  0.3173E+02  0.2351E+02  0.2128E+03  0.2118E+03
      8.988  0.3051E+02  0.3007E+02  0.2147E+03  0.2137E+03
      9.051  0.1966E+02  0.3366E+02  0.2160E+03  0.2159E+03
      9.115  0.2074E+02  0.8313E+01  0.2173E+03  0.2164E+03
      9.178  0.2422E+02  0.3069E+02  0.2188E+03  0.2184E+03
      9.242  0.3047E+02  0.2927E+02  0.2208E+03  0.2202E+03
      9.305  0.1078E+02  0.1890E+02  0.2215E+03  0.2214E+03
      9.369  0.2087E+02  0.1234E+02  0.2228E+03  0.2222E+03
      9.432  0.1437E+02  0.1290E+02  0.2237E+03  0.2230E+03
      9.496  0.2435E+02  0.2365E+02  0.2253E+03  0.2245E+03
      9.560  0.2669E+02  0.2754E+02  0.2270E+03  0.2263E+03
      9.623  0.2622E+02  0.2680E+02  0.2286E+03  0.2280E+03
      9.687  0.2099E+02  0.2114E+02  0.2300E+03  0.2293E+03
      9.750  0.1200E+02  0.1679E+02  0.2307E+03  0.2304E+03
      9.814  0.8009E+01  0.1001E+02  0.2312E+03  0.2310E+03
      9.877  0.8192E+01  0.8108E+01  0.2317E+03  0.2316E+03
      9.941  0.1640E+01  0.3046E+01  0.2319E+03  0.2318E+03
     10.004  0.1377E+01  0.2346E+01  0.2319E+03  0.2319E+03
     10.068  0.9335E+00  0.1573E+01  0.2320E+03  0.2320E+03
     10.132  0.0000E+00  0.0000E+00  0.2320E+03  0.2320E+03
     10.195  0.0000E+00  0.0000E+00  0.2320E+03  0.2320E+03
     10.259  0.0000E+00  0.0000E+00  0.2320E+03  0.2320E+03
     10.322  0.0000E+00  0.0000E+00  0.2320E+03  0.2320E+03
     10.386  0.0000E+00  0.0000E+00  0.2320E+03  0.2320E+03
     10.449  0.0000E+00  0.0000E+00  0.2320E+03  0.2320E+03
     10.513  0.0000E+00  0.0000E+00  0.2320E+03  0.2320E+03
     10.576  0.0000E+00  0.0000E+00  0.2320E+03  0.2320E+03
     10.640  0.0000E+00  0.0000E+00  0.2320E+03  0.2320E+03
     10.704  0.0000E+00  0.0000E+00  0.2320E+03  0.2320E+03
     10.767  0.0000E+00  0.0000E+00  0.2320E+03  0.2320E+03
     10.831  0.0000E+00  0.0000E+00  0.2320E+03  0.2320E+03
     10.894  0.0000E+00  0.0000E+00  0.2320E+03  0.2320E+03
