 vasp.6.4.3 19Mar24 (build Oct 22 2024 11:23:12) complex                        
  
 executed on             LinuxIFC date 2025.06.04  00:28:12
 running   64 mpi-ranks, on    4 nodes
 distrk:  each k-point on   64 cores,    1 groups
 distr:  one band on NCORE=  16 cores,    4 groups


--------------------------------------------------------------------------------------------------------


 INCAR:
   SYSTEM = Si and Ge interface calculation
   ISTART = 0
   ICHARG = 2
   LWAVE = .FALSE.
   LREAL = AUTO
   ENCUT = 700
   ENAUG = 900
   ADDGRID = .TRUE.
   LMAXMIX = 6
   LASPH = .TRUE.
   LMIXTAU = .TRUE.
   NCORE = 16
   NELM = 100
   NBANDS = 116
   EDIFF = 1d-7
   AMIX = 0.6
   ISMEAR = 0
   SIGMA = 0.01
   NELECT = 192
   ISPIN = 2
   NUPDOWN = 1
   LVTOT = .FALSE.
   LVHAR = .TRUE.

 POTCAR:    PAW_PBE Si 05Jan2001                  
 -----------------------------------------------------------------------------
|                                                                             |
|           W    W    AA    RRRRR   N    N  II  N    N   GGGG   !!!           |
|           W    W   A  A   R    R  NN   N  II  NN   N  G    G  !!!           |
|           W    W  A    A  R    R  N N  N  II  N N  N  G       !!!           |
|           W WW W  AAAAAA  RRRRR   N  N N  II  N  N N  G  GGG   !            |
|           WW  WW  A    A  R   R   N   NN  II  N   NN  G    G                |
|           W    W  A    A  R    R  N    N  II  N    N   GGGG   !!!           |
|                                                                             |
|     You use a magnetic or noncollinear calculation, but did not specify     |
|     the initial magnetic moment with the MAGMOM tag. Note that a            |
|     default of 0.021 will be used for all atoms. This ferromagnetic         |
|     setup may break the symmetry of the crystal, in particular it may       |
|     rule out finding an antiferromagnetic solution. Thence, we              |
|     recommend setting the initial magnetic moment manually or verifying     |
|     carefully that this magnetic setup is desired.                          |
|                                                                             |
 -----------------------------------------------------------------------------

 POTCAR:    PAW_PBE Si 05Jan2001                  
   VRHFIN =Si: s2p2                                                                                 
   LEXCH  = PE                                                                                      
   EATOM  =   103.0669 eV,    7.5752 Ry                                                             
                                                                                                    
   TITEL  = PAW_PBE Si 05Jan2001                                                                    
   LULTRA =        F    use ultrasoft PP ?                                                          
   IUNSCR =        1    unscreen: 0-lin 1-nonlin 2-no                                               
   RPACOR =    1.500    partial core radius                                                         
   POMASS =   28.085; ZVAL   =    4.000    mass and valenz                                          
   RCORE  =    1.900    outmost cutoff radius                                                       
   RWIGS  =    2.480; RWIGS  =    1.312    wigner-seitz radius (au A)                               
   ENMAX  =  245.345; ENMIN  =  184.009 eV                                                          
   ICORE  =        2    local potential                                                             
   LCOR   =        T    correct aug charges                                                         
   LPAW   =        T    paw PP                                                                      
   EAUG   =  322.069                                                                                
   DEXC   =    0.000                                                                                
   RMAX   =    1.950    core radius for proj-oper                                                   
   RAUG   =    1.300    factor for augmentation sphere                                              
   RDEP   =    1.993    radius for radial grids                                                     
   RDEPT  =    1.837    core radius for aug-charge                                                  
                                                                                                    
   Atomic configuration                                                                             
    6 entries                                                                                       
     n  l   j            E        occ.                                                              
     1  0  0.50     -1785.8828   2.0000                                                             
     2  0  0.50      -139.4969   2.0000                                                             
     2  1  1.50       -95.5546   6.0000                                                             
     3  0  0.50       -10.8127   2.0000                                                             
     3  1  0.50        -4.0811   2.0000                                                             
     3  2  1.50        -4.0817   0.0000                                                             
   Description                                                                                      
     l       E           TYP  RCUT    TYP  RCUT                                                     
     0    -10.8127223     23  1.900                                                                 
     0     -7.6451159     23  1.900                                                                 
     1     -4.0811372     23  1.900                                                                 
     1      2.4879257     23  1.900                                                                 
     2     -4.0817478      7  1.900                                                                 
  local pseudopotential read in
  partial core-charges read in
  partial kinetic energy density read in
  atomic valenz-charges read in
  non local Contribution for L=           0  read in
    real space projection operators read in
  non local Contribution for L=           0  read in
    real space projection operators read in
  non local Contribution for L=           1  read in
    real space projection operators read in
  non local Contribution for L=           1  read in
    real space projection operators read in
    PAW grid and wavefunctions read in
 
   number of l-projection  operators is LMAX  =           4
   number of lm-projection operators is LMMAX =           8
 
 Optimization of the real space projectors (new method)

 maximal supplied QI-value         = 19.84
 optimisation between [QCUT,QGAM] = [ 13.49, 26.99] = [ 50.98,203.92] Ry 
 Optimized for a Real-space Cutoff    1.07 Angstroem

   l    n(q)    QCUT    max X(q) W(low)/X(q) W(high)/X(q)  e(spline) 
   0      9    13.493   159.560    0.22E-03    0.15E-03    0.72E-07
   0      9    13.493   115.863    0.21E-03    0.15E-03    0.71E-07
   1      8    13.493    88.339    0.15E-03    0.11E-03    0.13E-06
   1      8    13.493    48.592    0.15E-03    0.10E-03    0.13E-06
  PAW_PBE Si 05Jan2001                  :
 energy of atom  1       EATOM= -103.0669
 kinetic energy error for atom=    0.0003 (will be added to EATOM!!)
 
 
 POSCAR: Si+Si
  positions in direct lattice
  No initial velocities read in


 exchange-correlation table for PE
   RHO(1)=    0.500       N(1)  =     2000
   RHO(2)=  100.500       N(2)  =     4000
 


--------------------------------------------------------------------------------------------------------


 ion  position               nearest neighbor table
   1  0.944  0.912  0.000-  48 1.39  39 2.24   9 2.35  15 2.35  30 2.93
   2  0.694  0.523  0.100-  34 2.24  16 2.35  13 2.35  10 2.35
   3  0.444  0.134  0.200-  41 2.24  14 2.35  17 2.35  11 2.35
   4  0.194  0.745  0.300-  37 2.06  36 2.24   7 2.35  15 2.35  18 2.35  12 2.35
   5  0.944  0.357  0.400-  32 2.06   8 2.35  16 2.35
   6  0.694  0.968  0.500-  43 1.39  39 2.06   9 2.35  17 2.35  25 2.93
   7  0.194  0.662  0.000-  36 1.39  46 2.06   4 2.35  20 2.35  42 2.93
   8  0.944  0.273  0.100-  29 2.06   5 2.35  21 2.35
   9  0.694  0.884  0.200-  48 2.06  43 2.24   6 2.35  19 2.35   1 2.35  22 2.35
  10  0.444  0.495  0.300-  26 2.24  20 2.35   2 2.35  23 2.35
  11  0.194  0.107  0.400-  45 2.24  21 2.35  24 2.35   3 2.35
  12  0.944  0.718  0.500-  31 1.39  28 2.24  22 2.35   4 2.35  37 2.93
  13  0.694  0.662  0.000-  42 1.39  28 2.06  22 2.35   2 2.35  36 2.93
  14  0.444  0.273  0.100-  47 2.06  23 2.35   3 2.35
  15  0.194  0.884  0.200-  30 2.06  25 2.24  24 2.35   1 2.35   4 2.35  19 2.35
  16  0.944  0.495  0.300-  44 2.24   5 2.35  20 2.35   2 2.35
  17  0.694  0.107  0.400-  27 2.24   3 2.35  21 2.35   6 2.35
  18  0.444  0.718  0.500-  37 1.39  46 2.24   4 2.35  22 2.35  31 2.93
  19  0.444  0.912  0.000-  30 1.39  33 2.24   9 2.35  15 2.35  48 2.93
  20  0.194  0.523  0.100-  40 2.24  10 2.35  16 2.35   7 2.35
  21  0.944  0.134  0.200-  35 2.24  11 2.35   8 2.35  17 2.35
  22  0.694  0.745  0.300-  31 2.06  42 2.24  13 2.35  12 2.35   9 2.35  18 2.35
  23  0.444  0.357  0.400-  38 2.06  14 2.35  10 2.35
  24  0.194  0.968  0.500-  25 1.39  33 2.06  15 2.35  11 2.35  43 2.93
  25  0.056  0.912  0.500-  24 1.39  15 2.24  39 2.35  33 2.35   6 2.93
  26  0.306  0.523  0.600-  10 2.24  40 2.35  37 2.35  34 2.35
  27  0.556  0.134  0.700-  17 2.24  38 2.35  41 2.35  35 2.35
  28  0.806  0.745  0.800-  13 2.06  12 2.24  31 2.35  42 2.35  39 2.35  36 2.35
  29  0.056  0.357  0.900-   8 2.06  32 2.35  40 2.35
  30  0.306  0.968  1.000-  19 1.39  15 2.06  33 2.35  41 2.35   1 2.93
  31  0.806  0.662  0.500-  12 1.39  22 2.06  28 2.35  44 2.35  18 2.93
  32  0.056  0.273  0.600-   5 2.06  29 2.35  45 2.35
  33  0.306  0.884  0.700-  24 2.06  19 2.24  30 2.35  43 2.35  25 2.35  46 2.35
  34  0.556  0.495  0.800-   2 2.24  44 2.35  47 2.35  26 2.35
  35  0.806  0.107  0.900-  21 2.24  45 2.35  48 2.35  27 2.35
  36  0.056  0.718  0.000-   7 1.39   4 2.24  46 2.35  28 2.35  13 2.93
  37  0.306  0.662  0.500-  18 1.39   4 2.06  46 2.35  26 2.35  12 2.93
  38  0.556  0.273  0.600-  23 2.06  47 2.35  27 2.35
  39  0.806  0.884  0.700-   6 2.06   1 2.24  48 2.35  25 2.35  43 2.35  28 2.35
  40  0.056  0.495  0.800-  20 2.24  29 2.35  26 2.35  44 2.35
  41  0.306  0.107  0.900-   3 2.24  27 2.35  45 2.35  30 2.35
  42  0.556  0.718  0.000-  13 1.39  22 2.24  28 2.35  46 2.35   7 2.93
  43  0.556  0.912  0.500-   6 1.39   9 2.24  33 2.35  39 2.35  24 2.93
  44  0.806  0.523  0.600-  16 2.24  34 2.35  31 2.35  40 2.35
  45  0.056  0.134  0.700-  11 2.24  32 2.35  35 2.35  41 2.35
  46  0.306  0.745  0.800-   7 2.06  18 2.24  37 2.35  36 2.35  33 2.35  42 2.35
  47  0.556  0.357  0.900-  14 2.06  38 2.35  34 2.35
  48  0.806  0.968  1.000-   1 1.39   9 2.06  39 2.35  35 2.35  19 2.93
 
 -----------------------------------------------------------------------------
|                                                                             |
|           W    W    AA    RRRRR   N    N  II  N    N   GGGG   !!!           |
|           W    W   A  A   R    R  NN   N  II  NN   N  G    G  !!!           |
|           W    W  A    A  R    R  N N  N  II  N N  N  G       !!!           |
|           W WW W  AAAAAA  RRRRR   N  N N  II  N  N N  G  GGG   !            |
|           WW  WW  A    A  R   R   N   NN  II  N   NN  G    G                |
|           W    W  A    A  R    R  N    N  II  N    N   GGGG   !!!           |
|                                                                             |
|     The distance between some ions is very small. Please check the          |
|     nearest-neighbor list in the OUTCAR file.                               |
|     I HOPE YOU KNOW WHAT YOU ARE DOING!                                     |
|                                                                             |
 -----------------------------------------------------------------------------

  LATTYP: Found a simple orthorhombic cell.
 ALAT       =     6.4005002980
 B/A-ratio  =     1.1999990761
 C/A-ratio  =     2.5455821435
  
  Lattice vectors:
  
 A1 = (   0.0000000000,   0.0000000000,   6.4005002980)
 A2 = (   7.6805944440,   0.0000000000,   0.0000000000)
 A3 = (   0.0000000000,  16.2929992680,   0.0000000000)


Analysis of symmetry for initial positions (statically):
=====================================================================
 Subroutine PRICEL returns following result:
 
  LATTYP: Found a simple orthorhombic cell.
 ALAT       =     3.8402974524
 B/A-ratio  =     1.6666678499
 C/A-ratio  =     4.2426399178
  
  Lattice vectors:
  
 A1 = (  -3.8402974524,   0.0000000000,   0.0000000000)
 A2 = (   0.0000000000,   0.0000000000,   6.4005002980)
 A3 = (   0.0000000000,  16.2929992680,   0.0000000000)
 
   2 primitive cells build up your supercell.
 

 Routine SETGRP: Setting up the symmetry group for a 
 simple orthorhombic supercell.


 Subroutine GETGRP returns: Found  4 space group operations
 (whereof  1 operations were pure point group operations)
 out of a pool of  8 trial point group operations.


The static configuration has the point symmetry C_1 .
 The point group associated with its full space group is C_2h.


Analysis of symmetry for dynamics (positions and initial velocities):
=====================================================================
 Subroutine PRICEL returns following result:
 
  LATTYP: Found a simple orthorhombic cell.
 ALAT       =     3.8402974524
 B/A-ratio  =     1.6666678499
 C/A-ratio  =     4.2426399178
  
  Lattice vectors:
  
 A1 = (  -3.8402974524,   0.0000000000,   0.0000000000)
 A2 = (   0.0000000000,   0.0000000000,   6.4005002980)
 A3 = (   0.0000000000,  16.2929992680,   0.0000000000)
 
   2 primitive cells build up your supercell.
 

 Routine SETGRP: Setting up the symmetry group for a 
 simple orthorhombic supercell.


 Subroutine GETGRP returns: Found  4 space group operations
 (whereof  1 operations were pure point group operations)
 out of a pool of  8 trial point group operations.


The dynamic configuration has the point symmetry C_1 .
 The point group associated with its full space group is C_2h.


Analysis of structural, dynamic, and magnetic symmetry:
=====================================================================
 Subroutine PRICEL returns following result:
 
  LATTYP: Found a simple orthorhombic cell.
 ALAT       =     3.8402974524
 B/A-ratio  =     1.6666678499
 C/A-ratio  =     4.2426399178
  
  Lattice vectors:
  
 A1 = (  -3.8402974524,   0.0000000000,   0.0000000000)
 A2 = (   0.0000000000,   0.0000000000,   6.4005002980)
 A3 = (   0.0000000000,  16.2929992680,   0.0000000000)
 
   2 primitive cells build up your supercell.
 

 Routine SETGRP: Setting up the symmetry group for a 
 simple orthorhombic supercell.


 Subroutine GETGRP returns: Found  4 space group operations
 (whereof  1 operations were pure point group operations)
 out of a pool of  8 trial point group operations.


The overall configuration has the point symmetry C_1 .
 The point group associated with its full space group is C_2h.


 Subroutine INISYM returns: Found  4 space group operations
 (whereof  1 operations are pure point group operations),
 and found     2 'primitive' translations


----------------------------------------------------------------------------------------

                                     Primitive cell                                     

  volume of cell :     400.4791

  direct lattice vectors                    reciprocal lattice vectors
    -3.840297452  0.000000000  0.000000000    -0.260396496  0.000000000  0.000000000
     0.000000000  0.000000000  6.400500298     0.000000000  0.000000000  0.156237787
     0.000000000 16.292999268  0.000000000     0.000000000  0.061376054  0.000000000

  length of vectors
     3.840297452  6.400500298 16.292999268     0.260396496  0.156237787  0.061376054

  position of ions in fractional coordinates (direct lattice)
     0.112972015  0.000000013  0.912132978
     0.612972045  0.100000024  0.523244023
     0.112972135  0.200000033  0.134355128
     0.612972163  0.299999952  0.745466113
     0.112972373  0.400000036  0.356577158
     0.612972641  0.500000060  0.967688084
     0.612971747  0.000000000  0.662133038
     0.112972015  0.099999987  0.273244023
     0.612971955  0.199999958  0.884355068
     0.112972135  0.299999982  0.495466053
     0.612972401  0.399999917  0.106577039
     0.112972611  0.500000060  0.717687964
     0.887028127  0.500000119  0.912132978
     0.387028195  0.600000024  0.523244023
     0.887027985  0.700000048  0.134355128
     0.387027957  0.800000072  0.745466113
     0.887027747  0.899999976  0.356577158
     0.387027599  0.999999881  0.967688084
     0.387028075  0.500000119  0.662133038
     0.887027985  0.600000024  0.273243994
     0.387027957  0.699999928  0.884355128
     0.887027747  0.800000072  0.495466053
     0.387027837  0.899999857  0.106577039
     0.887027271  0.000000000  0.717687964

  ion indices of the primitive-cell ions
   primitive index   ion index
                 1           1
                 2          20
                 3          21
                 4           4
                 5           5
                 6          24
                 7          13
                 8           8
                 9          15
                10          16
                11          11
                12          12
                13          25
                14          44
                15          45
                16          28
                17          29
                18          48
                19          31
                20          32
                21          39
                22          40
                23          35
                24          36

----------------------------------------------------------------------------------------

 
 
 KPOINTS: Automatic KPOINTS generated             

Automatic generation of k-mesh.
 Grid dimensions read from file:
 generate k-points for:    4    2    5

 Generating k-lattice:

  Cartesian coordinates                     Fractional coordinates (reciprocal lattice)
     0.032549564  0.000000000  0.000000000     0.250000000  0.000000000  0.000000000
     0.000000000  0.030688027  0.000000000     0.000000000  0.500000000  0.000000000
     0.000000000  0.000000000  0.031247557     0.000000000  0.000000000  0.200000000

  Length of vectors
     0.032549564  0.030688027  0.031247557

  Shift w.r.t. Gamma in fractional coordinates (k-lattice)
     0.000000000  0.000000000  0.000000000

 
 Subroutine IBZKPT returns following result:
 ===========================================
 
 Found     18 irreducible k-points:
 
 Following reciprocal coordinates:
            Coordinates               Weight
  0.000000  0.000000  0.000000      1.000000
  0.250000  0.000000  0.000000      2.000000
  0.500000  0.000000  0.000000      1.000000
  0.000000  0.500000  0.000000      1.000000
  0.250000  0.500000  0.000000      2.000000
  0.500000  0.500000  0.000000      1.000000
  0.000000  0.000000  0.200000      2.000000
  0.250000  0.000000  0.200000      4.000000
  0.500000  0.000000  0.200000      2.000000
  0.000000  0.500000  0.200000      2.000000
  0.250000  0.500000  0.200000      4.000000
  0.500000  0.500000  0.200000      2.000000
  0.000000  0.000000  0.400000      2.000000
  0.250000  0.000000  0.400000      4.000000
  0.500000  0.000000  0.400000      2.000000
  0.000000  0.500000  0.400000      2.000000
  0.250000  0.500000  0.400000      4.000000
  0.500000  0.500000  0.400000      2.000000
 
 Following cartesian coordinates:
            Coordinates               Weight
  0.000000  0.000000  0.000000      1.000000
  0.032550  0.000000  0.000000      2.000000
  0.065099  0.000000  0.000000      1.000000
  0.000000  0.030688  0.000000      1.000000
  0.032550  0.030688  0.000000      2.000000
  0.065099  0.030688  0.000000      1.000000
  0.000000  0.000000  0.031248      2.000000
  0.032550  0.000000  0.031248      4.000000
  0.065099  0.000000  0.031248      2.000000
  0.000000  0.030688  0.031248      2.000000
  0.032550  0.030688  0.031248      4.000000
  0.065099  0.030688  0.031248      2.000000
  0.000000  0.000000  0.062495      2.000000
  0.032550  0.000000  0.062495      4.000000
  0.065099  0.000000  0.062495      2.000000
  0.000000  0.030688  0.062495      2.000000
  0.032550  0.030688  0.062495      4.000000
  0.065099  0.030688  0.062495      2.000000
 


--------------------------------------------------------------------------------------------------------




 Dimension of arrays:
   k-points           NKPTS =     18   k-points in BZ     NKDIM =     18   number of bands    NBANDS=    116
   number of dos      NEDOS =    301   number of ions     NIONS =     48
   non local maximal  LDIM  =      4   non local SUM 2l+1 LMDIM =      8
   total plane-waves  NPLWV = 226800
   max r-space proj   IRMAX =   1523   max aug-charges    IRDMAX=  75930
   dimension x,y,z NGX =    50 NGY =  108 NGZ =   42
   dimension x,y,z NGXF=   100 NGYF=  216 NGZF=   84
   support grid    NGXF=   200 NGYF=  432 NGZF=  168
   ions per type =              48
   NGX,Y,Z   is equivalent  to a cutoff of  10.82, 11.02, 10.91 a.u.
   NGXF,Y,Z  is equivalent  to a cutoff of  21.64, 22.04, 21.82 a.u.

 SYSTEM =  Si and Ge interface calculation         
 POSCAR =  Si+Si                                   

 Startparameter for this run:
   NWRITE =      2    write-flag & timer
   PREC   = normal    normal or accurate (medium, high low for compatibility)
   ISTART =      0    job   : 0-new  1-cont  2-samecut
   ICHARG =      2    charge: 1-file 2-atom 10-const
   ISPIN  =      2    spin polarized calculation?
   LNONCOLLINEAR =      F non collinear calculations
   LSORBIT =      F    spin-orbit coupling
   INIWAV =      1    electr: 0-lowe 1-rand  2-diag
   LASPH  =      T    aspherical Exc in radial PAW
 Electronic Relaxation 1
   ENCUT  =  700.0 eV  51.45 Ry    7.17 a.u.  16.57 35.15 13.81*2*pi/ulx,y,z
   ENINI  =  700.0     initial cutoff
   ENAUG  =  900.0 eV  augmentation charge cutoff
   NELM   =    100;   NELMIN=  2; NELMDL= -5     # of ELM steps 
   EDIFF  = 0.1E-06   stopping-criterion for ELM
   LREAL  =      T    real-space projection
   NLSPLINE    = F    spline interpolate recip. space projectors
   LCOMPAT=      F    compatible to vasp.4.4
   GGA_COMPAT  = T    GGA compatible to vasp.4.4-vasp.4.6
   LMAXPAW     = -100 max onsite density
   LMAXMIX     =    6 max onsite mixed and CHGCAR
   VOSKOWN=      0    Vosko Wilk Nusair interpolation
   ROPT   =   -0.00050
 Ionic relaxation
   EDIFFG = 0.1E-05   stopping-criterion for IOM
   NSW    =      0    number of steps for IOM
   NBLOCK =      1;   KBLOCK =      1    inner block; outer block 
   IBRION =     -1    ionic relax: 0-MD 1-quasi-New 2-CG
   NFREE  =      0    steps in history (QN), initial steepest desc. (CG)
   ISIF   =      2    stress and relaxation
   IWAVPR =     10    prediction:  0-non 1-charg 2-wave 3-comb
   ISYM   =      2    0-nonsym 1-usesym 2-fastsym
   LCORR  =      T    Harris-Foulkes like correction to forces

   POTIM  = 0.5000    time-step for ionic-motion
   TEIN   =    0.0    initial temperature
   TEBEG  =    0.0;   TEEND  =   0.0 temperature during run
   SMASS  =  -3.00    Nose mass-parameter (am)
   estimated Nose-frequenzy (Omega)   =  0.10E-29 period in steps = 0.13E+47 mass=  -0.135E-26a.u.
   SCALEE = 1.0000    scale energy and forces
   NPACO  =    256;   APACO  = 10.0  distance and # of slots for P.C.
   PSTRESS=    0.0 pullay stress

  Mass of Ions in am
   POMASS =  28.09
  Ionic Valenz
   ZVAL   =   4.00
  Atomic Wigner-Seitz radii
   RWIGS  =  -1.00
  virtual crystal weights 
   VCA    =   1.00
   NELECT =     192.0000    total number of electrons
   NUPDOWN=       1.0000    fix difference up-down

 DOS related values:
   EMIN   =  10.00;   EMAX   =-10.00  energy-range for DOS
   EFERMI =   0.00;   METHOD = LEGACY      
   ISMEAR =     0;   SIGMA  =   0.01  broadening in eV -4-tet -1-fermi 0-gaus

 Electronic relaxation 2 (details)
   IALGO  =     38    algorithm
   LDIAG  =      T    sub-space diagonalisation (order eigenvalues)
   LSUBROT=      F    optimize rotation matrix (better conditioning)
   TURBO    =      0    0=normal 1=particle mesh
   IRESTART =      0    0=no restart 2=restart with 2 vectors
   NREBOOT  =      0    no. of reboots
   NMIN     =      0    reboot dimension
   EREF     =   0.00    reference energy to select bands
   IMIX   =      4    mixing-type and parameters
     AMIX     =   0.60;   BMIX     =  1.00
     AMIX_MAG =   2.40;   BMIX_MAG =  1.00
     AMIN     =   0.10
     WC   =   100.;   INIMIX=   1;  MIXPRE=   1;  MAXMIX= -45

 Intra band minimization:
   WEIMIN = 0.0000     energy-eigenvalue tresh-hold
   EBREAK =  0.22E-09  absolut break condition
   DEPER  =   0.30     relativ break condition  

   TIME   =   0.40     timestep for ELM

  volume/ion in A,a.u.               =      16.69       112.61
  Fermi-wavevector in a.u.,A,eV,Ry     =   1.016963  1.921782 14.071342  1.034214
  Thomas-Fermi vector in A             =   2.150337
 
 Write flags
   LWAVE        =      F    write WAVECAR
   LDOWNSAMPLE  =      F    k-point downsampling of WAVECAR
   LCHARG       =      T    write CHGCAR
   LVTOT        =      F    write LOCPOT, total local potential
   LVHAR        =      T    write LOCPOT, Hartree potential only
   WRT_POTENTIAL=  hartree ionic  ! write potential to hdf5 file
   LELF         =      F    write electronic localiz. function (ELF)
   LORBIT       =      0    0 simple, 1 ext, 2 COOP (PROOUT), +10 PAW based schemes


 Dipole corrections
   LMONO      =      F    monopole corrections only (constant potential shift)
   LDIPOL     =      F    correct potential (dipole corrections)
   IDIPOL     =      0    1-x, 2-y, 3-z, 4-all directions 
   EPSILON    =  1.0000000 bulk dielectric constant
   LVACPOTAV  =      F  vacuum potentials using an averaging scheme for the charge density
   VACPOTFLAT =  0.1000000 required flatness to determine vacuum potential
 Exchange correlation treatment:
   GGA     = PE    functional components
   XC_C    = 1    coefficients multiplying the functional components
   LIBXC   =     F    Libxc                    
   VOSKOWN =     0    Vosko Wilk Nusair interpolation
   LHFCALC =     F    Hartree Fock is set to
   LHFONE  =     F    Hartree Fock one center treatment
   AEXX    =    0.0000 exact exchange contribution

 Parameters of functionals:
   PE:
     No parameter
 
 Van der Waals corrections
   IVDW    =     0    specifies the selected vdW correction

 Linear response parameters
   LEPSILON=     F    determine dielectric tensor
   LRPA    =     F    only Hartree local field effects (RPA)
   LNABLA  =     F    use nabla operator in PAW spheres
   LVEL    =     F    velocity operator in full k-point grid
   CSHIFT  =0.1000    complex shift for real part using Kramers Kronig
   OMEGAMAX=  -1.0    maximum frequency
   DEG_THRESHOLD= 0.2000000E-02 threshold for treating states as degnerate
   RTIME   =   -0.100 relaxation time in fs
  (WPLASMAI=    0.000 imaginary part of plasma frequency in eV, 0.658/RTIME)
   DFIELD  = 0.0000000 0.0000000 0.0000000 field for delta impulse in time
 
  Optional k-point grid parameters
   LKPOINTS_OPT  =     F    use optional k-point grid
   KPOINTS_OPT_MODE=     1    mode for optional k-point grid
 
 Orbital magnetization related:
   ORBITALMAG=     F  switch on orbital magnetization
   LCHIMAG   =     F  perturbation theory with respect to B field
   DQ        =  0.001000  dq finite difference perturbation B field
   LLRAUG    =     F  two centre corrections for induced B field
   LBONE     =     F  B-component reconstruction in AE one-centre
   LVGVCALC  =     T  calculate vGv susceptibility
   LVGVAPPL  =     F  apply vGv susceptibility instead of pGv for G=0

 Random number generation:
   RANDOM_GENERATOR = DEFAULT
   PCG_SEED         = not used


--------------------------------------------------------------------------------------------------------


 Static calculation
 charge density and potential will be updated during run
 spin polarized calculation
 Variant of blocked Davidson
 Davidson routine will perform the subspace rotation
 perform sub-space diagonalisation
    after iterative eigenvector-optimisation
 modified Broyden-mixing scheme, WC =      100.0
 initial mixing is a Kerker type mixing with AMIX =  0.6000 and BMIX =      1.0000
 Hartree-type preconditioning will be used
 using additional bands           20
 real space projection scheme for non local part
 use partial core corrections
 calculate Harris-corrections to forces 
   (improved forces if not selfconsistent)
 use gradient corrections 
 use of overlap-Matrix (Vanderbilt PP)
 Gauss-broadening in eV      SIGMA  =   0.01


--------------------------------------------------------------------------------------------------------


  energy-cutoff  :      700.00
  volume of cell :      800.96
      direct lattice vectors                 reciprocal lattice vectors
     7.680594444  0.000000000  0.000000000     0.130198256  0.000000000  0.000000000
     0.000000000 16.292999268  0.000000000     0.000000000  0.061376054  0.000000000
     0.000000000  0.000000000  6.400500298     0.000000000  0.000000000  0.156237787

  length of vectors
     7.680594444 16.292999268  6.400500298     0.130198256  0.061376054  0.156237787


 
 k-points in units of 2pi/SCALE and weight: Automatic KPOINTS generated             
   0.00000000  0.00000000  0.00000000       0.025
   0.03254956  0.00000000  0.00000000       0.050
   0.06509913  0.00000000  0.00000000       0.025
   0.00000000  0.03068803  0.00000000       0.025
   0.03254956  0.03068803  0.00000000       0.050
   0.06509913  0.03068803  0.00000000       0.025
   0.00000000  0.00000000  0.03124756       0.050
   0.03254956  0.00000000  0.03124756       0.100
   0.06509913  0.00000000  0.03124756       0.050
   0.00000000  0.03068803  0.03124756       0.050
   0.03254956  0.03068803  0.03124756       0.100
   0.06509913  0.03068803  0.03124756       0.050
   0.00000000  0.00000000  0.06249511       0.050
   0.03254956  0.00000000  0.06249511       0.100
   0.06509913  0.00000000  0.06249511       0.050
   0.00000000  0.03068803  0.06249511       0.050
   0.03254956  0.03068803  0.06249511       0.100
   0.06509913  0.03068803  0.06249511       0.050
 
 k-points in reciprocal lattice and weights: Automatic KPOINTS generated             
   0.00000000  0.00000000  0.00000000       0.025
   0.25000000  0.00000000  0.00000000       0.050
   0.50000000  0.00000000  0.00000000       0.025
   0.00000000  0.50000000  0.00000000       0.025
   0.25000000  0.50000000  0.00000000       0.050
   0.50000000  0.50000000  0.00000000       0.025
   0.00000000  0.00000000  0.20000000       0.050
   0.25000000  0.00000000  0.20000000       0.100
   0.50000000  0.00000000  0.20000000       0.050
   0.00000000  0.50000000  0.20000000       0.050
   0.25000000  0.50000000  0.20000000       0.100
   0.50000000  0.50000000  0.20000000       0.050
   0.00000000  0.00000000  0.40000000       0.050
   0.25000000  0.00000000  0.40000000       0.100
   0.50000000  0.00000000  0.40000000       0.050
   0.00000000  0.50000000  0.40000000       0.050
   0.25000000  0.50000000  0.40000000       0.100
   0.50000000  0.50000000  0.40000000       0.050
 
 position of ions in fractional coordinates (direct lattice) 
   0.94351405  0.91213298  0.00000001
   0.69351399  0.52324402  0.09999999
   0.44351399  0.13435513  0.20000003
   0.19351393  0.74546611  0.29999995
   0.94351387  0.35657716  0.40000004
   0.69351375  0.96768785  0.49999988
   0.19351408  0.66213304  0.00000000
   0.94351405  0.27324402  0.09999999
   0.69351405  0.88435513  0.19999997
   0.44351387  0.49546605  0.29999998
   0.19351381  0.10657704  0.39999992
   0.94351375  0.71768796  0.50000006
   0.69351417  0.66213304  0.00000000
   0.44351405  0.27324399  0.09999997
   0.19351403  0.88435507  0.19999996
   0.94351399  0.49546605  0.29999998
   0.69351387  0.10657704  0.39999992
   0.44351381  0.71768796  0.49999997
   0.44351408  0.91213298  0.00000001
   0.19351399  0.52324402  0.10000002
   0.94351399  0.13435513  0.20000003
   0.69351399  0.74546611  0.29999995
   0.44351393  0.35657704  0.40000004
   0.19351369  0.96768808  0.50000006
   0.05648594  0.91213298  0.50000012
   0.30648601  0.52324402  0.60000002
   0.55648601  0.13435513  0.70000005
   0.80648607  0.74546611  0.80000007
   0.05648613  0.35657716  0.89999998
   0.30648625  0.96768785  0.99999988
   0.80648601  0.66213304  0.50000012
   0.05648601  0.27324399  0.60000002
   0.30648601  0.88435513  0.69999993
   0.55648625  0.49546605  0.80000007
   0.80648613  0.10657704  0.89999986
   0.05648637  0.71768796  0.00000000
   0.30648601  0.66213304  0.50000012
   0.55648601  0.27324402  0.60000002
   0.80648607  0.88435513  0.69999993
   0.05648613  0.49546605  0.80000007
   0.30648613  0.10657704  0.89999986
   0.55648625  0.71768796  0.00000000
   0.55648595  0.91213298  0.50000012
   0.80648595  0.52324402  0.60000002
   0.05648601  0.13435513  0.70000005
   0.30648601  0.74546611  0.80000007
   0.55648637  0.35657704  0.89999986
   0.80648625  0.96768808  0.99999988
 
 position of ions in cartesian coordinates  (Angst):
   7.24674876 14.86138194  0.00000008
   5.32659969  8.52521448  0.64004995
   3.40645108  2.18904800  1.28010027
   1.48630202 12.14587883  1.92014978
   7.24674739  5.80971137  2.56020035
   5.32659786 15.76653735  3.20024939
   1.48630316 10.78813310  0.00000000
   7.24674876  4.45196467  0.64004995
   5.32660015 14.40879745  1.28009989
   3.40645017  8.07262804  1.92014997
   1.48630110  1.73645962  2.56019959
   7.24674647 11.69328947  3.20025053
   5.32660107 10.78813310  0.00000000
   3.40645154  4.45196419  0.64004985
   1.48630281 14.40879648  1.28009979
   7.24674830  8.07262804  1.92014997
   5.32659878  1.73645962  2.56019959
   3.40644971 11.69328947  3.20024996
   3.40645177 14.86138194  0.00000005
   1.48630247  8.52521448  0.64005018
   7.24674830  2.18904800  1.28010027
   5.32659969 12.14587883  1.92014978
   3.40645063  5.80970944  2.56020035
   1.48630018 15.76654124  3.20025053
   0.43384560 14.86138194  3.20025091
   2.35399475  8.52521448  3.84030033
   4.27414336  2.18904800  4.48035052
   6.19429243 12.14587883  5.12040070
   0.43384706  5.80971137  5.76045011
   2.35399658 15.76653735  6.40049954
   6.19429198 10.78813310  3.20025091
   0.43384614  4.45196419  3.84030033
   2.35399475 14.40879745  4.48034975
   4.27414519  8.07262804  5.12040070
   6.19429289  1.73645962  5.76044935
   0.43384888 11.69328947  0.00000000
   2.35399475 10.78813310  3.20025091
   4.27414336  4.45196467  3.84030033
   6.19429243 14.40879745  4.48034975
   0.43384706  8.07262804  5.12040070
   2.35399567  1.73645962  5.76044935
   4.27414519 11.69328947  0.00000000
   4.27414290 14.86138194  3.20025091
   6.19429151  8.52521448  3.84030033
   0.43384614  2.18904800  4.48035052
   2.35399475 12.14587883  5.12040070
   4.27414611  5.80970944  5.76044935
   6.19429380 15.76654124  6.40049954
 


--------------------------------------------------------------------------------------------------------


 k-point     1 :   0.0000 0.0000 0.0000  plane waves:   33709
 k-point     2 :   0.2500 0.0000 0.0000  plane waves:   33691
 k-point     3 :   0.5000 0.0000 0.0000  plane waves:   33654
 k-point     4 :   0.0000 0.5000 0.0000  plane waves:   33722
 k-point     5 :   0.2500 0.5000 0.0000  plane waves:   33712
 k-point     6 :   0.5000 0.5000 0.0000  plane waves:   33612
 k-point     7 :   0.0000 0.0000 0.2000  plane waves:   33686
 k-point     8 :   0.2500 0.0000 0.2000  plane waves:   33664
 k-point     9 :   0.5000 0.0000 0.2000  plane waves:   33672
 k-point    10 :   0.0000 0.5000 0.2000  plane waves:   33708
 k-point    11 :   0.2500 0.5000 0.2000  plane waves:   33678
 k-point    12 :   0.5000 0.5000 0.2000  plane waves:   33660
 k-point    13 :   0.0000 0.0000 0.4000  plane waves:   33656
 k-point    14 :   0.2500 0.0000 0.4000  plane waves:   33693
 k-point    15 :   0.5000 0.0000 0.4000  plane waves:   33714
 k-point    16 :   0.0000 0.5000 0.4000  plane waves:   33654
 k-point    17 :   0.2500 0.5000 0.4000  plane waves:   33706
 k-point    18 :   0.5000 0.5000 0.4000  plane waves:   33688

 maximum and minimum number of plane-waves per node :      2132     2078

 maximum number of plane-waves:     33722
 maximum index in each direction: 
   IXMAX=   16   IYMAX=   35   IZMAX=   13
   IXMIN=  -17   IYMIN=  -35   IZMIN=  -14


 real space projection operators:
  total allocation   :       4297.31 KBytes
  max/ min on nodes  :        353.75        248.25


 parallel 3D FFT for wavefunctions:
    minimum data exchange during FFTs selected (reduces bandwidth)
 parallel 3D FFT for charge:
    minimum data exchange during FFTs selected (reduces bandwidth)


 total amount of memory used by VASP MPI-rank0    77350. kBytes
=======================================================================

   base      :      30000. kBytes
   nonlr-proj:       1640. kBytes
   fftplans  :       5619. kBytes
   grid      :       4126. kBytes
   one-center:         18. kBytes
   wavefun   :      35947. kBytes
 
     INWAV:  cpu time      0.0000: real time      0.0002
 Broyden mixing: mesh for mixing (old mesh)
   NGX = 33   NGY = 71   NGZ = 27
  (NGX  =100   NGY  =216   NGZ  = 84)
  gives a total of  63261 points

 initial charge density was supplied:
 charge density of overlapping atoms calculated
 number of electron     192.0000000 magnetization       1.0000000
 keeping initial charge density in first step


--------------------------------------------------------------------------------------------------------


 Maximum index for non-local projection operator          283
 Maximum index for augmentation-charges         3837 (set IRDMAX)


--------------------------------------------------------------------------------------------------------


 First call to EWALD:  gamma=   0.191
 Maximum number of real-space cells 3x 2x 4
 Maximum number of reciprocal cells 2x 4x 2

    FEWALD:  cpu time      0.0021: real time      0.0021


--------------------------------------- Ionic step        1  -------------------------------------------




--------------------------------------- Iteration      1(   1)  ---------------------------------------


    POTLOK:  cpu time      0.0738: real time      0.0747
    SETDIJ:  cpu time      0.2579: real time      0.2588
     EDDAV:  cpu time      5.4218: real time      5.4642
       DOS:  cpu time      0.0023: real time      0.0023
    --------------------------------------------
      LOOP:  cpu time      5.7559: real time      5.8001

 eigenvalue-minimisations  :  8352
 total energy-change (2. order) : 0.8991522E+03  (-0.9214480E+04)
 number of electron     192.0000000 magnetization       1.0000000
 augmentation part      192.0000000 magnetization       1.0000000

 Free energy of the ion-electron system (eV)
  ---------------------------------------------------
  alpha Z        PSCENC =        96.83384691
  Ewald energy   TEWEN  =     -4929.92052798
  -Hartree energ DENC   =      -880.61959112
  -exchange      EXHF   =         0.00000000
  -V(xc)+E(xc)   XCENC  =      -426.18662356
  PAW double counting   =      4229.94053997    -3385.46287860
  entropy T*S    EENTRO =        -0.00055766
  eigenvalues    EBANDS =      1247.37002040
  atomic energy  EATOM  =      4947.19793617
  Solvation  Ediel_sol  =         0.00000000
  ---------------------------------------------------
  free energy    TOTEN  =       899.15216452 eV

  energy without entropy =      899.15272218  energy(sigma->0) =      899.15244335


--------------------------------------------------------------------------------------------------------




--------------------------------------- Iteration      1(   2)  ---------------------------------------


     EDDAV:  cpu time      6.1719: real time      6.2189
       DOS:  cpu time      0.0020: real time      0.0021
    --------------------------------------------
      LOOP:  cpu time      6.1739: real time      6.2209

 eigenvalue-minimisations  :  9944
 total energy-change (2. order) :-0.9298911E+03  (-0.8957119E+03)
 number of electron     192.0000000 magnetization       1.0000000
 augmentation part      192.0000000 magnetization       1.0000000

 Free energy of the ion-electron system (eV)
  ---------------------------------------------------
  alpha Z        PSCENC =        96.83384691
  Ewald energy   TEWEN  =     -4929.92052798
  -Hartree energ DENC   =      -880.61959112
  -exchange      EXHF   =         0.00000000
  -V(xc)+E(xc)   XCENC  =      -426.18662356
  PAW double counting   =      4229.94053997    -3385.46287860
  entropy T*S    EENTRO =        -0.00102502
  eigenvalues    EBANDS =       317.47936252
  atomic energy  EATOM  =      4947.19793617
  Solvation  Ediel_sol  =         0.00000000
  ---------------------------------------------------
  free energy    TOTEN  =       -30.73896071 eV

  energy without entropy =      -30.73793569  energy(sigma->0) =      -30.73844820


--------------------------------------------------------------------------------------------------------




--------------------------------------- Iteration      1(   3)  ---------------------------------------


     EDDAV:  cpu time      6.5168: real time      6.5683
       DOS:  cpu time      0.0017: real time      0.0017
    --------------------------------------------
      LOOP:  cpu time      6.5186: real time      6.5700

 eigenvalue-minimisations  : 10768
 total energy-change (2. order) :-0.8554845E+02  (-0.8187696E+02)
 number of electron     192.0000000 magnetization       1.0000000
 augmentation part      192.0000000 magnetization       1.0000000

 Free energy of the ion-electron system (eV)
  ---------------------------------------------------
  alpha Z        PSCENC =        96.83384691
  Ewald energy   TEWEN  =     -4929.92052798
  -Hartree energ DENC   =      -880.61959112
  -exchange      EXHF   =         0.00000000
  -V(xc)+E(xc)   XCENC  =      -426.18662356
  PAW double counting   =      4229.94053997    -3385.46287860
  entropy T*S    EENTRO =        -0.00073730
  eigenvalues    EBANDS =       231.93062395
  atomic energy  EATOM  =      4947.19793617
  Solvation  Ediel_sol  =         0.00000000
  ---------------------------------------------------
  free energy    TOTEN  =      -116.28741157 eV

  energy without entropy =     -116.28667426  energy(sigma->0) =     -116.28704292


--------------------------------------------------------------------------------------------------------




--------------------------------------- Iteration      1(   4)  ---------------------------------------


     EDDAV:  cpu time      6.5935: real time      6.6487
       DOS:  cpu time      0.0018: real time      0.0018
    --------------------------------------------
      LOOP:  cpu time      6.5953: real time      6.6505

 eigenvalue-minimisations  : 10792
 total energy-change (2. order) :-0.4368802E+01  (-0.4265047E+01)
 number of electron     192.0000000 magnetization       1.0000000
 augmentation part      192.0000000 magnetization       1.0000000

 Free energy of the ion-electron system (eV)
  ---------------------------------------------------
  alpha Z        PSCENC =        96.83384691
  Ewald energy   TEWEN  =     -4929.92052798
  -Hartree energ DENC   =      -880.61959112
  -exchange      EXHF   =         0.00000000
  -V(xc)+E(xc)   XCENC  =      -426.18662356
  PAW double counting   =      4229.94053997    -3385.46287860
  entropy T*S    EENTRO =        -0.00070581
  eigenvalues    EBANDS =       227.56179062
  atomic energy  EATOM  =      4947.19793617
  Solvation  Ediel_sol  =         0.00000000
  ---------------------------------------------------
  free energy    TOTEN  =      -120.65621341 eV

  energy without entropy =     -120.65550760  energy(sigma->0) =     -120.65586050


--------------------------------------------------------------------------------------------------------




--------------------------------------- Iteration      1(   5)  ---------------------------------------


     EDDAV:  cpu time      6.5473: real time      6.5978
       DOS:  cpu time      0.0018: real time      0.0018
    CHARGE:  cpu time      0.3625: real time      0.3641
    MIXING:  cpu time      0.0037: real time      0.0037
    --------------------------------------------
      LOOP:  cpu time      6.9153: real time      6.9674

 eigenvalue-minimisations  : 10888
 total energy-change (2. order) :-0.1674335E+00  (-0.1660693E+00)
 number of electron     191.9999998 magnetization       1.0000000
 augmentation part      -13.1573633 magnetization      -0.0374077

 Broyden mixing:
  rms(total) = 0.36645E+01    rms(broyden)= 0.36645E+01
  rms(prec ) = 0.43280E+01
  weight for this iteration     100.00

 Free energy of the ion-electron system (eV)
  ---------------------------------------------------
  alpha Z        PSCENC =        96.83384691
  Ewald energy   TEWEN  =     -4929.92052798
  -Hartree energ DENC   =      -880.61959112
  -exchange      EXHF   =         0.00000000
  -V(xc)+E(xc)   XCENC  =      -426.18662356
  PAW double counting   =      4229.94053997    -3385.46287860
  entropy T*S    EENTRO =        -0.00072420
  eigenvalues    EBANDS =       227.39437554
  atomic energy  EATOM  =      4947.19793617
  Solvation  Ediel_sol  =         0.00000000
  ---------------------------------------------------
  free energy    TOTEN  =      -120.82364688 eV

  energy without entropy =     -120.82292268  energy(sigma->0) =     -120.82328478


--------------------------------------------------------------------------------------------------------




--------------------------------------- Iteration      1(   6)  ---------------------------------------


    POTLOK:  cpu time      0.0571: real time      0.0581
    SETDIJ:  cpu time      0.2575: real time      0.2586
     EDDAV:  cpu time      6.8716: real time      6.9232
       DOS:  cpu time      0.0017: real time      0.0176
    CHARGE:  cpu time      0.3452: real time      0.3554
    MIXING:  cpu time      0.0018: real time      0.0018
    --------------------------------------------
      LOOP:  cpu time      7.5350: real time      7.6148

 eigenvalue-minimisations  : 11452
 total energy-change (2. order) : 0.2099899E+02  (-0.1639449E+02)
 number of electron     191.9999998 magnetization       1.0000000
 augmentation part      -12.4043393 magnetization      -0.0455438

 Broyden mixing:
  rms(total) = 0.21290E+01    rms(broyden)= 0.21290E+01
  rms(prec ) = 0.43779E+01
  weight for this iteration     100.00

 eigenvalues of (default mixing * dielectric matrix)
  average eigenvalue GAMMA=   1.0909
  1.0909

 Free energy of the ion-electron system (eV)
  ---------------------------------------------------
  alpha Z        PSCENC =        96.83384691
  Ewald energy   TEWEN  =     -4929.92052798
  -Hartree energ DENC   =     -1040.81263361
  -exchange      EXHF   =         0.00000000
  -V(xc)+E(xc)   XCENC  =      -414.22788934
  PAW double counting   =     13323.09434010   -12487.04670092
  entropy T*S    EENTRO =        -0.00100214
  eigenvalues    EBANDS =       405.05797706
  atomic energy  EATOM  =      4947.19793617
  Solvation  Ediel_sol  =         0.00000000
  ---------------------------------------------------
  free energy    TOTEN  =       -99.82465376 eV

  energy without entropy =      -99.82365162  energy(sigma->0) =      -99.82415269


--------------------------------------------------------------------------------------------------------




--------------------------------------- Iteration      1(   7)  ---------------------------------------


    POTLOK:  cpu time      0.0578: real time      0.0583
    SETDIJ:  cpu time      0.2592: real time      0.2601
     EDDAV:  cpu time      6.9246: real time      6.9838
       DOS:  cpu time      0.0017: real time      0.0145
    CHARGE:  cpu time      0.3454: real time      0.3586
    MIXING:  cpu time      0.0020: real time      0.0020
    --------------------------------------------
      LOOP:  cpu time      7.5907: real time      7.6772

 eigenvalue-minimisations  : 11592
 total energy-change (2. order) : 0.5450864E+01  (-0.1582184E+02)
 number of electron     191.9999998 magnetization       1.0000000
 augmentation part      -12.3502018 magnetization      -0.0366397

 Broyden mixing:
  rms(total) = 0.18126E+01    rms(broyden)= 0.18126E+01
  rms(prec ) = 0.26226E+01
  weight for this iteration     100.00

 eigenvalues of (default mixing * dielectric matrix)
  average eigenvalue GAMMA=   0.7285
  1.1789  0.2780

 Free energy of the ion-electron system (eV)
  ---------------------------------------------------
  alpha Z        PSCENC =        96.83384691
  Ewald energy   TEWEN  =     -4929.92052798
  -Hartree energ DENC   =      -992.64456175
  -exchange      EXHF   =         0.00000000
  -V(xc)+E(xc)   XCENC  =      -412.85299828
  PAW double counting   =     17356.47562310   -16521.51521873
  entropy T*S    EENTRO =        -0.00115669
  eigenvalues    EBANDS =       362.05326762
  atomic energy  EATOM  =      4947.19793617
  Solvation  Ediel_sol  =         0.00000000
  ---------------------------------------------------
  free energy    TOTEN  =       -94.37378963 eV

  energy without entropy =      -94.37263294  energy(sigma->0) =      -94.37321128


--------------------------------------------------------------------------------------------------------




--------------------------------------- Iteration      1(   8)  ---------------------------------------


    POTLOK:  cpu time      0.0575: real time      0.0582
    SETDIJ:  cpu time      0.2598: real time      0.2610
     EDDAV:  cpu time      6.2743: real time      6.3218
       DOS:  cpu time      0.0017: real time      0.0017
    CHARGE:  cpu time      0.3454: real time      0.3469
    MIXING:  cpu time      0.0019: real time      0.0019
    --------------------------------------------
      LOOP:  cpu time      6.9406: real time      6.9915

 eigenvalue-minimisations  : 10128
 total energy-change (2. order) : 0.2460218E+01  (-0.4525682E+01)
 number of electron     191.9999998 magnetization       1.0000000
 augmentation part      -12.4288112 magnetization      -0.0404758

 Broyden mixing:
  rms(total) = 0.65667E+00    rms(broyden)= 0.65667E+00
  rms(prec ) = 0.75489E+00
  weight for this iteration     100.00

 eigenvalues of (default mixing * dielectric matrix)
  average eigenvalue GAMMA=   0.8782
  1.4526  0.8503  0.3316

 Free energy of the ion-electron system (eV)
  ---------------------------------------------------
  alpha Z        PSCENC =        96.83384691
  Ewald energy   TEWEN  =     -4929.92052798
  -Hartree energ DENC   =     -1003.81695453
  -exchange      EXHF   =         0.00000000
  -V(xc)+E(xc)   XCENC  =      -411.20462206
  PAW double counting   =     25162.97066020   -24329.52869446
  entropy T*S    EENTRO =        -0.00093174
  eigenvalues    EBANDS =       375.55571558
  atomic energy  EATOM  =      4947.19793617
  Solvation  Ediel_sol  =         0.00000000
  ---------------------------------------------------
  free energy    TOTEN  =       -91.91357190 eV

  energy without entropy =      -91.91264016  energy(sigma->0) =      -91.91310603


--------------------------------------------------------------------------------------------------------




--------------------------------------- Iteration      1(   9)  ---------------------------------------


    POTLOK:  cpu time      0.0571: real time      0.0585
    SETDIJ:  cpu time      0.2604: real time      0.2617
     EDDAV:  cpu time      6.0665: real time      6.1117
       DOS:  cpu time      0.0018: real time      0.0018
    CHARGE:  cpu time      0.3472: real time      0.3489
    MIXING:  cpu time      0.0023: real time      0.0023
    --------------------------------------------
      LOOP:  cpu time      6.7353: real time      6.7849

 eigenvalue-minimisations  :  9800
 total energy-change (2. order) : 0.2648350E+00  (-0.6184195E+00)
 number of electron     191.9999998 magnetization       1.0000000
 augmentation part      -12.4942086 magnetization      -0.0435465

 Broyden mixing:
  rms(total) = 0.21503E+00    rms(broyden)= 0.21503E+00
  rms(prec ) = 0.23798E+00
  weight for this iteration     100.00

 eigenvalues of (default mixing * dielectric matrix)
  average eigenvalue GAMMA=   0.8747
  1.5253  0.3359  0.8189  0.8189

 Free energy of the ion-electron system (eV)
  ---------------------------------------------------
  alpha Z        PSCENC =        96.83384691
  Ewald energy   TEWEN  =     -4929.92052798
  -Hartree energ DENC   =     -1008.06664392
  -exchange      EXHF   =         0.00000000
  -V(xc)+E(xc)   XCENC  =      -409.98625810
  PAW double counting   =     29565.42192350   -28733.23981238
  entropy T*S    EENTRO =        -0.00137320
  eigenvalues    EBANDS =       380.11217211
  atomic energy  EATOM  =      4947.19793617
  Solvation  Ediel_sol  =         0.00000000
  ---------------------------------------------------
  free energy    TOTEN  =       -91.64873691 eV

  energy without entropy =      -91.64736371  energy(sigma->0) =      -91.64805031


--------------------------------------------------------------------------------------------------------




--------------------------------------- Iteration      1(  10)  ---------------------------------------


    POTLOK:  cpu time      0.0574: real time      0.0580
    SETDIJ:  cpu time      0.2589: real time      0.2598
     EDDAV:  cpu time      6.1449: real time      6.1918
       DOS:  cpu time      0.0018: real time      0.0018
    CHARGE:  cpu time      0.3461: real time      0.3476
    MIXING:  cpu time      0.0029: real time      0.0029
    --------------------------------------------
      LOOP:  cpu time      6.8121: real time      6.8619

 eigenvalue-minimisations  :  9912
 total energy-change (2. order) :-0.3063041E-01  (-0.9837488E-01)
 number of electron     191.9999998 magnetization       1.0000000
 augmentation part      -12.5040428 magnetization      -0.0437448

 Broyden mixing:
  rms(total) = 0.15845E+00    rms(broyden)= 0.15845E+00
  rms(prec ) = 0.16153E+00
  weight for this iteration     100.00

 eigenvalues of (default mixing * dielectric matrix)
  average eigenvalue GAMMA=   0.8333
  1.4130  0.9279  0.9279  0.3454  0.5523

 Free energy of the ion-electron system (eV)
  ---------------------------------------------------
  alpha Z        PSCENC =        96.83384691
  Ewald energy   TEWEN  =     -4929.92052798
  -Hartree energ DENC   =     -1010.11410813
  -exchange      EXHF   =         0.00000000
  -V(xc)+E(xc)   XCENC  =      -409.65396247
  PAW double counting   =     30175.86368637   -29344.13617836
  entropy T*S    EENTRO =        -0.00090879
  eigenvalues    EBANDS =       382.25084896
  atomic energy  EATOM  =      4947.19793617
  Solvation  Ediel_sol  =         0.00000000
  ---------------------------------------------------
  free energy    TOTEN  =       -91.67936732 eV

  energy without entropy =      -91.67845853  energy(sigma->0) =      -91.67891293


--------------------------------------------------------------------------------------------------------




--------------------------------------- Iteration      1(  11)  ---------------------------------------


    POTLOK:  cpu time      0.0579: real time      0.0588
    SETDIJ:  cpu time      0.2604: real time      0.2613
     EDDAV:  cpu time      6.3579: real time      6.4061
       DOS:  cpu time      0.0018: real time      0.0018
    CHARGE:  cpu time      0.3451: real time      0.3466
    MIXING:  cpu time      0.0022: real time      0.0022
    --------------------------------------------
      LOOP:  cpu time      7.0253: real time      7.0768

 eigenvalue-minimisations  : 10344
 total energy-change (2. order) :-0.4322092E-02  (-0.7805990E-02)
 number of electron     191.9999998 magnetization       1.0000000
 augmentation part      -12.5068853 magnetization      -0.0438629

 Broyden mixing:
  rms(total) = 0.11994E+00    rms(broyden)= 0.11994E+00
  rms(prec ) = 0.12353E+00
  weight for this iteration     100.00

 eigenvalues of (default mixing * dielectric matrix)
  average eigenvalue GAMMA=   0.9397
  1.4591  1.4591  0.3389  0.9497  0.7156  0.7156

 Free energy of the ion-electron system (eV)
  ---------------------------------------------------
  alpha Z        PSCENC =        96.83384691
  Ewald energy   TEWEN  =     -4929.92052798
  -Hartree energ DENC   =     -1010.48610909
  -exchange      EXHF   =         0.00000000
  -V(xc)+E(xc)   XCENC  =      -409.63548734
  PAW double counting   =     29907.50362130   -29075.87044603
  entropy T*S    EENTRO =        -0.00084461
  eigenvalues    EBANDS =       382.69432125
  atomic energy  EATOM  =      4947.19793617
  Solvation  Ediel_sol  =         0.00000000
  ---------------------------------------------------
  free energy    TOTEN  =       -91.68368941 eV

  energy without entropy =      -91.68284481  energy(sigma->0) =      -91.68326711


--------------------------------------------------------------------------------------------------------




--------------------------------------- Iteration      1(  12)  ---------------------------------------


    POTLOK:  cpu time      0.0571: real time      0.0583
    SETDIJ:  cpu time      0.2602: real time      0.2610
     EDDAV:  cpu time      6.4955: real time      6.5449
       DOS:  cpu time      0.0019: real time      0.0019
    CHARGE:  cpu time      0.3460: real time      0.3476
    MIXING:  cpu time      0.0022: real time      0.0022
    --------------------------------------------
      LOOP:  cpu time      7.1629: real time      7.2159

 eigenvalue-minimisations  : 10728
 total energy-change (2. order) : 0.1236942E-03  (-0.1400740E-02)
 number of electron     191.9999998 magnetization       1.0000000
 augmentation part      -12.5057028 magnetization      -0.0436117

 Broyden mixing:
  rms(total) = 0.45382E-01    rms(broyden)= 0.45382E-01
  rms(prec ) = 0.54862E-01
  weight for this iteration     100.00

 eigenvalues of (default mixing * dielectric matrix)
  average eigenvalue GAMMA=   1.0428
  1.9902  1.9902  0.3400  0.8152  0.8152  0.7599  0.5892

 Free energy of the ion-electron system (eV)
  ---------------------------------------------------
  alpha Z        PSCENC =        96.83384691
  Ewald energy   TEWEN  =     -4929.92052798
  -Hartree energ DENC   =     -1010.76525807
  -exchange      EXHF   =         0.00000000
  -V(xc)+E(xc)   XCENC  =      -409.62782958
  PAW double counting   =     29354.23582806   -28522.74505263
  entropy T*S    EENTRO =        -0.00077934
  eigenvalues    EBANDS =       383.10827074
  atomic energy  EATOM  =      4947.19793617
  Solvation  Ediel_sol  =         0.00000000
  ---------------------------------------------------
  free energy    TOTEN  =       -91.68356572 eV

  energy without entropy =      -91.68278638  energy(sigma->0) =      -91.68317605


--------------------------------------------------------------------------------------------------------




--------------------------------------- Iteration      1(  13)  ---------------------------------------


    POTLOK:  cpu time      0.0573: real time      0.0581
    SETDIJ:  cpu time      0.2608: real time      0.2617
     EDDAV:  cpu time      6.3379: real time      6.3884
       DOS:  cpu time      0.0018: real time      0.0018
    CHARGE:  cpu time      0.3462: real time      0.3480
    MIXING:  cpu time      0.0034: real time      0.0034
    --------------------------------------------
      LOOP:  cpu time      7.0074: real time      7.0613

 eigenvalue-minimisations  : 10320
 total energy-change (2. order) : 0.1595519E-02  (-0.8903459E-03)
 number of electron     191.9999998 magnetization       1.0000000
 augmentation part      -12.5047629 magnetization      -0.0438998

 Broyden mixing:
  rms(total) = 0.39747E-01    rms(broyden)= 0.39747E-01
  rms(prec ) = 0.41011E-01
  weight for this iteration     100.00

 eigenvalues of (default mixing * dielectric matrix)
  average eigenvalue GAMMA=   0.9842
  2.1100  1.7290  0.8760  0.8760  0.3399  0.7867  0.6615  0.4941

 Free energy of the ion-electron system (eV)
  ---------------------------------------------------
  alpha Z        PSCENC =        96.83384691
  Ewald energy   TEWEN  =     -4929.92052798
  -Hartree energ DENC   =     -1011.26827104
  -exchange      EXHF   =         0.00000000
  -V(xc)+E(xc)   XCENC  =      -409.54410342
  PAW double counting   =     29360.36764129   -28529.02757524
  entropy T*S    EENTRO =        -0.00089433
  eigenvalues    EBANDS =       383.67997744
  atomic energy  EATOM  =      4947.19793617
  Solvation  Ediel_sol  =         0.00000000
  ---------------------------------------------------
  free energy    TOTEN  =       -91.68197020 eV

  energy without entropy =      -91.68107587  energy(sigma->0) =      -91.68152304


--------------------------------------------------------------------------------------------------------




--------------------------------------- Iteration      1(  14)  ---------------------------------------


    POTLOK:  cpu time      0.0573: real time      0.0578
    SETDIJ:  cpu time      0.2604: real time      0.2613
     EDDAV:  cpu time      6.3557: real time      6.4058
       DOS:  cpu time      0.0018: real time      0.0018
    CHARGE:  cpu time      0.3455: real time      0.3472
    MIXING:  cpu time      0.0027: real time      0.0027
    --------------------------------------------
      LOOP:  cpu time      7.0234: real time      7.0766

 eigenvalue-minimisations  : 10464
 total energy-change (2. order) :-0.1122491E-03  (-0.1628463E-03)
 number of electron     191.9999998 magnetization       1.0000000
 augmentation part      -12.5054350 magnetization      -0.0439900

 Broyden mixing:
  rms(total) = 0.16921E-01    rms(broyden)= 0.16921E-01
  rms(prec ) = 0.17207E-01
  weight for this iteration     100.00

 eigenvalues of (default mixing * dielectric matrix)
  average eigenvalue GAMMA=   0.9396
  2.1040  1.6555  0.3399  0.8475  0.8475  0.7461  0.7461  0.6891  0.4804

 Free energy of the ion-electron system (eV)
  ---------------------------------------------------
  alpha Z        PSCENC =        96.83384691
  Ewald energy   TEWEN  =     -4929.92052798
  -Hartree energ DENC   =     -1011.33807281
  -exchange      EXHF   =         0.00000000
  -V(xc)+E(xc)   XCENC  =      -409.52380187
  PAW double counting   =     29500.04648047   -28668.71609205
  entropy T*S    EENTRO =        -0.00096294
  eigenvalues    EBANDS =       383.73911166
  atomic energy  EATOM  =      4947.19793617
  Solvation  Ediel_sol  =         0.00000000
  ---------------------------------------------------
  free energy    TOTEN  =       -91.68208245 eV

  energy without entropy =      -91.68111951  energy(sigma->0) =      -91.68160098


--------------------------------------------------------------------------------------------------------




--------------------------------------- Iteration      1(  15)  ---------------------------------------


    POTLOK:  cpu time      0.0804: real time      0.0809
    SETDIJ:  cpu time      0.2676: real time      0.2686
     EDDAV:  cpu time      6.4311: real time      6.4803
       DOS:  cpu time      0.0018: real time      0.0018
    CHARGE:  cpu time      0.3440: real time      0.3458
    MIXING:  cpu time      0.0038: real time      0.0038
    --------------------------------------------
      LOOP:  cpu time      7.1287: real time      7.1812

 eigenvalue-minimisations  : 10512
 total energy-change (2. order) : 0.3124717E-04  (-0.2613919E-04)
 number of electron     191.9999998 magnetization       1.0000000
 augmentation part      -12.5059018 magnetization      -0.0439361

 Broyden mixing:
  rms(total) = 0.81755E-02    rms(broyden)= 0.81755E-02
  rms(prec ) = 0.83880E-02
  weight for this iteration     100.00

 eigenvalues of (default mixing * dielectric matrix)
  average eigenvalue GAMMA=   0.9611
  2.0924  1.3785  1.1964  1.1964  0.8829  0.8829  0.3399  0.6435  0.5314  0.4672

 Free energy of the ion-electron system (eV)
  ---------------------------------------------------
  alpha Z        PSCENC =        96.83384691
  Ewald energy   TEWEN  =     -4929.92052798
  -Hartree energ DENC   =     -1011.32603890
  -exchange      EXHF   =         0.00000000
  -V(xc)+E(xc)   XCENC  =      -409.51918946
  PAW double counting   =     29566.06538155   -28734.73310856
  entropy T*S    EENTRO =        -0.00096841
  eigenvalues    EBANDS =       383.72061748
  atomic energy  EATOM  =      4947.19793617
  Solvation  Ediel_sol  =         0.00000000
  ---------------------------------------------------
  free energy    TOTEN  =       -91.68205120 eV

  energy without entropy =      -91.68108279  energy(sigma->0) =      -91.68156700


--------------------------------------------------------------------------------------------------------




--------------------------------------- Iteration      1(  16)  ---------------------------------------


    POTLOK:  cpu time      0.0557: real time      0.0577
    SETDIJ:  cpu time      0.2610: real time      0.2619
     EDDAV:  cpu time      6.1240: real time      6.1709
       DOS:  cpu time      0.0018: real time      0.0018
    CHARGE:  cpu time      0.3731: real time      0.3747
    MIXING:  cpu time      0.0035: real time      0.0035
    --------------------------------------------
      LOOP:  cpu time      6.8191: real time      6.8705

 eigenvalue-minimisations  :  9984
 total energy-change (2. order) : 0.1663762E-04  (-0.9433361E-05)
 number of electron     191.9999998 magnetization       1.0000000
 augmentation part      -12.5062722 magnetization      -0.0439804

 Broyden mixing:
  rms(total) = 0.27389E-02    rms(broyden)= 0.27389E-02
  rms(prec ) = 0.28049E-02
  weight for this iteration     100.00

 eigenvalues of (default mixing * dielectric matrix)
  average eigenvalue GAMMA=   0.9758
  2.1198  1.5200  1.5200  0.9588  0.9588  0.3399  0.8612  0.8093  0.6957  0.5036
  0.4468

 Free energy of the ion-electron system (eV)
  ---------------------------------------------------
  alpha Z        PSCENC =        96.83384691
  Ewald energy   TEWEN  =     -4929.92052798
  -Hartree energ DENC   =     -1011.30832409
  -exchange      EXHF   =         0.00000000
  -V(xc)+E(xc)   XCENC  =      -409.51691536
  PAW double counting   =     29617.41586392   -28786.08070303
  entropy T*S    EENTRO =        -0.00097933
  eigenvalues    EBANDS =       383.69776823
  atomic energy  EATOM  =      4947.19793617
  Solvation  Ediel_sol  =         0.00000000
  ---------------------------------------------------
  free energy    TOTEN  =       -91.68203457 eV

  energy without entropy =      -91.68105523  energy(sigma->0) =      -91.68154490


--------------------------------------------------------------------------------------------------------




--------------------------------------- Iteration      1(  17)  ---------------------------------------


    POTLOK:  cpu time      0.0572: real time      0.0584
    SETDIJ:  cpu time      0.2610: real time      0.2620
     EDDAV:  cpu time      6.5743: real time      6.6249
       DOS:  cpu time      0.0018: real time      0.0018
    CHARGE:  cpu time      0.3481: real time      0.3496
    MIXING:  cpu time      0.0028: real time      0.0028
    --------------------------------------------
      LOOP:  cpu time      7.2451: real time      7.2996

 eigenvalue-minimisations  : 10888
 total energy-change (2. order) :-0.2773231E-07  (-0.2681919E-05)
 number of electron     191.9999998 magnetization       1.0000000
 augmentation part      -12.5064156 magnetization      -0.0439751

 Broyden mixing:
  rms(total) = 0.11342E-02    rms(broyden)= 0.11342E-02
  rms(prec ) = 0.11746E-02
  weight for this iteration     100.00

 eigenvalues of (default mixing * dielectric matrix)
  average eigenvalue GAMMA=   0.9670
  2.0987  1.4922  1.4922  1.1486  1.1486  0.8320  0.8320  0.3399  0.6341  0.6341
  0.4866  0.4650

 Free energy of the ion-electron system (eV)
  ---------------------------------------------------
  alpha Z        PSCENC =        96.83384691
  Ewald energy   TEWEN  =     -4929.92052798
  -Hartree energ DENC   =     -1011.30082807
  -exchange      EXHF   =         0.00000000
  -V(xc)+E(xc)   XCENC  =      -409.51719487
  PAW double counting   =     29631.67543867   -28800.33829869
  entropy T*S    EENTRO =        -0.00098464
  eigenvalues    EBANDS =       383.68857791
  atomic energy  EATOM  =      4947.19793617
  Solvation  Ediel_sol  =         0.00000000
  ---------------------------------------------------
  free energy    TOTEN  =       -91.68203459 eV

  energy without entropy =      -91.68104995  energy(sigma->0) =      -91.68154227


--------------------------------------------------------------------------------------------------------




--------------------------------------- Iteration      1(  18)  ---------------------------------------


    POTLOK:  cpu time      0.0568: real time      0.0582
    SETDIJ:  cpu time      0.2596: real time      0.2608
     EDDAV:  cpu time      6.0762: real time      6.1233
       DOS:  cpu time      0.0018: real time      0.0018
    CHARGE:  cpu time      0.3465: real time      0.3482
    MIXING:  cpu time      0.0036: real time      0.0036
    --------------------------------------------
      LOOP:  cpu time      6.7446: real time      6.7960

 eigenvalue-minimisations  :  9840
 total energy-change (2. order) : 0.9365813E-06  (-0.6683764E-06)
 number of electron     191.9999998 magnetization       1.0000000
 augmentation part      -12.5063649 magnetization      -0.0439676

 Broyden mixing:
  rms(total) = 0.51035E-03    rms(broyden)= 0.51029E-03
  rms(prec ) = 0.52092E-03
  weight for this iteration     100.00

 eigenvalues of (default mixing * dielectric matrix)
  average eigenvalue GAMMA=   0.9607
  2.0679  1.4605  1.4605  1.3107  1.3107  0.3399  0.8044  0.8044  0.7048  0.7048
  0.5766  0.4928  0.4515

 Free energy of the ion-electron system (eV)
  ---------------------------------------------------
  alpha Z        PSCENC =        96.83384691
  Ewald energy   TEWEN  =     -4929.92052798
  -Hartree energ DENC   =     -1011.30260506
  -exchange      EXHF   =         0.00000000
  -V(xc)+E(xc)   XCENC  =      -409.51823612
  PAW double counting   =     29625.75130798   -28794.41325291
  entropy T*S    EENTRO =        -0.00098472
  eigenvalues    EBANDS =       383.69048208
  atomic energy  EATOM  =      4947.19793617
  Solvation  Ediel_sol  =         0.00000000
  ---------------------------------------------------
  free energy    TOTEN  =       -91.68203366 eV

  energy without entropy =      -91.68104894  energy(sigma->0) =      -91.68154130


--------------------------------------------------------------------------------------------------------




--------------------------------------- Iteration      1(  19)  ---------------------------------------


    POTLOK:  cpu time      0.0579: real time      0.0584
    SETDIJ:  cpu time      0.2615: real time      0.2623
     EDDAV:  cpu time      6.0753: real time      6.1217
       DOS:  cpu time      0.0018: real time      0.0018
    CHARGE:  cpu time      0.3456: real time      0.3471
    MIXING:  cpu time      0.0024: real time      0.0024
    --------------------------------------------
      LOOP:  cpu time      6.7445: real time      6.7938

 eigenvalue-minimisations  :  9776
 total energy-change (2. order) :-0.1350427E-06  (-0.1246317E-06)
 number of electron     191.9999998 magnetization       1.0000000
 augmentation part      -12.5063410 magnetization      -0.0439809

 Broyden mixing:
  rms(total) = 0.35974E-03    rms(broyden)= 0.35964E-03
  rms(prec ) = 0.37369E-03
  weight for this iteration     100.00

 eigenvalues of (default mixing * dielectric matrix)
  average eigenvalue GAMMA=   0.9894
  2.0630  1.7826  1.3791  1.3791  1.2306  1.2306  0.8491  0.8491  0.3399  0.6548
  0.6548  0.4977  0.4977  0.4434

 Free energy of the ion-electron system (eV)
  ---------------------------------------------------
  alpha Z        PSCENC =        96.83384691
  Ewald energy   TEWEN  =     -4929.92052798
  -Hartree energ DENC   =     -1011.30354770
  -exchange      EXHF   =         0.00000000
  -V(xc)+E(xc)   XCENC  =      -409.51837171
  PAW double counting   =     29625.71733038   -28794.37900226
  entropy T*S    EENTRO =        -0.00098536
  eigenvalues    EBANDS =       383.69128776
  atomic energy  EATOM  =      4947.19793617
  Solvation  Ediel_sol  =         0.00000000
  ---------------------------------------------------
  free energy    TOTEN  =       -91.68203379 eV

  energy without entropy =      -91.68104843  energy(sigma->0) =      -91.68154111


--------------------------------------------------------------------------------------------------------




--------------------------------------- Iteration      1(  20)  ---------------------------------------


    POTLOK:  cpu time      0.0562: real time      0.0581
    SETDIJ:  cpu time      0.2601: real time      0.2612
     EDDAV:  cpu time      4.5664: real time      4.6007
       DOS:  cpu time      0.0017: real time      0.0017
    --------------------------------------------
      LOOP:  cpu time      4.8843: real time      4.9217

 eigenvalue-minimisations  :  6520
 total energy-change (2. order) : 0.1172339E-08  (-0.2464727E-07)
 number of electron     191.9999998 magnetization       1.0000000
 augmentation part      -12.5063410 magnetization      -0.0439809

 Free energy of the ion-electron system (eV)
  ---------------------------------------------------
  alpha Z        PSCENC =        96.83384691
  Ewald energy   TEWEN  =     -4929.92052798
  -Hartree energ DENC   =     -1011.30315907
  -exchange      EXHF   =         0.00000000
  -V(xc)+E(xc)   XCENC  =      -409.51841508
  PAW double counting   =     29627.11735484   -28795.77881782
  entropy T*S    EENTRO =        -0.00098713
  eigenvalues    EBANDS =       383.69073537
  atomic energy  EATOM  =      4947.19793617
  Solvation  Ediel_sol  =         0.00000000
  ---------------------------------------------------
  free energy    TOTEN  =       -91.68203379 eV

  energy without entropy =      -91.68104666  energy(sigma->0) =      -91.68154023


--------------------------------------------------------------------------------------------------------




 average (electrostatic) potential at core
  the test charge radii are     0.9892
  (the norm of the test charge is              1.0000)
       1 -83.1387       2 -81.7440       3 -81.8385       4 -82.0609       5 -81.4696
       6 -83.1127       7 -83.1128       8 -81.4696       9 -82.0609      10 -81.8385
      11 -81.7440      12 -83.1387      13 -83.1127      14 -81.4696      15 -82.0609
      16 -81.8385      17 -81.7440      18 -83.1387      19 -83.1388      20 -81.7440
      21 -81.8385      22 -82.0609      23 -81.4696      24 -83.1127      25 -83.1387
      26 -81.7440      27 -81.8385      28 -82.0609      29 -81.4696      30 -83.1127
      31 -83.1127      32 -81.4696      33 -82.0609      34 -81.8385      35 -81.7440
      36 -83.1387      37 -83.1127      38 -81.4696      39 -82.0609      40 -81.8385
      41 -81.7440      42 -83.1387      43 -83.1388      44 -81.7440      45 -81.8385
      46 -82.0609      47 -81.4696      48 -83.1127
 
 
 
 E-fermi :   7.9032     XC(G=0): -10.1526     alpha+bet :-14.3735

 val. band max:        7.9882096977   @ k =   0.2500   0.5000   0.2000
 cond. band min:       7.9093927398   @ k =   0.2500   0.0000   0.2000
 fundamental gap:     -0.0788169579
 Fermi energy:         8.0050810504

 spin component 1

 k-point     1 :       0.0000    0.0000    0.0000
  band No.  band energies     occupation 
      1      -7.3056      1.00000
      2      -6.6391      1.00000
      3      -6.0324      1.00000
      4      -5.4756      1.00000
      5      -4.9156      1.00000
      6      -4.6777      1.00000
      7      -4.6610      1.00000
      8      -4.5449      1.00000
      9      -4.4623      1.00000
     10      -4.3086      1.00000
     11      -3.2387      1.00000
     12      -3.2327      1.00000
     13      -2.8862      1.00000
     14      -2.5752      1.00000
     15      -2.4757      1.00000
     16      -2.4111      1.00000
     17      -2.3018      1.00000
     18      -2.2074      1.00000
     19      -1.8557      1.00000
     20      -1.4945      1.00000
     21      -1.4613      1.00000
     22      -1.4007      1.00000
     23      -1.1149      1.00000
     24      -1.0530      1.00000
     25      -0.8811      1.00000
     26      -0.7194      1.00000
     27      -0.4862      1.00000
     28      -0.3771      1.00000
     29      -0.1176      1.00000
     30      -0.0175      1.00000
     31      -0.0024      1.00000
     32       0.0503      1.00000
     33       0.1119      1.00000
     34       0.6839      1.00000
     35       0.7489      1.00000
     36       0.8406      1.00000
     37       0.9344      1.00000
     38       1.0634      1.00000
     39       1.2900      1.00000
     40       1.3561      1.00000
     41       1.8786      1.00000
     42       2.0301      1.00000
     43       2.0518      1.00000
     44       2.0549      1.00000
     45       2.2751      1.00000
     46       2.3358      1.00000
     47       2.3614      1.00000
     48       2.3929      1.00000
     49       2.5740      1.00000
     50       2.6548      1.00000
     51       2.6677      1.00000
     52       2.7289      1.00000
     53       2.8680      1.00000
     54       2.9023      1.00000
     55       2.9109      1.00000
     56       3.5421      1.00000
     57       3.5564      1.00000
     58       3.5714      1.00000
     59       3.6831      1.00000
     60       3.7374      1.00000
     61       3.8241      1.00000
     62       3.9556      1.00000
     63       4.0629      1.00000
     64       4.5541      1.00000
     65       4.6517      1.00000
     66       4.8925      1.00000
     67       4.8984      1.00000
     68       4.9610      1.00000
     69       4.9612      1.00000
     70       5.0863      1.00000
     71       5.3202      1.00000
     72       5.3796      1.00000
     73       5.3865      1.00000
     74       5.4665      1.00000
     75       5.6846      1.00000
     76       5.7340      1.00000
     77       5.7344      1.00000
     78       5.8195      1.00000
     79       5.9185      1.00000
     80       5.9342      1.00000
     81       6.1326      1.00000
     82       6.4496      1.00000
     83       6.6097      1.00000
     84       6.6269      1.00000
     85       6.6623      1.00000
     86       6.7490      1.00000
     87       6.8184      1.00000
     88       7.1212      1.00000
     89       7.3011      1.00000
     90       7.4428      1.00000
     91       7.4949      1.00000
     92       7.5275      1.00000
     93       7.5676      1.00000
     94       7.7235      1.00000
     95       7.7279      1.00000
     96       7.8590      1.00000
     97       7.8592      1.00000
     98       8.2684      0.00000
     99       8.2786      0.00000
    100       8.2974      0.00000
    101       8.4146      0.00000
    102       8.7916      0.00000
    103       8.7956      0.00000
    104       8.9124      0.00000
    105       8.9869      0.00000
[...]
     61       4.0966      1.00000
     62       4.0966      1.00000
     63       4.3489      1.00000
     64       4.3489      1.00000
     65       4.6700      1.00000
     66       4.6700      1.00000
     67       4.7129      1.00000
     68       4.7129      1.00000
     69       5.0191      1.00000
     70       5.0191      1.00000
     71       5.2350      1.00000
     72       5.2350      1.00000
     73       5.3898      1.00000
     74       5.3898      1.00000
     75       5.5363      1.00000
     76       5.5363      1.00000
     77       5.7867      1.00000
     78       5.7867      1.00000
     79       5.9143      1.00000
     80       5.9143      1.00000
     81       6.1427      1.00000
     82       6.1427      1.00000
     83       6.2592      1.00000
     84       6.2592      1.00000
     85       6.6171      1.00000
     86       6.6171      1.00000
     87       6.7651      1.00000
     88       6.7651      1.00000
     89       6.8768      1.00000
     90       6.8768      1.00000
     91       7.4603      1.00000
     92       7.4603      1.00000
     93       7.7406      1.00000
     94       7.7406      1.00000
     95       7.9191      0.01272
     96       7.9191      0.01271
     97       8.0810      0.00000
     98       8.0810      0.00000
     99       8.3006      0.00000
    100       8.3006      0.00000
    101       8.4404      0.00000
    102       8.4404      0.00000
    103       8.6672      0.00000
    104       8.6672      0.00000
    105       8.6822      0.00000
    106       8.6822      0.00000
    107       8.9575      0.00000
    108       8.9576      0.00000
    109       9.1316      0.00000
    110       9.1316      0.00000
    111       9.3785      0.00000
    112       9.3785      0.00000
    113       9.4397      0.00000
    114       9.4397      0.00000
    115       9.6252      0.00000
    116       9.6282      0.00000


--------------------------------------------------------------------------------------------------------


 soft charge-density along one line, spin component           1
         0         1         2         3         4         5         6         7         8         9
 total charge-density along one line
 
 soft charge-density along one line, spin component           2
         0         1         2         3         4         5         6         7         8         9
 total charge-density along one line
 
 pseudopotential strength for first ion, spin component:           1
 18.570  25.906   0.095  -0.005  -0.125   0.176  -0.009  -0.231
 25.906  36.145   0.132  -0.007  -0.173   0.244  -0.012  -0.320
  0.095   0.132   4.263  -0.000  -0.044   7.941  -0.000  -0.080
 -0.005  -0.007  -0.000   4.231   0.001  -0.000   7.881   0.001
 -0.125  -0.173  -0.044   0.001   4.283  -0.080   0.001   7.977
  0.176   0.244   7.941  -0.000  -0.080  14.801  -0.000  -0.146
 -0.009  -0.012  -0.000   7.881   0.001  -0.000  14.694   0.002
 -0.231  -0.320  -0.080   0.001   7.977  -0.146   0.002  14.869
 pseudopotential strength for first ion, spin component:           2
 18.568  25.903   0.096  -0.004  -0.125   0.177  -0.008  -0.231
 25.903  36.140   0.133  -0.006  -0.173   0.245  -0.012  -0.320
  0.096   0.133   4.262  -0.000  -0.044   7.939  -0.000  -0.080
 -0.004  -0.006  -0.000   4.230   0.001  -0.000   7.880   0.002
 -0.125  -0.173  -0.044   0.001   4.282  -0.080   0.002   7.975
  0.177   0.245   7.939  -0.000  -0.080  14.798  -0.001  -0.145
 -0.008  -0.012  -0.000   7.880   0.002  -0.001  14.690   0.003
 -0.231  -0.320  -0.080   0.002   7.975  -0.145   0.003  14.865
 total augmentation occupancy for first ion, spin component:           1
  8.825  -4.049   0.838  -0.125  -2.085  -0.200   0.038   0.632
 -4.049   2.273  -0.274   0.076   1.165   0.126  -0.025  -0.422
  0.838  -0.274   3.386   0.017  -0.271  -0.577   0.003   0.000
 -0.125   0.076   0.017   3.854   0.377   0.003  -0.917  -0.128
 -2.085   1.165  -0.271   0.377   4.330   0.041  -0.128  -1.056
 -0.200   0.126  -0.577   0.003   0.041   0.138   0.000  -0.020
  0.038  -0.025   0.003  -0.917  -0.128   0.000   0.239   0.037
  0.632  -0.422   0.000  -0.128  -1.056  -0.020   0.037   0.310
 total augmentation occupancy for first ion, spin component:           2
  0.036  -0.023  -0.001  -0.002  -0.002   0.001   0.001   0.001
 -0.023   0.017  -0.004   0.000   0.004   0.000  -0.000  -0.001
 -0.001  -0.004   0.017   0.002  -0.003  -0.002  -0.000  -0.000
 -0.002   0.000   0.002   0.016  -0.005  -0.000  -0.003  -0.001
 -0.002   0.004  -0.003  -0.005   0.014   0.000  -0.000  -0.002
  0.001   0.000  -0.002  -0.000   0.000   0.001   0.000  -0.000
  0.001  -0.000  -0.000  -0.003  -0.000   0.000   0.001   0.000
  0.001  -0.001  -0.000  -0.001  -0.002  -0.000   0.000   0.001


------------------------ aborting loop because EDIFF is reached ----------------------------------------


    CHARGE:  cpu time      0.3498: real time      0.3517
    FORLOC:  cpu time      0.0058: real time      0.0058
    FORNL :  cpu time      1.2094: real time      1.2160
    STRESS:  cpu time      3.6821: real time      3.7026
    FORCOR:  cpu time      0.0573: real time      0.0576
    FORHAR:  cpu time      0.0097: real time      0.0098
    MIXING:  cpu time      0.0021: real time      0.0021
    OFIELD:  cpu time      0.0000: real time      0.0000

  FORCE on cell =-STRESS in cart. coord.  units (eV):
  Direction    XX          YY          ZZ          XY          YZ          ZX
  --------------------------------------------------------------------------------------
  Alpha Z    96.83385    96.83385    96.83385
  Ewald   -1267.47638 -2535.86234 -1126.60972     0.00029  -179.90176    -0.00029
  Hartree   675.18165  -506.05988   842.18069    -0.00000    -4.03957     0.00001
  E(xc)    -648.63788  -647.83295  -641.52916    -0.00000     2.09074     0.00000
  Local   -1816.64918   561.54175 -2328.11015    -0.00007   173.94329     0.00014
  n-local  2166.80720  2162.42799  2058.73323    -0.33476   -48.91293    -1.78529
  augment  -304.86624  -310.56785  -313.95127     0.00001     1.86587    -0.00000
  Kinetic  1539.66119  1550.15098  1515.30425    -0.81847    28.07344     3.88476
  Fock        0.00000     0.00000     0.00000     0.00000     0.00000     0.00000
  -------------------------------------------------------------------------------------
  Total     440.85421   370.63157   102.85172     0.00000   -26.88092     0.00000
  in kB     881.85216   741.38397   205.73698     0.00000   -53.77061     0.00000
  external pressure =      609.66 kB  Pullay stress =        0.00 kB


 VOLUME and BASIS-vectors are now :
 -----------------------------------------------------------------------------
  energy-cutoff  :      700.00
  volume of cell :      800.96
      direct lattice vectors                 reciprocal lattice vectors
     7.680594444  0.000000000  0.000000000     0.130198256  0.000000000  0.000000000
     0.000000000 16.292999268  0.000000000     0.000000000  0.061376054  0.000000000
     0.000000000  0.000000000  6.400500298     0.000000000  0.000000000  0.156237787

  length of vectors
     7.680594444 16.292999268  6.400500298     0.130198256  0.061376054  0.156237787


 FORCES acting on ions
    electron-ion (+dipol)            ewald-force                    non-local-force                 convergence-correction
 -----------------------------------------------------------------------------------------------
   -.711E+02 -.123E+01 -.119E+01   0.802E+02 -.419E+01 0.189E+01   0.396E+02 -.354E+02 0.465E+00   -.477E-04 0.346E-03 -.658E-05
   -.103E+02 0.878E+02 -.730E+01   0.965E+01 -.859E+02 0.610E+01   0.132E+01 -.173E+01 0.231E+01   -.146E-04 0.128E-03 0.950E-05
   -.931E+01 -.710E+02 -.680E+01   0.837E+01 0.712E+02 0.579E+01   0.129E+01 0.620E+00 0.182E+01   0.915E-05 -.193E-03 0.671E-05
   0.218E+01 0.111E+02 0.246E+01   -.456E+01 -.118E+02 -.105E+01   0.140E+01 0.371E+01 -.268E+01   0.174E-04 -.297E-03 -.121E-04
   0.161E+02 0.936E+01 0.733E+00   -.146E+02 -.131E+02 -.135E+01   -.351E+01 0.494E+01 -.196E+01   -.419E-04 0.213E-04 -.103E-04
   -.494E+02 -.141E+03 0.179E+01   0.563E+02 0.148E+03 -.135E+01   0.391E+02 0.357E+02 -.306E+01   -.807E-04 0.244E-03 -.467E-05
   -.494E+02 0.141E+03 -.179E+01   0.563E+02 -.148E+03 0.135E+01   0.391E+02 -.357E+02 0.306E+01   -.811E-04 -.244E-03 0.471E-05
   0.161E+02 -.936E+01 -.733E+00   -.146E+02 0.131E+02 0.135E+01   -.351E+01 -.494E+01 0.196E+01   -.419E-04 -.209E-04 0.103E-04
   0.218E+01 -.111E+02 -.246E+01   -.456E+01 0.118E+02 0.105E+01   0.140E+01 -.371E+01 0.268E+01   0.178E-04 0.298E-03 0.120E-04
   -.931E+01 0.710E+02 0.680E+01   0.837E+01 -.712E+02 -.579E+01   0.129E+01 -.620E+00 -.182E+01   0.913E-05 0.193E-03 -.674E-05
   -.103E+02 -.878E+02 0.730E+01   0.965E+01 0.859E+02 -.610E+01   0.132E+01 0.173E+01 -.231E+01   -.152E-04 -.129E-03 -.948E-05
   -.711E+02 0.123E+01 0.119E+01   0.802E+02 0.419E+01 -.189E+01   0.396E+02 0.354E+02 -.465E+00   -.477E-04 -.346E-03 0.656E-05
   -.494E+02 0.141E+03 -.179E+01   0.563E+02 -.148E+03 0.135E+01   0.391E+02 -.357E+02 0.306E+01   -.806E-04 -.244E-03 0.470E-05
   0.161E+02 -.936E+01 -.733E+00   -.146E+02 0.131E+02 0.135E+01   -.351E+01 -.494E+01 0.196E+01   -.415E-04 -.210E-04 0.103E-04
   0.218E+01 -.111E+02 -.246E+01   -.456E+01 0.118E+02 0.105E+01   0.140E+01 -.371E+01 0.268E+01   0.175E-04 0.298E-03 0.120E-04
   -.931E+01 0.710E+02 0.680E+01   0.837E+01 -.712E+02 -.579E+01   0.129E+01 -.620E+00 -.182E+01   0.889E-05 0.193E-03 -.674E-05
   -.103E+02 -.878E+02 0.730E+01   0.965E+01 0.859E+02 -.610E+01   0.132E+01 0.173E+01 -.231E+01   -.147E-04 -.129E-03 -.949E-05
   -.711E+02 0.123E+01 0.119E+01   0.802E+02 0.419E+01 -.189E+01   0.396E+02 0.354E+02 -.465E+00   -.477E-04 -.345E-03 0.655E-05
   -.711E+02 -.123E+01 -.119E+01   0.802E+02 -.419E+01 0.189E+01   0.396E+02 -.354E+02 0.465E+00   -.477E-04 0.346E-03 -.658E-05
   -.103E+02 0.878E+02 -.730E+01   0.965E+01 -.859E+02 0.610E+01   0.132E+01 -.173E+01 0.231E+01   -.153E-04 0.128E-03 0.950E-05
   -.931E+01 -.710E+02 -.680E+01   0.837E+01 0.712E+02 0.579E+01   0.129E+01 0.620E+00 0.182E+01   0.887E-05 -.193E-03 0.670E-05
   0.218E+01 0.111E+02 0.246E+01   -.456E+01 -.118E+02 -.105E+01   0.140E+01 0.371E+01 -.268E+01   0.179E-04 -.297E-03 -.121E-04
   0.161E+02 0.936E+01 0.733E+00   -.146E+02 -.131E+02 -.135E+01   -.351E+01 0.494E+01 -.196E+01   -.415E-04 0.212E-04 -.103E-04
   -.494E+02 -.141E+03 0.179E+01   0.563E+02 0.148E+03 -.135E+01   0.391E+02 0.357E+02 -.306E+01   -.811E-04 0.244E-03 -.466E-05
   0.711E+02 -.123E+01 -.119E+01   -.802E+02 -.419E+01 0.189E+01   -.396E+02 -.354E+02 0.465E+00   0.476E-04 0.346E-03 -.637E-05
   0.103E+02 0.878E+02 -.730E+01   -.965E+01 -.859E+02 0.610E+01   -.132E+01 -.173E+01 0.231E+01   0.148E-04 0.128E-03 0.966E-05
   0.931E+01 -.710E+02 -.680E+01   -.837E+01 0.712E+02 0.579E+01   -.129E+01 0.620E+00 0.182E+01   -.877E-05 -.193E-03 0.675E-05
   -.218E+01 0.111E+02 0.246E+01   0.456E+01 -.118E+02 -.105E+01   -.140E+01 0.371E+01 -.268E+01   -.175E-04 -.297E-03 -.121E-04
   -.161E+02 0.936E+01 0.733E+00   0.146E+02 -.131E+02 -.135E+01   0.351E+01 0.494E+01 -.196E+01   0.413E-04 0.213E-04 -.104E-04
   0.494E+02 -.141E+03 0.179E+01   -.563E+02 0.148E+03 -.135E+01   -.391E+02 0.357E+02 -.306E+01   0.807E-04 0.244E-03 -.489E-05
   0.494E+02 0.141E+03 -.179E+01   -.563E+02 -.148E+03 0.135E+01   -.391E+02 -.357E+02 0.306E+01   0.811E-04 -.244E-03 0.486E-05
   -.161E+02 -.936E+01 -.733E+00   0.146E+02 0.131E+02 0.135E+01   0.351E+01 -.494E+01 0.196E+01   0.414E-04 -.210E-04 0.104E-04
   -.218E+01 -.111E+02 -.246E+01   0.456E+01 0.118E+02 0.105E+01   -.140E+01 -.371E+01 0.268E+01   -.178E-04 0.298E-03 0.121E-04
   0.931E+01 0.710E+02 0.680E+01   -.837E+01 -.712E+02 -.579E+01   -.129E+01 -.620E+00 -.182E+01   -.871E-05 0.193E-03 -.672E-05
   0.103E+02 -.878E+02 0.730E+01   -.965E+01 0.859E+02 -.610E+01   -.132E+01 0.173E+01 -.231E+01   0.150E-04 -.129E-03 -.966E-05
   0.711E+02 0.123E+01 0.119E+01   -.802E+02 0.419E+01 -.189E+01   -.396E+02 0.354E+02 -.465E+00   0.476E-04 -.346E-03 0.639E-05
   0.494E+02 0.141E+03 -.179E+01   -.563E+02 -.148E+03 0.135E+01   -.391E+02 -.357E+02 0.306E+01   0.807E-04 -.244E-03 0.485E-05
   -.161E+02 -.936E+01 -.733E+00   0.146E+02 0.131E+02 0.135E+01   0.351E+01 -.494E+01 0.196E+01   0.420E-04 -.210E-04 0.104E-04
   -.218E+01 -.111E+02 -.246E+01   0.456E+01 0.118E+02 0.105E+01   -.140E+01 -.371E+01 0.268E+01   -.175E-04 0.298E-03 0.121E-04
   0.931E+01 0.710E+02 0.680E+01   -.837E+01 -.712E+02 -.579E+01   -.129E+01 -.620E+00 -.182E+01   -.931E-05 0.193E-03 -.671E-05
   0.103E+02 -.878E+02 0.730E+01   -.965E+01 0.859E+02 -.610E+01   -.132E+01 0.173E+01 -.231E+01   0.149E-04 -.129E-03 -.967E-05
   0.711E+02 0.123E+01 0.119E+01   -.802E+02 0.419E+01 -.189E+01   -.396E+02 0.354E+02 -.465E+00   0.478E-04 -.346E-03 0.640E-05
   0.711E+02 -.123E+01 -.119E+01   -.802E+02 -.419E+01 0.189E+01   -.396E+02 -.354E+02 0.465E+00   0.479E-04 0.346E-03 -.637E-05
   0.103E+02 0.878E+02 -.730E+01   -.965E+01 -.859E+02 0.610E+01   -.132E+01 -.173E+01 0.231E+01   0.151E-04 0.128E-03 0.966E-05
   0.931E+01 -.710E+02 -.680E+01   -.837E+01 0.712E+02 0.579E+01   -.129E+01 0.620E+00 0.182E+01   -.925E-05 -.193E-03 0.675E-05
   -.218E+01 0.111E+02 0.246E+01   0.456E+01 -.118E+02 -.105E+01   -.140E+01 0.371E+01 -.268E+01   -.178E-04 -.297E-03 -.121E-04
   -.161E+02 0.936E+01 0.733E+00   0.146E+02 -.131E+02 -.135E+01   0.351E+01 0.494E+01 -.196E+01   0.420E-04 0.212E-04 -.104E-04
   0.494E+02 -.141E+03 0.179E+01   -.563E+02 0.148E+03 -.135E+01   -.391E+02 0.357E+02 -.306E+01   0.810E-04 0.244E-03 -.489E-05
 -----------------------------------------------------------------------------------------------
   0.600E-03 -.394E-02 0.267E-03   0.121E-12 -.853E-13 -.402E-13   0.213E-13 -.142E-13 0.444E-15   -.264E-08 0.489E-06 -.136E-08
 
 
 POSITION                                       TOTAL-FORCE (eV/Angst)
 -----------------------------------------------------------------------------------
      7.24675     14.86138      0.00000        48.702999    -40.810583      1.161838
      5.32660      8.52521      0.64005         0.693950      0.207749      1.113073
      3.40645      2.18905      1.28010         0.345692      0.829377      0.807855
      1.48630     12.14588      1.92015        -0.977598      3.026851     -1.270170
      7.24675      5.80971      2.56020        -1.928692      1.225113     -2.574102
      5.32660     15.76654      3.20025        45.954645     43.498249     -2.620726
      1.48630     10.78813      0.00000        45.954645    -43.498249      2.620726
      7.24675      4.45196      0.64005        -1.928692     -1.225113      2.574102
      5.32660     14.40880      1.28010        -0.977598     -3.026851      1.270170
      3.40645      8.07263      1.92015         0.345692     -0.829377     -0.807855
      1.48630      1.73646      2.56020         0.693950     -0.207749     -1.113073
      7.24675     11.69329      3.20025        48.702999     40.810583     -1.161838
      5.32660     10.78813      0.00000        45.954645    -43.498249      2.620726
      3.40645      4.45196      0.64005        -1.928692     -1.225113      2.574102
      1.48630     14.40880      1.28010        -0.977598     -3.026851      1.270170
      7.24675      8.07263      1.92015         0.345692     -0.829377     -0.807855
      5.32660      1.73646      2.56020         0.693950     -0.207749     -1.113073
      3.40645     11.69329      3.20025        48.702999     40.810583     -1.161838
      3.40645     14.86138      0.00000        48.702999    -40.810583      1.161838
      1.48630      8.52521      0.64005         0.693950      0.207749      1.113073
      7.24675      2.18905      1.28010         0.345692      0.829377      0.807855
      5.32660     12.14588      1.92015        -0.977598      3.026851     -1.270170
      3.40645      5.80971      2.56020        -1.928692      1.225113     -2.574102
      1.48630     15.76654      3.20025        45.954645     43.498249     -2.620726
      0.43385     14.86138      3.20025       -48.702999    -40.810583      1.161838
      2.35399      8.52521      3.84030        -0.693950      0.207749      1.113073
      4.27414      2.18905      4.48035        -0.345692      0.829377      0.807855
      6.19429     12.14588      5.12040         0.977598      3.026851     -1.270170
      0.43385      5.80971      5.76045         1.928692      1.225113     -2.574102
      2.35400     15.76654      6.40050       -45.954645     43.498249     -2.620726
      6.19429     10.78813      3.20025       -45.954645    -43.498249      2.620726
      0.43385      4.45196      3.84030         1.928692     -1.225113      2.574102
      2.35399     14.40880      4.48035         0.977598     -3.026851      1.270170
      4.27415      8.07263      5.12040        -0.345692     -0.829377     -0.807855
      6.19429      1.73646      5.76045        -0.693950     -0.207749     -1.113073
      0.43385     11.69329      0.00000       -48.702999     40.810583     -1.161838
      2.35399     10.78813      3.20025       -45.954645    -43.498249      2.620726
      4.27414      4.45196      3.84030         1.928692     -1.225113      2.574102
      6.19429     14.40880      4.48035         0.977598     -3.026851      1.270170
      0.43385      8.07263      5.12040        -0.345692     -0.829377     -0.807855
      2.35400      1.73646      5.76045        -0.693950     -0.207749     -1.113073
      4.27415     11.69329      0.00000       -48.702999     40.810583     -1.161838
      4.27414     14.86138      3.20025       -48.702999    -40.810583      1.161838
      6.19429      8.52521      3.84030        -0.693950      0.207749      1.113073
      0.43385      2.18905      4.48035        -0.345692      0.829377      0.807855
      2.35399     12.14588      5.12040         0.977598      3.026851     -1.270170
      4.27415      5.80971      5.76045         1.928692      1.225113     -2.574102
      6.19429     15.76654      6.40050       -45.954645     43.498249     -2.620726
 -----------------------------------------------------------------------------------
    total drift:                                0.000600     -0.003942      0.000267


--------------------------------------------------------------------------------------------------------



  FREE ENERGIE OF THE ION-ELECTRON SYSTEM (eV)
  ---------------------------------------------------
  free  energy   TOTEN  =       -91.68203379 eV

  energy  without entropy=      -91.68104666  energy(sigma->0) =      -91.68154023
 


--------------------------------------------------------------------------------------------------------


    POTLOK:  cpu time      0.3142: real time      0.3157


--------------------------------------------------------------------------------------------------------


     LOOP+:  cpu time    144.6687: real time    145.9232
    4ORBIT:  cpu time      0.0000: real time      0.0000

 total amount of memory used by VASP MPI-rank0    77350. kBytes
=======================================================================

   base      :      30000. kBytes
   nonlr-proj:       1640. kBytes
   fftplans  :       5619. kBytes
   grid      :       4126. kBytes
   one-center:         18. kBytes
   wavefun   :      35947. kBytes
 
  
  
 General timing and accounting informations for this job:
 ========================================================
  
                  Total CPU time used (sec):      162.130
                            User time (sec):      158.858
                          System time (sec):        3.273
                         Elapsed time (sec):      164.466
  
                   Maximum memory used (kb):      304292.
                   Average memory used (kb):          N/A
  
                          Minor page faults:       128319
                          Major page faults:           39
                 Voluntary context switches:         1400
