  48  48   0   0
  0.1886565E+02  0.8001338E-09  0.1265123E-08  0.9429669E-09  0.5000000E-15
  1.000000000000000E-004
  CAR 
 Si and Ge interface calculation         
      8.61198970    -13.08663082  301      5.47046300      1.00000000
    -13.087  0.0000E+00  0.0000E+00  0.0000E+00  0.0000E+00
    -13.014  0.0000E+00  0.0000E+00  0.0000E+00  0.0000E+00
    -12.942  0.0000E+00  0.0000E+00  0.0000E+00  0.0000E+00
    -12.870  0.0000E+00  0.0000E+00  0.0000E+00  0.0000E+00
    -12.797  0.0000E+00  0.0000E+00  0.0000E+00  0.0000E+00
    -12.725  0.0000E+00  0.0000E+00  0.0000E+00  0.0000E+00
    -12.653  0.0000E+00  0.0000E+00  0.0000E+00  0.0000E+00
    -12.580  0.0000E+00  0.0000E+00  0.0000E+00  0.0000E+00
    -12.508  0.0000E+00  0.0000E+00  0.0000E+00  0.0000E+00
    -12.436  0.0000E+00  0.0000E+00  0.0000E+00  0.0000E+00
    -12.363  0.0000E+00  0.0000E+00  0.0000E+00  0.0000E+00
    -12.291  0.0000E+00  0.0000E+00  0.0000E+00  0.0000E+00
    -12.219  0.0000E+00  0.0000E+00  0.0000E+00  0.0000E+00
    -12.146  0.1492E-09  0.0000E+00  0.1079E-10  0.0000E+00
    -12.074  0.6912E+01  0.4736E+01  0.4999E+00  0.3425E+00
    -12.002  0.1693E-01  0.2177E+01  0.5012E+00  0.5000E+00
    -11.929  0.1381E+02  0.1383E+02  0.1500E+01  0.1500E+01
    -11.857  0.0000E+00  0.0000E+00  0.1500E+01  0.1500E+01
    -11.785  0.0000E+00  0.0000E+00  0.1500E+01  0.1500E+01
    -11.712  0.0000E+00  0.0000E+00  0.1500E+01  0.1500E+01
    -11.640  0.3962E+01  0.1681E-02  0.1787E+01  0.1500E+01
    -11.568  0.9863E+01  0.1382E+02  0.2500E+01  0.2500E+01
    -11.495  0.0000E+00  0.0000E+00  0.2500E+01  0.2500E+01
    -11.423  0.0000E+00  0.0000E+00  0.2500E+01  0.2500E+01
    -11.351  0.0000E+00  0.0000E+00  0.2500E+01  0.2500E+01
    -11.278  0.0000E+00  0.0000E+00  0.2500E+01  0.2500E+01
    -11.206  0.0000E+00  0.0000E+00  0.2500E+01  0.2500E+01
    -11.134  0.1229E+02  0.4679E+00  0.3389E+01  0.2534E+01
    -11.061  0.0000E+00  0.1336E+02  0.3500E+01  0.3500E+01
    -10.989  0.0000E+00  0.0000E+00  0.3500E+01  0.3500E+01
    -10.917  0.0000E+00  0.0000E+00  0.3500E+01  0.3500E+01
    -10.844  0.9146E-01  0.6970E-06  0.3507E+01  0.3500E+01
    -10.772  0.6821E+01  0.6913E+01  0.4000E+01  0.4000E+01
    -10.700  0.0000E+00  0.0000E+00  0.4000E+01  0.4000E+01
    -10.627  0.9849E+00  0.3387E-03  0.4071E+01  0.4000E+01
    -10.555  0.5928E+01  0.6913E+01  0.4500E+01  0.4500E+01
    -10.483  0.6787E+01  0.3051E-01  0.4991E+01  0.4502E+01
    -10.410  0.7039E+01  0.1380E+02  0.5500E+01  0.5500E+01
    -10.338  0.0000E+00  0.0000E+00  0.5500E+01  0.5500E+01
    -10.266  0.0000E+00  0.0000E+00  0.5500E+01  0.5500E+01
    -10.193  0.0000E+00  0.0000E+00  0.5500E+01  0.5500E+01
    -10.121  0.1029E-08  0.0000E+00  0.5500E+01  0.5500E+01
    -10.049  0.1382E+02  0.1056E+02  0.6500E+01  0.6264E+01
     -9.976  0.0000E+00  0.3076E+01  0.6500E+01  0.6500E+01
     -9.904  0.0000E+00  0.0000E+00  0.6500E+01  0.6500E+01
     -9.832  0.0000E+00  0.0000E+00  0.6500E+01  0.6500E+01
     -9.760  0.0000E+00  0.0000E+00  0.6500E+01  0.6500E+01
     -9.687  0.0000E+00  0.0000E+00  0.6500E+01  0.6500E+01
     -9.615  0.0000E+00  0.0000E+00  0.6500E+01  0.6500E+01
     -9.543  0.0000E+00  0.0000E+00  0.6500E+01  0.6500E+01
     -9.470  0.6822E-15  0.0000E+00  0.6500E+01  0.6500E+01
     -9.398  0.1322E+02  0.1832E+01  0.7456E+01  0.6633E+01
     -9.326  0.0000E+00  0.1199E+02  0.7500E+01  0.7500E+01
     -9.253  0.0000E+00  0.0000E+00  0.7500E+01  0.7500E+01
     -9.181  0.0000E+00  0.0000E+00  0.7500E+01  0.7500E+01
     -9.109  0.0000E+00  0.0000E+00  0.7500E+01  0.7500E+01
     -9.036  0.0000E+00  0.0000E+00  0.7500E+01  0.7500E+01
     -8.964  0.0000E+00  0.0000E+00  0.7500E+01  0.7500E+01
     -8.892  0.0000E+00  0.0000E+00  0.7500E+01  0.7500E+01
     -8.819  0.6222E+01  0.1367E+00  0.7950E+01  0.7510E+01
     -8.747  0.2206E+00  0.6776E+01  0.8000E+01  0.8000E+01
     -8.675  0.2071E+02  0.1111E+02  0.9498E+01  0.8804E+01
     -8.602  0.1348E+01  0.9372E+01  0.9598E+01  0.9500E+01
     -8.530  0.5565E+01  0.6912E+01  0.1000E+02  0.1000E+02
     -8.458  0.0000E+00  0.0000E+00  0.1000E+02  0.1000E+02
     -8.385  0.3797E+00  0.2182E-04  0.1003E+02  0.1000E+02
     -8.313  0.1189E+02  0.6915E+01  0.1089E+02  0.1050E+02
     -8.241  0.8465E+01  0.1382E+02  0.1150E+02  0.1150E+02
     -8.168  0.5628E-14  0.0000E+00  0.1150E+02  0.1150E+02
     -8.096  0.1351E+02  0.1164E+01  0.1248E+02  0.1158E+02
     -8.024  0.0000E+00  0.1266E+02  0.1250E+02  0.1250E+02
     -7.951  0.0000E+00  0.0000E+00  0.1250E+02  0.1250E+02
     -7.879  0.4274E-04  0.2395E-12  0.1250E+02  0.1250E+02
     -7.807  0.1383E+02  0.1360E+02  0.1350E+02  0.1348E+02
     -7.734  0.0000E+00  0.0000E+00  0.1350E+02  0.1350E+02
     -7.662  0.0000E+00  0.0000E+00  0.1350E+02  0.1350E+02
     -7.590  0.0000E+00  0.0000E+00  0.1350E+02  0.1350E+02
     -7.517  0.0000E+00  0.0000E+00  0.1350E+02  0.1350E+02
     -7.445  0.0000E+00  0.0000E+00  0.1350E+02  0.1350E+02
     -7.373  0.1442E-02  0.2642E-08  0.1350E+02  0.1350E+02
     -7.300  0.4607E+01  0.4551E+01  0.1383E+02  0.1383E+02
     -7.228  0.3076E+01  0.9564E-01  0.1406E+02  0.1384E+02
     -7.156  0.5944E+01  0.9122E+01  0.1450E+02  0.1450E+02
     -7.083  0.1022E+02  0.1762E+00  0.1524E+02  0.1451E+02
     -7.011  0.2355E+02  0.2915E+02  0.1695E+02  0.1662E+02
     -6.939  0.1115E+02  0.1111E+02  0.1777E+02  0.1743E+02
     -6.866  0.6597E+01  0.1009E+02  0.1827E+02  0.1816E+02
     -6.794  0.1126E+02  0.1163E+02  0.1908E+02  0.1901E+02
     -6.722  0.4479E+01  0.2795E+01  0.1940E+02  0.1922E+02
     -6.649  0.9009E+01  0.1161E+02  0.2006E+02  0.2005E+02
     -6.577  0.5457E+01  0.3237E+01  0.2045E+02  0.2029E+02
     -6.505  0.1200E+02  0.8658E+01  0.2132E+02  0.2092E+02
     -6.432  0.7587E+01  0.1071E+02  0.2187E+02  0.2170E+02
     -6.360  0.8349E+01  0.7672E+01  0.2248E+02  0.2225E+02
     -6.288  0.9823E+01  0.1020E+02  0.2320E+02  0.2300E+02
     -6.215  0.9455E+01  0.1154E+02  0.2389E+02  0.2384E+02
     -6.143  0.6973E+01  0.4502E+01  0.2440E+02  0.2418E+02
     -6.071  0.5718E+01  0.7601E+01  0.2482E+02  0.2473E+02
     -5.998  0.4435E+01  0.3741E+01  0.2514E+02  0.2500E+02
     -5.926  0.8892E+01  0.8234E+01  0.2578E+02  0.2560E+02
     -5.854  0.1456E+02  0.1082E+02  0.2685E+02  0.2638E+02
     -5.781  0.1614E+02  0.1970E+02  0.2802E+02  0.2782E+02
     -5.709  0.1470E+02  0.1262E+02  0.2909E+02  0.2873E+02
     -5.637  0.1142E+02  0.1245E+02  0.2993E+02  0.2964E+02
     -5.564  0.2241E+02  0.2199E+02  0.3155E+02  0.3123E+02
     -5.492  0.1242E+02  0.1315E+02  0.3246E+02  0.3219E+02
     -5.420  0.1839E+02  0.1730E+02  0.3379E+02  0.3345E+02
     -5.347  0.1206E+02  0.1075E+02  0.3467E+02  0.3425E+02
     -5.275  0.1542E+02  0.1537E+02  0.3581E+02  0.3536E+02
     -5.203  0.1690E+02  0.1998E+02  0.3704E+02  0.3680E+02
     -5.130  0.1330E+02  0.1387E+02  0.3802E+02  0.3782E+02
     -5.058  0.1989E+02  0.1761E+02  0.3946E+02  0.3911E+02
     -4.986  0.7995E+01  0.1006E+02  0.4004E+02  0.3984E+02
     -4.913  0.1730E+02  0.1765E+02  0.4129E+02  0.4111E+02
     -4.841  0.2873E+01  0.4568E+01  0.4150E+02  0.4145E+02
     -4.769  0.9529E+01  0.9007E+01  0.4219E+02  0.4210E+02
     -4.696  0.8722E+01  0.9002E+01  0.4282E+02  0.4276E+02
     -4.624  0.2061E+01  0.2302E+01  0.4297E+02  0.4294E+02
     -4.552  0.9060E+01  0.7712E+01  0.4362E+02  0.4350E+02
     -4.480  0.3642E+01  0.4421E+01  0.4389E+02  0.4382E+02
     -4.407  0.9133E+01  0.9413E+01  0.4456E+02  0.4451E+02
     -4.335  0.1377E+02  0.7876E+01  0.4555E+02  0.4509E+02
     -4.263  0.1446E+02  0.2062E+02  0.4661E+02  0.4658E+02
     -4.190  0.1244E+02  0.9269E+01  0.4751E+02  0.4726E+02
     -4.118  0.1059E+02  0.1215E+02  0.4829E+02  0.4815E+02
     -4.046  0.7916E+01  0.9469E+01  0.4886E+02  0.4883E+02
     -3.973  0.1136E+02  0.1064E+02  0.4968E+02  0.4960E+02
     -3.901  0.9764E+01  0.7372E+01  0.5039E+02  0.5015E+02
     -3.829  0.7252E+01  0.7458E+01  0.5093E+02  0.5070E+02
     -3.756  0.1191E+02  0.1028E+02  0.5179E+02  0.5145E+02
     -3.684  0.2771E+02  0.2684E+02  0.5380E+02  0.5340E+02
     -3.612  0.1260E+02  0.1674E+02  0.5473E+02  0.5461E+02
     -3.539  0.1287E+02  0.1138E+02  0.5566E+02  0.5543E+02
     -3.467  0.9507E+01  0.1098E+02  0.5635E+02  0.5623E+02
     -3.395  0.1395E+02  0.1340E+02  0.5735E+02  0.5720E+02
     -3.322  0.9908E+01  0.9535E+01  0.5807E+02  0.5789E+02
     -3.250  0.7583E+01  0.5471E+01  0.5862E+02  0.5830E+02
     -3.178  0.1488E+02  0.1601E+02  0.5970E+02  0.5945E+02
     -3.105  0.1182E+02  0.1233E+02  0.6057E+02  0.6035E+02
     -3.033  0.1462E+02  0.1315E+02  0.6164E+02  0.6131E+02
     -2.961  0.1037E+02  0.7826E+01  0.6239E+02  0.6189E+02
     -2.888  0.1116E+02  0.1645E+02  0.6321E+02  0.6308E+02
     -2.816  0.6525E+01  0.3560E+01  0.6369E+02  0.6335E+02
     -2.744  0.7693E+01  0.1127E+02  0.6426E+02  0.6417E+02
     -2.671  0.1233E+02  0.1018E+02  0.6515E+02  0.6491E+02
     -2.599  0.7716E+01  0.9527E+01  0.6572E+02  0.6560E+02
     -2.527  0.1637E+02  0.1250E+02  0.6691E+02  0.6651E+02
     -2.454  0.1576E+02  0.1475E+02  0.6805E+02  0.6758E+02
     -2.382  0.1443E+02  0.1686E+02  0.6910E+02  0.6880E+02
     -2.310  0.1350E+02  0.1083E+02  0.7008E+02  0.6959E+02
     -2.237  0.1338E+02  0.1832E+02  0.7107E+02  0.7092E+02
     -2.165  0.1437E+02  0.1221E+02  0.7211E+02  0.7180E+02
     -2.093  0.1240E+02  0.1243E+02  0.7302E+02  0.7271E+02
     -2.020  0.1338E+02  0.1594E+02  0.7400E+02  0.7388E+02
     -1.948  0.1036E+02  0.1002E+02  0.7475E+02  0.7461E+02
     -1.876  0.7917E+01  0.6386E+01  0.7532E+02  0.7508E+02
     -1.803  0.8663E+01  0.5434E+01  0.7595E+02  0.7547E+02
     -1.731  0.1337E+02  0.1805E+02  0.7693E+02  0.7677E+02
     -1.659  0.1421E+02  0.1063E+02  0.7796E+02  0.7755E+02
     -1.586  0.1406E+02  0.1822E+02  0.7899E+02  0.7887E+02
     -1.514  0.1371E+02  0.1404E+02  0.7998E+02  0.7990E+02
     -1.442  0.2519E+02  0.2162E+02  0.8180E+02  0.8149E+02
     -1.369  0.1911E+02  0.1486E+02  0.8318E+02  0.8258E+02
     -1.297  0.2463E+02  0.2728E+02  0.8499E+02  0.8455E+02
     -1.225  0.1642E+02  0.2070E+02  0.8619E+02  0.8606E+02
     -1.152  0.1682E+02  0.8496E+01  0.8741E+02  0.8669E+02
     -1.080  0.2465E+02  0.2867E+02  0.8923E+02  0.8876E+02
     -1.008  0.8129E+01  0.1349E+02  0.8983E+02  0.8974E+02
     -0.935  0.1630E+02  0.1206E+02  0.9101E+02  0.9062E+02
     -0.863  0.1405E+02  0.1552E+02  0.9205E+02  0.9175E+02
     -0.791  0.5458E+01  0.8784E+01  0.9244E+02  0.9240E+02
     -0.718  0.3788E+01  0.3609E+01  0.9272E+02  0.9266E+02
     -0.646  0.2314E+02  0.1871E+02  0.9439E+02  0.9402E+02
     -0.574  0.1310E+02  0.1638E+02  0.9535E+02  0.9523E+02
     -0.501  0.9245E+01  0.7941E+01  0.9602E+02  0.9581E+02
     -0.429  0.1420E+02  0.1060E+02  0.9705E+02  0.9658E+02
     -0.357  0.9400E+01  0.1420E+02  0.9776E+02  0.9761E+02
     -0.284  0.1331E+02  0.1233E+02  0.9872E+02  0.9850E+02
     -0.212  0.3815E+01  0.5501E+01  0.9900E+02  0.9890E+02
     -0.140  0.1689E+02  0.1216E+02  0.1002E+03  0.9978E+02
     -0.067  0.1716E+02  0.1958E+02  0.1015E+03  0.1012E+03
      0.005  0.1039E+02  0.9781E+01  0.1022E+03  0.1019E+03
      0.077  0.4298E+01  0.8504E+01  0.1026E+03  0.1025E+03
      0.150  0.1233E+02  0.7639E+01  0.1034E+03  0.1031E+03
      0.222  0.8085E+01  0.1210E+02  0.1040E+03  0.1040E+03
      0.294  0.1384E+02  0.1040E+02  0.1050E+03  0.1047E+03
      0.367  0.1700E+02  0.1610E+02  0.1063E+03  0.1059E+03
      0.439  0.8576E+01  0.1273E+02  0.1069E+03  0.1068E+03
      0.511  0.7806E+01  0.4098E+01  0.1075E+03  0.1071E+03
      0.584  0.8335E+01  0.9623E+01  0.1081E+03  0.1078E+03
      0.656  0.1282E+02  0.1376E+02  0.1091E+03  0.1088E+03
      0.728  0.1993E+02  0.2052E+02  0.1105E+03  0.1103E+03
      0.800  0.9594E+01  0.8190E+01  0.1112E+03  0.1109E+03
      0.873  0.1030E+02  0.1299E+02  0.1119E+03  0.1119E+03
      0.945  0.1477E+02  0.1074E+02  0.1130E+03  0.1126E+03
      1.017  0.1046E+02  0.1429E+02  0.1138E+03  0.1137E+03
      1.090  0.1473E+01  0.2821E+01  0.1139E+03  0.1139E+03
      1.162  0.1060E+02  0.8369E+01  0.1147E+03  0.1145E+03
      1.234  0.2201E+02  0.1857E+02  0.1162E+03  0.1158E+03
      1.307  0.1575E+02  0.1704E+02  0.1174E+03  0.1171E+03
      1.379  0.1862E+02  0.1878E+02  0.1188E+03  0.1184E+03
      1.451  0.8412E+01  0.1057E+02  0.1194E+03  0.1192E+03
      1.524  0.1032E+02  0.8948E+01  0.1201E+03  0.1199E+03
      1.596  0.1849E+02  0.1951E+02  0.1215E+03  0.1213E+03
      1.668  0.2133E+02  0.1808E+02  0.1230E+03  0.1226E+03
      1.741  0.1794E+02  0.2088E+02  0.1244E+03  0.1241E+03
      1.813  0.1792E+02  0.1893E+02  0.1257E+03  0.1255E+03
      1.885  0.2889E+02  0.2342E+02  0.1277E+03  0.1272E+03
      1.958  0.1569E+02  0.1816E+02  0.1289E+03  0.1285E+03
      2.030  0.2728E+02  0.2615E+02  0.1309E+03  0.1304E+03
      2.102  0.2443E+02  0.2411E+02  0.1327E+03  0.1322E+03
      2.175  0.2298E+02  0.2397E+02  0.1343E+03  0.1340E+03
      2.247  0.1587E+02  0.1688E+02  0.1355E+03  0.1352E+03
      2.319  0.1953E+02  0.2085E+02  0.1369E+03  0.1367E+03
      2.392  0.1524E+02  0.1627E+02  0.1380E+03  0.1379E+03
      2.464  0.1111E+02  0.9630E+01  0.1388E+03  0.1386E+03
      2.536  0.2091E+02  0.2278E+02  0.1403E+03  0.1403E+03
      2.609  0.2197E+02  0.1615E+02  0.1419E+03  0.1414E+03
      2.681  0.2538E+02  0.2667E+02  0.1438E+03  0.1434E+03
      2.753  0.2412E+02  0.2285E+02  0.1455E+03  0.1450E+03
      2.826  0.2852E+02  0.2889E+02  0.1476E+03  0.1471E+03
      2.898  0.2347E+02  0.2268E+02  0.1493E+03  0.1488E+03
      2.970  0.2638E+02  0.2557E+02  0.1512E+03  0.1507E+03
      3.043  0.1333E+02  0.1565E+02  0.1522E+03  0.1518E+03
      3.115  0.1578E+02  0.1823E+02  0.1533E+03  0.1531E+03
      3.187  0.2070E+02  0.1825E+02  0.1548E+03  0.1544E+03
      3.260  0.1481E+02  0.1637E+02  0.1559E+03  0.1557E+03
      3.332  0.1795E+02  0.1611E+02  0.1572E+03  0.1568E+03
      3.404  0.1650E+02  0.1822E+02  0.1584E+03  0.1582E+03
      3.477  0.1797E+02  0.1712E+02  0.1597E+03  0.1594E+03
      3.549  0.2311E+02  0.2408E+02  0.1614E+03  0.1612E+03
      3.621  0.1910E+02  0.1691E+02  0.1628E+03  0.1624E+03
      3.694  0.5450E+01  0.9611E+01  0.1632E+03  0.1631E+03
      3.766  0.1676E+02  0.1290E+02  0.1644E+03  0.1640E+03
      3.838  0.1243E+02  0.1402E+02  0.1653E+03  0.1651E+03
      3.911  0.2238E+02  0.2067E+02  0.1670E+03  0.1666E+03
      3.983  0.1560E+02  0.1338E+02  0.1681E+03  0.1675E+03
      4.055  0.1495E+02  0.1621E+02  0.1692E+03  0.1687E+03
      4.128  0.1260E+02  0.1424E+02  0.1701E+03  0.1698E+03
      4.200  0.1377E+02  0.1155E+02  0.1711E+03  0.1706E+03
      4.272  0.1669E+02  0.1790E+02  0.1724E+03  0.1719E+03
      4.345  0.1691E+02  0.1601E+02  0.1736E+03  0.1731E+03
      4.417  0.2168E+02  0.2127E+02  0.1752E+03  0.1746E+03
      4.489  0.8301E+01  0.1504E+02  0.1758E+03  0.1757E+03
      4.562  0.8057E+01  0.6271E+01  0.1764E+03  0.1762E+03
      4.634  0.1383E+02  0.1144E+02  0.1774E+03  0.1770E+03
      4.706  0.1495E+02  0.1807E+02  0.1785E+03  0.1783E+03
      4.779  0.2060E+02  0.1927E+02  0.1800E+03  0.1797E+03
      4.851  0.2179E+02  0.1948E+02  0.1815E+03  0.1811E+03
      4.923  0.1150E+02  0.1328E+02  0.1824E+03  0.1821E+03
      4.996  0.1160E+02  0.1366E+02  0.1832E+03  0.1831E+03
      5.068  0.9097E+01  0.7721E+01  0.1839E+03  0.1837E+03
      5.140  0.2231E+02  0.1556E+02  0.1855E+03  0.1848E+03
      5.213  0.3121E+02  0.2958E+02  0.1878E+03  0.1870E+03
      5.285  0.1229E+02  0.2119E+02  0.1887E+03  0.1885E+03
      5.357  0.1125E+02  0.8179E+01  0.1895E+03  0.1891E+03
      5.430  0.1603E+02  0.1477E+02  0.1906E+03  0.1902E+03
      5.502  0.2179E+02  0.2308E+02  0.1922E+03  0.1919E+03
      5.574  0.2539E+02  0.2292E+02  0.1941E+03  0.1935E+03
      5.647  0.1964E+02  0.2183E+02  0.1955E+03  0.1951E+03
      5.719  0.1334E+02  0.1270E+02  0.1965E+03  0.1960E+03
      5.791  0.1953E+02  0.1791E+02  0.1979E+03  0.1973E+03
      5.863  0.2198E+02  0.2333E+02  0.1995E+03  0.1990E+03
      5.936  0.2552E+02  0.2100E+02  0.2014E+03  0.2005E+03
      6.008  0.1813E+02  0.2423E+02  0.2027E+03  0.2023E+03
      6.080  0.1325E+02  0.1393E+02  0.2036E+03  0.2033E+03
      6.153  0.2886E+02  0.2536E+02  0.2057E+03  0.2052E+03
      6.225  0.1843E+02  0.1583E+02  0.2071E+03  0.2063E+03
      6.297  0.1053E+02  0.1714E+02  0.2079E+03  0.2076E+03
      6.370  0.1754E+02  0.1127E+02  0.2091E+03  0.2084E+03
      6.442  0.1302E+02  0.2118E+02  0.2101E+03  0.2099E+03
      6.514  0.2087E+02  0.1657E+02  0.2116E+03  0.2111E+03
      6.587  0.1547E+02  0.1646E+02  0.2128E+03  0.2123E+03
      6.659  0.2185E+02  0.2098E+02  0.2144E+03  0.2139E+03
      6.731  0.2237E+02  0.1984E+02  0.2160E+03  0.2153E+03
      6.804  0.1746E+02  0.2009E+02  0.2173E+03  0.2167E+03
      6.876  0.1983E+02  0.2227E+02  0.2187E+03  0.2184E+03
      6.948  0.2781E+02  0.2415E+02  0.2207E+03  0.2201E+03
      7.021  0.1806E+02  0.2122E+02  0.2221E+03  0.2217E+03
      7.093  0.1841E+02  0.1480E+02  0.2234E+03  0.2228E+03
      7.165  0.2344E+02  0.2212E+02  0.2251E+03  0.2244E+03
      7.238  0.1699E+02  0.2330E+02  0.2264E+03  0.2261E+03
      7.310  0.1574E+02  0.1373E+02  0.2275E+03  0.2271E+03
      7.382  0.1476E+02  0.1726E+02  0.2286E+03  0.2284E+03
      7.455  0.2642E+02  0.2220E+02  0.2305E+03  0.2300E+03
      7.527  0.1386E+02  0.1694E+02  0.2315E+03  0.2312E+03
      7.599  0.5351E+01  0.8188E+01  0.2319E+03  0.2318E+03
      7.672  0.1214E+01  0.2554E+01  0.2320E+03  0.2320E+03
      7.744  0.0000E+00  0.0000E+00  0.2320E+03  0.2320E+03
      7.816  0.0000E+00  0.0000E+00  0.2320E+03  0.2320E+03
      7.889  0.0000E+00  0.0000E+00  0.2320E+03  0.2320E+03
      7.961  0.0000E+00  0.0000E+00  0.2320E+03  0.2320E+03
      8.033  0.0000E+00  0.0000E+00  0.2320E+03  0.2320E+03
      8.106  0.0000E+00  0.0000E+00  0.2320E+03  0.2320E+03
      8.178  0.0000E+00  0.0000E+00  0.2320E+03  0.2320E+03
      8.250  0.0000E+00  0.0000E+00  0.2320E+03  0.2320E+03
      8.323  0.0000E+00  0.0000E+00  0.2320E+03  0.2320E+03
      8.395  0.0000E+00  0.0000E+00  0.2320E+03  0.2320E+03
      8.467  0.0000E+00  0.0000E+00  0.2320E+03  0.2320E+03
      8.540  0.0000E+00  0.0000E+00  0.2320E+03  0.2320E+03
      8.612  0.0000E+00  0.0000E+00  0.2320E+03  0.2320E+03
