 168 168   0   0
  0.2680330E+02  0.1600268E-08  0.1600268E-08  0.2030401E-08  0.5000000E-15
  1.000000000000000E-004
  CAR 
 Si and Ge interface calculation         
      6.62284681     -9.48806785  301      3.63360635      1.00000000
     -9.488  0.0000E+00  0.0000E+00  0.0000E+00  0.0000E+00
     -9.434  0.0000E+00  0.0000E+00  0.0000E+00  0.0000E+00
     -9.381  0.0000E+00  0.0000E+00  0.0000E+00  0.0000E+00
     -9.327  0.0000E+00  0.0000E+00  0.0000E+00  0.0000E+00
     -9.273  0.0000E+00  0.0000E+00  0.0000E+00  0.0000E+00
     -9.220  0.0000E+00  0.0000E+00  0.0000E+00  0.0000E+00
     -9.166  0.0000E+00  0.0000E+00  0.0000E+00  0.0000E+00
     -9.112  0.0000E+00  0.0000E+00  0.0000E+00  0.0000E+00
     -9.058  0.0000E+00  0.0000E+00  0.0000E+00  0.0000E+00
     -9.005  0.0000E+00  0.0000E+00  0.0000E+00  0.0000E+00
     -8.951  0.0000E+00  0.0000E+00  0.0000E+00  0.0000E+00
     -8.897  0.0000E+00  0.0000E+00  0.0000E+00  0.0000E+00
     -8.844  0.0000E+00  0.0000E+00  0.0000E+00  0.0000E+00
     -8.790  0.5709E-05  0.1336E-06  0.3066E-06  0.7174E-08
     -8.736  0.9282E+01  0.9120E+01  0.4985E+00  0.4898E+00
     -8.683  0.2842E-01  0.1906E+00  0.5000E+00  0.5000E+00
     -8.629  0.2691E-07  0.2735E-09  0.5000E+00  0.5000E+00
     -8.575  0.5197E+02  0.4377E+02  0.3291E+01  0.2850E+01
     -8.521  0.3893E+01  0.1210E+02  0.3500E+01  0.3500E+01
     -8.468  0.0000E+00  0.0000E+00  0.3500E+01  0.3500E+01
     -8.414  0.0000E+00  0.0000E+00  0.3500E+01  0.3500E+01
     -8.360  0.1063E-01  0.4805E-03  0.3501E+01  0.3500E+01
     -8.307  0.9300E+01  0.9309E+01  0.4000E+01  0.4000E+01
     -8.253  0.2274E+02  0.1002E+02  0.5221E+01  0.4538E+01
     -8.199  0.3312E+02  0.4584E+02  0.7000E+01  0.7000E+01
     -8.145  0.5580E+02  0.5517E+02  0.9997E+01  0.9963E+01
     -8.092  0.2572E+02  0.2236E+02  0.1138E+02  0.1116E+02
     -8.038  0.3021E+02  0.3420E+02  0.1300E+02  0.1300E+02
     -7.984  0.0000E+00  0.0000E+00  0.1300E+02  0.1300E+02
     -7.931  0.0000E+00  0.0000E+00  0.1300E+02  0.1300E+02
     -7.877  0.2755E-07  0.1505E-09  0.1300E+02  0.1300E+02
     -7.823  0.5181E+02  0.4189E+02  0.1578E+02  0.1525E+02
     -7.770  0.4052E+01  0.1397E+02  0.1600E+02  0.1600E+02
     -7.716  0.7939E-04  0.7216E-05  0.1600E+02  0.1600E+02
     -7.662  0.2823E+02  0.2778E+02  0.1752E+02  0.1749E+02
     -7.608  0.8398E+02  0.7919E+02  0.2203E+02  0.2174E+02
     -7.555  0.5537E+02  0.6062E+02  0.2500E+02  0.2500E+02
     -7.501  0.8379E+01  0.7251E+01  0.2545E+02  0.2539E+02
     -7.447  0.9317E+00  0.2059E+01  0.2550E+02  0.2550E+02
     -7.394  0.1434E-08  0.5819E-10  0.2550E+02  0.2550E+02
     -7.340  0.4126E+02  0.3263E+02  0.2772E+02  0.2725E+02
     -7.286  0.7047E+02  0.7909E+02  0.3150E+02  0.3150E+02
     -7.233  0.2972E-01  0.4696E-02  0.3150E+02  0.3150E+02
     -7.179  0.6338E+02  0.5656E+02  0.3491E+02  0.3454E+02
     -7.125  0.4832E+02  0.5516E+02  0.3750E+02  0.3750E+02
     -7.071  0.0000E+00  0.0000E+00  0.3750E+02  0.3750E+02
     -7.018  0.1492E+00  0.1957E-01  0.3751E+02  0.3750E+02
     -6.964  0.5571E+02  0.5583E+02  0.4050E+02  0.4050E+02
     -6.910  0.8271E+02  0.7915E+02  0.4494E+02  0.4475E+02
     -6.857  0.2927E+02  0.2153E+02  0.4651E+02  0.4591E+02
     -6.803  0.8936E+02  0.9568E+02  0.5131E+02  0.5104E+02
     -6.749  0.3160E+02  0.3026E+02  0.5301E+02  0.5267E+02
     -6.696  0.6500E+02  0.7132E+02  0.5650E+02  0.5650E+02
     -6.642  0.8396E+01  0.5732E+01  0.5695E+02  0.5681E+02
     -6.588  0.1539E+02  0.1166E+02  0.5778E+02  0.5743E+02
     -6.534  0.2788E+02  0.2827E+02  0.5927E+02  0.5895E+02
     -6.481  0.4769E+02  0.5290E+02  0.6184E+02  0.6179E+02
     -6.427  0.2177E+02  0.2249E+02  0.6300E+02  0.6300E+02
     -6.373  0.9240E+02  0.8405E+02  0.6797E+02  0.6751E+02
     -6.320  0.1225E+03  0.1141E+03  0.7455E+02  0.7364E+02
     -6.266  0.3640E+02  0.5322E+02  0.7650E+02  0.7650E+02
     -6.212  0.2501E+02  0.1570E+02  0.7785E+02  0.7734E+02
     -6.158  0.4028E+02  0.4951E+02  0.8001E+02  0.8000E+02
     -6.105  0.4529E+01  0.4618E+01  0.8025E+02  0.8025E+02
     -6.051  0.7857E+02  0.7352E+02  0.8447E+02  0.8420E+02
     -5.997  0.6012E+01  0.1054E+02  0.8479E+02  0.8476E+02
     -5.944  0.1111E+03  0.9073E+02  0.9076E+02  0.8964E+02
     -5.890  0.1857E+02  0.3938E+02  0.9176E+02  0.9175E+02
     -5.836  0.3289E+02  0.2938E+02  0.9353E+02  0.9333E+02
     -5.783  0.8798E+02  0.7760E+02  0.9825E+02  0.9750E+02
     -5.729  0.5120E+02  0.6523E+02  0.1010E+03  0.1010E+03
     -5.675  0.2348E+02  0.1796E+02  0.1023E+03  0.1020E+03
     -5.621  0.4456E+01  0.9974E+01  0.1025E+03  0.1025E+03
     -5.568  0.1182E+02  0.4304E+01  0.1031E+03  0.1027E+03
     -5.514  0.8901E+02  0.8466E+02  0.1079E+03  0.1073E+03
     -5.460  0.6408E+02  0.6677E+02  0.1114E+03  0.1109E+03
     -5.407  0.6717E+02  0.7036E+02  0.1150E+03  0.1146E+03
     -5.353  0.2297E+02  0.2224E+02  0.1162E+03  0.1158E+03
     -5.299  0.8109E+02  0.7409E+02  0.1206E+03  0.1198E+03
     -5.246  0.5190E+02  0.6234E+02  0.1233E+03  0.1232E+03
     -5.192  0.2180E+02  0.2492E+02  0.1245E+03  0.1245E+03
     -5.138  0.5581E+02  0.5537E+02  0.1275E+03  0.1275E+03
     -5.084  0.5744E+02  0.5533E+02  0.1306E+03  0.1304E+03
     -5.031  0.3845E+02  0.3842E+02  0.1327E+03  0.1325E+03
     -4.977  0.9191E+02  0.8196E+02  0.1376E+03  0.1369E+03
     -4.923  0.5372E+02  0.5739E+02  0.1405E+03  0.1400E+03
     -4.870  0.6512E+02  0.6254E+02  0.1440E+03  0.1434E+03
     -4.816  0.6734E+02  0.7375E+02  0.1476E+03  0.1473E+03
     -4.762  0.8981E+02  0.9270E+02  0.1524E+03  0.1523E+03
     -4.708  0.4399E+02  0.3846E+02  0.1548E+03  0.1544E+03
     -4.655  0.2361E+02  0.3073E+02  0.1560E+03  0.1560E+03
     -4.601  0.4109E+02  0.4177E+02  0.1583E+03  0.1582E+03
     -4.547  0.4003E+02  0.3524E+02  0.1604E+03  0.1601E+03
     -4.494  0.2139E+02  0.2347E+02  0.1615E+03  0.1614E+03
     -4.440  0.2714E+02  0.2773E+02  0.1630E+03  0.1629E+03
     -4.386  0.5449E+02  0.4676E+02  0.1659E+03  0.1654E+03
     -4.333  0.8959E+02  0.9632E+02  0.1707E+03  0.1706E+03
     -4.279  0.3931E+02  0.3591E+02  0.1729E+03  0.1725E+03
     -4.225  0.4755E+02  0.5075E+02  0.1754E+03  0.1752E+03
     -4.171  0.2963E+02  0.3296E+02  0.1770E+03  0.1770E+03
     -4.118  0.3785E+02  0.3157E+02  0.1790E+03  0.1787E+03
     -4.064  0.6342E+02  0.6120E+02  0.1824E+03  0.1820E+03
     -4.010  0.1046E+02  0.1895E+02  0.1830E+03  0.1830E+03
     -3.957  0.1398E+02  0.1396E+02  0.1838E+03  0.1837E+03
     -3.903  0.2810E+02  0.2794E+02  0.1853E+03  0.1853E+03
     -3.849  0.6141E+02  0.5837E+02  0.1886E+03  0.1884E+03
     -3.796  0.5929E+02  0.6088E+02  0.1917E+03  0.1917E+03
     -3.742  0.5874E+02  0.5475E+02  0.1949E+03  0.1946E+03
     -3.688  0.5757E+02  0.6092E+02  0.1980E+03  0.1979E+03
     -3.634  0.7456E+02  0.6981E+02  0.2020E+03  0.2016E+03
     -3.581  0.4811E+01  0.1182E+02  0.2023E+03  0.2023E+03
     -3.527  0.6681E+02  0.5610E+02  0.2058E+03  0.2053E+03
     -3.473  0.5824E+02  0.6654E+02  0.2090E+03  0.2088E+03
     -3.420  0.5648E+02  0.5882E+02  0.2120E+03  0.2120E+03
     -3.366  0.4067E+01  0.1273E+01  0.2122E+03  0.2121E+03
     -3.312  0.5181E+02  0.5468E+02  0.2150E+03  0.2150E+03
     -3.259  0.2453E+02  0.1820E+02  0.2163E+03  0.2160E+03
     -3.205  0.9099E+02  0.9584E+02  0.2212E+03  0.2211E+03
     -3.151  0.1024E+03  0.9637E+02  0.2267E+03  0.2263E+03
     -3.097  0.2880E+02  0.3632E+02  0.2282E+03  0.2282E+03
     -3.044  0.4388E+02  0.3072E+02  0.2306E+03  0.2299E+03
     -2.990  0.7409E+02  0.8590E+02  0.2346E+03  0.2345E+03
     -2.936  0.7769E+02  0.7533E+02  0.2388E+03  0.2386E+03
     -2.883  0.8830E+02  0.9193E+02  0.2435E+03  0.2435E+03
     -2.829  0.2798E+02  0.2789E+02  0.2450E+03  0.2450E+03
     -2.775  0.5303E+02  0.4313E+02  0.2479E+03  0.2473E+03
     -2.721  0.9013E+02  0.8967E+02  0.2527E+03  0.2521E+03
     -2.668  0.3519E+02  0.3911E+02  0.2546E+03  0.2542E+03
     -2.614  0.3110E+02  0.3770E+02  0.2562E+03  0.2562E+03
     -2.560  0.5086E-02  0.4737E-03  0.2563E+03  0.2563E+03
     -2.507  0.8364E+02  0.8312E+02  0.2607E+03  0.2607E+03
     -2.453  0.2898E+02  0.2859E+02  0.2623E+03  0.2622E+03
     -2.399  0.7178E+02  0.6829E+02  0.2662E+03  0.2659E+03
     -2.346  0.6656E+02  0.5877E+02  0.2697E+03  0.2691E+03
     -2.292  0.1006E+03  0.1075E+03  0.2751E+03  0.2748E+03
     -2.238  0.2915E+01  0.7627E+01  0.2753E+03  0.2753E+03
     -2.184  0.5523E+02  0.5574E+02  0.2783E+03  0.2783E+03
     -2.131  0.2790E+02  0.2793E+02  0.2797E+03  0.2797E+03
     -2.077  0.1533E+02  0.1335E+02  0.2806E+03  0.2805E+03
     -2.023  0.2656E+02  0.2855E+02  0.2820E+03  0.2820E+03
     -1.970  0.8827E+01  0.4101E+01  0.2825E+03  0.2822E+03
     -1.916  0.4717E+02  0.5178E+02  0.2850E+03  0.2850E+03
     -1.862  0.5429E+02  0.4684E+02  0.2879E+03  0.2875E+03
     -1.809  0.4334E+02  0.5090E+02  0.2903E+03  0.2903E+03
     -1.755  0.5583E+02  0.5560E+02  0.2932E+03  0.2932E+03
     -1.701  0.2451E+01  0.9430E+00  0.2934E+03  0.2933E+03
     -1.647  0.9496E+02  0.7537E+02  0.2985E+03  0.2973E+03
     -1.594  0.5867E+02  0.7376E+02  0.3016E+03  0.3013E+03
     -1.540  0.5805E+02  0.6419E+02  0.3047E+03  0.3047E+03
     -1.486  0.4686E+01  0.4800E+01  0.3050E+03  0.3050E+03
     -1.433  0.1951E+02  0.1513E+02  0.3060E+03  0.3058E+03
     -1.379  0.2238E+02  0.2677E+02  0.3072E+03  0.3072E+03
     -1.325  0.0000E+00  0.1005E-02  0.3072E+03  0.3072E+03
     -1.272  0.1760E+01  0.1594E+00  0.3073E+03  0.3073E+03
     -1.218  0.2859E+02  0.2861E+02  0.3089E+03  0.3088E+03
     -1.164  0.2551E+02  0.2710E+02  0.3102E+03  0.3102E+03
     -1.110  0.3007E-10  0.8373E-13  0.3103E+03  0.3102E+03
     -1.057  0.1999E+02  0.1165E+02  0.3113E+03  0.3109E+03
     -1.003  0.7938E+01  0.1629E+02  0.3118E+03  0.3117E+03
     -0.949  0.0000E+00  0.0000E+00  0.3118E+03  0.3118E+03
     -0.896  0.1058E-03  0.7821E-05  0.3118E+03  0.3118E+03
     -0.842  0.2641E+02  0.2356E+02  0.3132E+03  0.3130E+03
     -0.788  0.4280E+02  0.4259E+02  0.3155E+03  0.3153E+03
     -0.734  0.2851E+02  0.3115E+02  0.3170E+03  0.3170E+03
     -0.681  0.4020E+02  0.3357E+02  0.3192E+03  0.3188E+03
     -0.627  0.5548E+02  0.5908E+02  0.3221E+03  0.3220E+03
     -0.573  0.2936E+02  0.2972E+02  0.3237E+03  0.3235E+03
     -0.520  0.6936E+00  0.3790E+01  0.3238E+03  0.3238E+03
     -0.466  0.0000E+00  0.0000E+00  0.3238E+03  0.3238E+03
     -0.412  0.9025E+00  0.3819E+00  0.3238E+03  0.3238E+03
     -0.359  0.2093E+02  0.1364E+02  0.3249E+03  0.3245E+03
     -0.305  0.4354E+02  0.5117E+02  0.3273E+03  0.3273E+03
     -0.251  0.1464E+03  0.1336E+03  0.3351E+03  0.3344E+03
     -0.197  0.1015E+03  0.1100E+03  0.3406E+03  0.3403E+03
     -0.144  0.4839E+02  0.3692E+02  0.3432E+03  0.3423E+03
     -0.090  0.9585E+02  0.1054E+03  0.3483E+03  0.3480E+03
     -0.036  0.8343E+02  0.8636E+02  0.3528E+03  0.3526E+03
      0.017  0.1272E+03  0.1193E+03  0.3596E+03  0.3590E+03
      0.071  0.2471E+02  0.3471E+02  0.3610E+03  0.3609E+03
      0.125  0.3967E+02  0.3365E+02  0.3631E+03  0.3627E+03
      0.178  0.5676E+02  0.5249E+02  0.3661E+03  0.3655E+03
      0.232  0.1611E+03  0.1507E+03  0.3748E+03  0.3736E+03
      0.286  0.9147E+02  0.1094E+03  0.3797E+03  0.3795E+03
      0.340  0.1271E+03  0.1242E+03  0.3865E+03  0.3861E+03
      0.393  0.7253E+02  0.7054E+02  0.3904E+03  0.3899E+03
      0.447  0.1130E+03  0.1076E+03  0.3965E+03  0.3957E+03
      0.501  0.8221E+02  0.9390E+02  0.4009E+03  0.4008E+03
      0.554  0.4589E+02  0.4378E+02  0.4034E+03  0.4031E+03
      0.608  0.7832E+02  0.8010E+02  0.4076E+03  0.4074E+03
      0.662  0.3912E+02  0.3774E+02  0.4097E+03  0.4094E+03
      0.716  0.4651E+02  0.4772E+02  0.4122E+03  0.4120E+03
      0.769  0.1307E+03  0.1219E+03  0.4192E+03  0.4185E+03
      0.823  0.1300E+03  0.1232E+03  0.4262E+03  0.4252E+03
      0.877  0.9169E+02  0.1050E+03  0.4311E+03  0.4308E+03
      0.930  0.1848E+03  0.1770E+03  0.4410E+03  0.4403E+03
      0.984  0.1210E+03  0.1244E+03  0.4475E+03  0.4470E+03
      1.038  0.1080E+03  0.1105E+03  0.4533E+03  0.4529E+03
      1.091  0.7927E+02  0.8116E+02  0.4576E+03  0.4573E+03
      1.145  0.1545E+03  0.1500E+03  0.4659E+03  0.4653E+03
      1.199  0.1044E+03  0.9573E+02  0.4715E+03  0.4705E+03
      1.253  0.8973E+02  0.1066E+03  0.4763E+03  0.4762E+03
      1.306  0.1180E+03  0.1128E+03  0.4826E+03  0.4823E+03
      1.360  0.1033E+03  0.9699E+02  0.4882E+03  0.4875E+03
      1.414  0.1197E+03  0.1278E+03  0.4946E+03  0.4943E+03
      1.467  0.6278E+02  0.5874E+02  0.4980E+03  0.4975E+03
      1.521  0.1988E+03  0.1841E+03  0.5087E+03  0.5074E+03
      1.575  0.1039E+03  0.1215E+03  0.5143E+03  0.5139E+03
      1.628  0.1447E+03  0.1402E+03  0.5220E+03  0.5214E+03
      1.682  0.5201E+02  0.6204E+02  0.5248E+03  0.5248E+03
      1.736  0.1709E+03  0.1626E+03  0.5340E+03  0.5335E+03
      1.790  0.1059E+03  0.1035E+03  0.5397E+03  0.5391E+03
      1.843  0.7068E+02  0.7787E+02  0.5435E+03  0.5432E+03
      1.897  0.8325E+02  0.8425E+02  0.5479E+03  0.5478E+03
      1.951  0.8702E+02  0.8308E+02  0.5526E+03  0.5522E+03
      2.004  0.8946E+02  0.8717E+02  0.5574E+03  0.5569E+03
      2.058  0.7121E+02  0.6751E+02  0.5612E+03  0.5605E+03
      2.112  0.9838E+02  0.9753E+02  0.5665E+03  0.5658E+03
      2.165  0.1340E+03  0.1462E+03  0.5737E+03  0.5736E+03
      2.219  0.1097E+03  0.1011E+03  0.5796E+03  0.5790E+03
      2.273  0.8111E+02  0.8376E+02  0.5840E+03  0.5835E+03
      2.327  0.6980E+02  0.7328E+02  0.5877E+03  0.5875E+03
      2.380  0.5671E+02  0.5849E+02  0.5908E+03  0.5906E+03
      2.434  0.1033E+03  0.1050E+03  0.5963E+03  0.5963E+03
      2.488  0.5900E+02  0.5411E+02  0.5995E+03  0.5992E+03
      2.541  0.7519E+02  0.7989E+02  0.6035E+03  0.6035E+03
      2.595  0.4519E+02  0.3874E+02  0.6059E+03  0.6055E+03
      2.649  0.9181E+02  0.9580E+02  0.6109E+03  0.6107E+03
      2.703  0.1280E+03  0.1223E+03  0.6178E+03  0.6172E+03
      2.756  0.6968E+02  0.6353E+02  0.6215E+03  0.6207E+03
      2.810  0.9939E+02  0.1043E+03  0.6268E+03  0.6263E+03
      2.864  0.5950E+02  0.5775E+02  0.6300E+03  0.6294E+03
      2.917  0.4364E+02  0.5413E+02  0.6324E+03  0.6323E+03
      2.971  0.8422E+01  0.9300E+01  0.6328E+03  0.6328E+03
      3.025  0.1081E+03  0.9363E+02  0.6386E+03  0.6378E+03
      3.078  0.1686E+02  0.3178E+02  0.6395E+03  0.6395E+03
      3.132  0.4217E+02  0.2743E+02  0.6418E+03  0.6410E+03
      3.186  0.1075E+03  0.1167E+03  0.6476E+03  0.6472E+03
      3.240  0.4185E+02  0.4679E+02  0.6498E+03  0.6498E+03
      3.293  0.5671E+02  0.5152E+02  0.6529E+03  0.6525E+03
      3.347  0.8489E+02  0.5676E+02  0.6574E+03  0.6556E+03
      3.401  0.3716E+02  0.6401E+02  0.6594E+03  0.6590E+03
      3.454  0.5714E+02  0.5943E+02  0.6625E+03  0.6622E+03
      3.508  0.4249E+02  0.3617E+02  0.6648E+03  0.6641E+03
      3.562  0.5015E+02  0.2155E+02  0.6675E+03  0.6653E+03
      3.615  0.7257E+02  0.8023E+02  0.6714E+03  0.6696E+03
      3.669  0.2271E+02  0.5390E+02  0.6726E+03  0.6725E+03
      3.723  0.4048E+02  0.4175E+02  0.6747E+03  0.6747E+03
      3.777  0.4022E+02  0.5000E+01  0.6769E+03  0.6750E+03
      3.830  0.6330E+01  0.4172E+02  0.6773E+03  0.6772E+03
      3.884  0.3258E+02  0.2216E+02  0.6790E+03  0.6784E+03
      3.938  0.5420E-02  0.1044E+02  0.6790E+03  0.6790E+03
      3.991  0.2328E+02  0.1810E+02  0.6803E+03  0.6800E+03
      4.045  0.4654E+02  0.5173E+02  0.6827E+03  0.6827E+03
      4.099  0.3376E+02  0.2101E+02  0.6846E+03  0.6839E+03
      4.153  0.6529E+02  0.6215E+02  0.6881E+03  0.6872E+03
      4.206  0.3596E+02  0.5185E+02  0.6900E+03  0.6900E+03
      4.260  0.3212E+02  0.2038E+02  0.6917E+03  0.6911E+03
      4.314  0.6065E+02  0.7105E+02  0.6950E+03  0.6949E+03
      4.367  0.2727E+02  0.2631E+02  0.6964E+03  0.6963E+03
      4.421  0.2975E+02  0.3146E+02  0.6980E+03  0.6980E+03
      4.475  0.1828E+02  0.1742E+02  0.6990E+03  0.6989E+03
      4.528  0.1074E+03  0.1010E+03  0.7048E+03  0.7044E+03
      4.582  0.3646E+02  0.4429E+02  0.7067E+03  0.7067E+03
      4.636  0.2527E+02  0.1572E+02  0.7081E+03  0.7076E+03
      4.690  0.8376E+02  0.8829E+02  0.7126E+03  0.7123E+03
      4.743  0.8533E+02  0.7874E+02  0.7172E+03  0.7166E+03
      4.797  0.8530E+02  0.9035E+02  0.7218E+03  0.7214E+03
      4.851  0.8443E+02  0.8448E+02  0.7263E+03  0.7260E+03
      4.904  0.2716E+02  0.3197E+02  0.7278E+03  0.7277E+03
      4.958  0.3418E+02  0.3143E+02  0.7296E+03  0.7294E+03
      5.012  0.7762E+02  0.6890E+02  0.7338E+03  0.7331E+03
      5.065  0.4087E+02  0.4973E+02  0.7360E+03  0.7357E+03
      5.119  0.9140E+02  0.8138E+02  0.7409E+03  0.7401E+03
      5.173  0.1539E+03  0.1534E+03  0.7491E+03  0.7483E+03
      5.227  0.4500E+02  0.5861E+02  0.7515E+03  0.7515E+03
      5.280  0.1366E+03  0.1343E+03  0.7589E+03  0.7587E+03
      5.334  0.6020E+02  0.5901E+02  0.7621E+03  0.7619E+03
      5.388  0.8799E+02  0.7673E+02  0.7668E+03  0.7660E+03
      5.441  0.4189E+02  0.5264E+02  0.7691E+03  0.7688E+03
      5.495  0.9918E+02  0.9966E+02  0.7744E+03  0.7742E+03
      5.549  0.1364E+03  0.1315E+03  0.7817E+03  0.7812E+03
      5.602  0.7323E+02  0.7662E+02  0.7857E+03  0.7853E+03
      5.656  0.8307E+02  0.8018E+02  0.7901E+03  0.7896E+03
      5.710  0.1068E+03  0.1114E+03  0.7959E+03  0.7956E+03
      5.764  0.1046E+03  0.1051E+03  0.8015E+03  0.8013E+03
      5.817  0.8340E+02  0.7844E+02  0.8060E+03  0.8055E+03
      5.871  0.2814E+02  0.4113E+02  0.8075E+03  0.8077E+03
      5.925  0.9652E+01  0.5672E+01  0.8080E+03  0.8080E+03
      5.978  0.0000E+00  0.0000E+00  0.8080E+03  0.8080E+03
      6.032  0.0000E+00  0.0000E+00  0.8080E+03  0.8080E+03
      6.086  0.0000E+00  0.0000E+00  0.8080E+03  0.8080E+03
      6.140  0.0000E+00  0.0000E+00  0.8080E+03  0.8080E+03
      6.193  0.0000E+00  0.0000E+00  0.8080E+03  0.8080E+03
      6.247  0.0000E+00  0.0000E+00  0.8080E+03  0.8080E+03
      6.301  0.0000E+00  0.0000E+00  0.8080E+03  0.8080E+03
      6.354  0.0000E+00  0.0000E+00  0.8080E+03  0.8080E+03
      6.408  0.0000E+00  0.0000E+00  0.8080E+03  0.8080E+03
      6.462  0.0000E+00  0.0000E+00  0.8080E+03  0.8080E+03
      6.515  0.0000E+00  0.0000E+00  0.8080E+03  0.8080E+03
      6.569  0.0000E+00  0.0000E+00  0.8080E+03  0.8080E+03
      6.623  0.0000E+00  0.0000E+00  0.8080E+03  0.8080E+03
