 120 120   0   0
  0.1738714E+02  0.7680595E-09  0.1629300E-08  0.1667299E-08  0.5000000E-15
  1.000000000000000E-004
  CAR 
 Si and Ge interface calculation         
      9.96335776    -10.31162332  301      6.78434301      1.00000000
    -10.312  0.0000E+00  0.0000E+00  0.0000E+00  0.0000E+00
    -10.244  0.0000E+00  0.0000E+00  0.0000E+00  0.0000E+00
    -10.176  0.0000E+00  0.0000E+00  0.0000E+00  0.0000E+00
    -10.109  0.0000E+00  0.0000E+00  0.0000E+00  0.0000E+00
    -10.041  0.0000E+00  0.0000E+00  0.0000E+00  0.0000E+00
     -9.974  0.0000E+00  0.0000E+00  0.0000E+00  0.0000E+00
     -9.906  0.0000E+00  0.0000E+00  0.0000E+00  0.0000E+00
     -9.839  0.0000E+00  0.0000E+00  0.0000E+00  0.0000E+00
     -9.771  0.0000E+00  0.0000E+00  0.0000E+00  0.0000E+00
     -9.703  0.0000E+00  0.0000E+00  0.0000E+00  0.0000E+00
     -9.636  0.0000E+00  0.0000E+00  0.0000E+00  0.0000E+00
     -9.568  0.0000E+00  0.0000E+00  0.0000E+00  0.0000E+00
     -9.501  0.0000E+00  0.0000E+00  0.0000E+00  0.0000E+00
     -9.433  0.2583E-08  0.1563E-08  0.1746E-09  0.1056E-09
     -9.365  0.1478E+02  0.1478E+02  0.9989E+00  0.9986E+00
     -9.298  0.1100E-06  0.6953E-07  0.1000E+01  0.1000E+01
     -9.230  0.2959E+02  0.2959E+02  0.3000E+01  0.3000E+01
     -9.163  0.0000E+00  0.0000E+00  0.3000E+01  0.3000E+01
     -9.095  0.0000E+00  0.0000E+00  0.3000E+01  0.3000E+01
     -9.028  0.0000E+00  0.0000E+00  0.3000E+01  0.3000E+01
     -8.960  0.0000E+00  0.0000E+00  0.3000E+01  0.3000E+01
     -8.892  0.1983E+01  0.1715E+01  0.3134E+01  0.3116E+01
     -8.825  0.4239E+02  0.4267E+02  0.5999E+01  0.6000E+01
     -8.757  0.1530E-05  0.1531E-04  0.6000E+01  0.6000E+01
     -8.690  0.2959E+02  0.2959E+02  0.8000E+01  0.8000E+01
     -8.622  0.0000E+00  0.0000E+00  0.8000E+01  0.8000E+01
     -8.554  0.0000E+00  0.0000E+00  0.8000E+01  0.8000E+01
     -8.487  0.8188E+00  0.1941E+01  0.8055E+01  0.8131E+01
     -8.419  0.1398E+02  0.1286E+02  0.9000E+01  0.9000E+01
     -8.352  0.0000E+00  0.0000E+00  0.9000E+01  0.9000E+01
     -8.284  0.2399E+02  0.2355E+02  0.1062E+02  0.1059E+02
     -8.217  0.5600E+01  0.6038E+01  0.1100E+02  0.1100E+02
     -8.149  0.9334E-01  0.2607E+00  0.1101E+02  0.1102E+02
     -8.081  0.1470E+02  0.1454E+02  0.1200E+02  0.1200E+02
     -8.014  0.3726E-02  0.1273E-01  0.1200E+02  0.1200E+02
     -7.946  0.4387E+02  0.4418E+02  0.1496E+02  0.1499E+02
     -7.879  0.2287E+00  0.7046E-01  0.1500E+02  0.1500E+02
     -7.811  0.1472E+02  0.1473E+02  0.1600E+02  0.1600E+02
     -7.743  0.0000E+00  0.0000E+00  0.1600E+02  0.1600E+02
     -7.676  0.3550E-06  0.1838E-05  0.1600E+02  0.1600E+02
     -7.608  0.1479E+02  0.1480E+02  0.1700E+02  0.1700E+02
     -7.541  0.0000E+00  0.0000E+00  0.1700E+02  0.1700E+02
     -7.473  0.5401E-09  0.6960E-08  0.1700E+02  0.1700E+02
     -7.406  0.2953E+02  0.2957E+02  0.1900E+02  0.1900E+02
     -7.338  0.0000E+00  0.0000E+00  0.1900E+02  0.1900E+02
     -7.270  0.0000E+00  0.0000E+00  0.1900E+02  0.1900E+02
     -7.203  0.0000E+00  0.0000E+00  0.1900E+02  0.1900E+02
     -7.135  0.0000E+00  0.0000E+00  0.1900E+02  0.1900E+02
     -7.068  0.0000E+00  0.0000E+00  0.1900E+02  0.1900E+02
     -7.000  0.0000E+00  0.0000E+00  0.1900E+02  0.1900E+02
     -6.932  0.1112E+01  0.2080E+01  0.1908E+02  0.1914E+02
     -6.865  0.2472E+02  0.2593E+02  0.2075E+02  0.2089E+02
     -6.797  0.3768E+01  0.1601E+01  0.2100E+02  0.2100E+02
     -6.730  0.4422E+02  0.4432E+02  0.2399E+02  0.2400E+02
     -6.662  0.0000E+00  0.0000E+00  0.2400E+02  0.2400E+02
     -6.595  0.0000E+00  0.0000E+00  0.2400E+02  0.2400E+02
     -6.527  0.0000E+00  0.0000E+00  0.2400E+02  0.2400E+02
     -6.459  0.2781E+00  0.1407E+00  0.2402E+02  0.2401E+02
     -6.392  0.1452E+02  0.1466E+02  0.2500E+02  0.2500E+02
     -6.324  0.5771E+00  0.2459E-02  0.2504E+02  0.2500E+02
     -6.257  0.1427E+02  0.1473E+02  0.2600E+02  0.2600E+02
     -6.189  0.2953E+02  0.2767E+02  0.2800E+02  0.2787E+02
     -6.121  0.0000E+00  0.1919E+01  0.2800E+02  0.2800E+02
     -6.054  0.5600E+01  0.6425E+00  0.2838E+02  0.2804E+02
     -5.986  0.2318E+02  0.2332E+02  0.2995E+02  0.2962E+02
     -5.919  0.8037E+00  0.5631E+01  0.3000E+02  0.3000E+02
     -5.851  0.1457E+02  0.1159E+02  0.3098E+02  0.3078E+02
     -5.784  0.4311E+02  0.3856E+02  0.3390E+02  0.3340E+02
     -5.716  0.1510E+02  0.1417E+02  0.3492E+02  0.3438E+02
     -5.648  0.2958E+01  0.1103E+02  0.3512E+02  0.3512E+02
     -5.581  0.2211E+01  0.1886E+01  0.3527E+02  0.3525E+02
     -5.513  0.9848E+01  0.9929E+01  0.3594E+02  0.3592E+02
     -5.446  0.9052E+01  0.8896E+01  0.3655E+02  0.3652E+02
     -5.378  0.1551E+02  0.1558E+02  0.3760E+02  0.3758E+02
     -5.310  0.4049E+01  0.4379E+01  0.3787E+02  0.3787E+02
     -5.243  0.2930E+02  0.2924E+02  0.3986E+02  0.3985E+02
     -5.175  0.7210E+01  0.7291E+01  0.4035E+02  0.4035E+02
     -5.108  0.1282E+02  0.1271E+02  0.4121E+02  0.4121E+02
     -5.040  0.8249E+01  0.7389E+01  0.4177E+02  0.4171E+02
     -4.973  0.1588E+02  0.1675E+02  0.4285E+02  0.4284E+02
     -4.905  0.1735E+02  0.1719E+02  0.4402E+02  0.4401E+02
     -4.837  0.1363E+02  0.1383E+02  0.4494E+02  0.4494E+02
     -4.770  0.4449E+02  0.4375E+02  0.4795E+02  0.4790E+02
     -4.702  0.1306E+02  0.1315E+02  0.4884E+02  0.4880E+02
     -4.635  0.2096E+02  0.2051E+02  0.5025E+02  0.5018E+02
     -4.567  0.1956E+02  0.1993E+02  0.5157E+02  0.5153E+02
     -4.499  0.1996E+02  0.1954E+02  0.5293E+02  0.5285E+02
     -4.432  0.2890E+02  0.2924E+02  0.5488E+02  0.5483E+02
     -4.364  0.2440E+02  0.2473E+02  0.5654E+02  0.5650E+02
     -4.297  0.2383E+02  0.2361E+02  0.5815E+02  0.5810E+02
     -4.229  0.1953E+02  0.1978E+02  0.5948E+02  0.5945E+02
     -4.162  0.2789E+02  0.2764E+02  0.6136E+02  0.6132E+02
     -4.094  0.3492E+02  0.3482E+02  0.6373E+02  0.6368E+02
     -4.026  0.1747E+02  0.1747E+02  0.6492E+02  0.6487E+02
     -3.959  0.3213E+02  0.3249E+02  0.6709E+02  0.6706E+02
     -3.891  0.3328E+02  0.3220E+02  0.6934E+02  0.6924E+02
     -3.824  0.2076E+02  0.2197E+02  0.7074E+02  0.7073E+02
     -3.756  0.2534E+02  0.2521E+02  0.7246E+02  0.7244E+02
     -3.688  0.2357E+02  0.2283E+02  0.7405E+02  0.7398E+02
     -3.621  0.1899E+02  0.1875E+02  0.7533E+02  0.7525E+02
     -3.553  0.2428E+02  0.2426E+02  0.7698E+02  0.7689E+02
     -3.486  0.2841E+02  0.2789E+02  0.7890E+02  0.7878E+02
     -3.418  0.5235E+02  0.5338E+02  0.8244E+02  0.8238E+02
     -3.351  0.3677E+02  0.3675E+02  0.8493E+02  0.8487E+02
     -3.283  0.3099E+02  0.3123E+02  0.8703E+02  0.8699E+02
     -3.215  0.2998E+02  0.2947E+02  0.8905E+02  0.8898E+02
     -3.148  0.3470E+02  0.3484E+02  0.9140E+02  0.9134E+02
     -3.080  0.3829E+02  0.3606E+02  0.9399E+02  0.9378E+02
     -3.013  0.4173E+02  0.4409E+02  0.9682E+02  0.9676E+02
     -2.945  0.3053E+02  0.3082E+02  0.9888E+02  0.9885E+02
     -2.877  0.2463E+02  0.2470E+02  0.1005E+03  0.1005E+03
     -2.810  0.2159E+02  0.2071E+02  0.1020E+03  0.1019E+03
     -2.742  0.2315E+02  0.2319E+02  0.1036E+03  0.1035E+03
     -2.675  0.3428E+02  0.3351E+02  0.1059E+03  0.1058E+03
     -2.607  0.3039E+02  0.3155E+02  0.1080E+03  0.1079E+03
     -2.540  0.3693E+02  0.3712E+02  0.1104E+03  0.1104E+03
     -2.472  0.1474E+02  0.1434E+02  0.1114E+03  0.1114E+03
     -2.404  0.3366E+02  0.3373E+02  0.1137E+03  0.1137E+03
     -2.337  0.2678E+02  0.2745E+02  0.1155E+03  0.1155E+03
     -2.269  0.3784E+02  0.3685E+02  0.1181E+03  0.1180E+03
     -2.202  0.2571E+02  0.2413E+02  0.1198E+03  0.1196E+03
     -2.134  0.2051E+02  0.2305E+02  0.1212E+03  0.1212E+03
     -2.066  0.2997E+02  0.3014E+02  0.1232E+03  0.1232E+03
     -1.999  0.2461E+02  0.2334E+02  0.1249E+03  0.1248E+03
     -1.931  0.3658E+02  0.3332E+02  0.1274E+03  0.1271E+03
     -1.864  0.2261E+02  0.2594E+02  0.1289E+03  0.1288E+03
     -1.796  0.6483E+01  0.7679E+01  0.1294E+03  0.1293E+03
     -1.729  0.2322E+02  0.2219E+02  0.1309E+03  0.1308E+03
     -1.661  0.3568E+02  0.3598E+02  0.1333E+03  0.1333E+03
     -1.593  0.4869E+01  0.5226E+01  0.1337E+03  0.1336E+03
     -1.526  0.2380E+02  0.2175E+02  0.1353E+03  0.1351E+03
     -1.458  0.2790E+02  0.2910E+02  0.1372E+03  0.1371E+03
     -1.391  0.3507E+02  0.3385E+02  0.1396E+03  0.1394E+03
     -1.323  0.3255E+02  0.2905E+02  0.1418E+03  0.1413E+03
     -1.255  0.2797E+02  0.3265E+02  0.1436E+03  0.1435E+03
     -1.188  0.2840E+02  0.2689E+02  0.1456E+03  0.1454E+03
     -1.120  0.3360E+02  0.3622E+02  0.1478E+03  0.1478E+03
     -1.053  0.5648E+01  0.4987E+01  0.1482E+03  0.1482E+03
     -0.985  0.1685E+02  0.1561E+02  0.1494E+03  0.1492E+03
     -0.918  0.3965E+02  0.3662E+02  0.1520E+03  0.1517E+03
     -0.850  0.3829E+02  0.4167E+02  0.1546E+03  0.1545E+03
     -0.782  0.2779E+02  0.2625E+02  0.1565E+03  0.1563E+03
     -0.715  0.2432E+02  0.2233E+02  0.1582E+03  0.1578E+03
     -0.647  0.4790E+02  0.4536E+02  0.1614E+03  0.1609E+03
     -0.580  0.4095E+02  0.4378E+02  0.1642E+03  0.1638E+03
     -0.512  0.4864E+02  0.4916E+02  0.1675E+03  0.1672E+03
     -0.444  0.3242E+02  0.3231E+02  0.1697E+03  0.1694E+03
     -0.377  0.3260E+02  0.3227E+02  0.1719E+03  0.1715E+03
     -0.309  0.3056E+02  0.3390E+02  0.1739E+03  0.1738E+03
     -0.242  0.4054E+02  0.3500E+02  0.1767E+03  0.1762E+03
     -0.174  0.5026E+02  0.4579E+02  0.1801E+03  0.1793E+03
     -0.107  0.2776E+02  0.3672E+02  0.1820E+03  0.1818E+03
     -0.039  0.2671E+02  0.2308E+02  0.1838E+03  0.1833E+03
      0.029  0.2980E+02  0.3521E+02  0.1858E+03  0.1857E+03
      0.096  0.2944E+02  0.2781E+02  0.1878E+03  0.1876E+03
      0.164  0.2905E+02  0.2808E+02  0.1897E+03  0.1895E+03
      0.231  0.4191E+02  0.3575E+02  0.1926E+03  0.1919E+03
      0.299  0.3239E+02  0.3615E+02  0.1948E+03  0.1944E+03
      0.367  0.3552E+02  0.3391E+02  0.1972E+03  0.1967E+03
      0.434  0.3199E+02  0.3623E+02  0.1994E+03  0.1991E+03
      0.502  0.3379E+02  0.3574E+02  0.2016E+03  0.2015E+03
      0.569  0.3481E+02  0.3227E+02  0.2040E+03  0.2037E+03
      0.637  0.1922E+02  0.2338E+02  0.2053E+03  0.2053E+03
      0.704  0.3714E+02  0.3299E+02  0.2078E+03  0.2075E+03
      0.772  0.2990E+02  0.2839E+02  0.2098E+03  0.2095E+03
      0.840  0.4472E+02  0.4661E+02  0.2129E+03  0.2126E+03
      0.907  0.1698E+02  0.1857E+02  0.2140E+03  0.2139E+03
      0.975  0.2888E+02  0.2968E+02  0.2160E+03  0.2159E+03
      1.042  0.3145E+02  0.2036E+02  0.2181E+03  0.2173E+03
      1.110  0.7161E+02  0.7397E+02  0.2229E+03  0.2223E+03
      1.178  0.3123E+02  0.3979E+02  0.2251E+03  0.2250E+03
      1.245  0.3551E+02  0.2908E+02  0.2275E+03  0.2269E+03
      1.313  0.3299E+02  0.3829E+02  0.2297E+03  0.2295E+03
      1.380  0.3085E+02  0.3238E+02  0.2318E+03  0.2317E+03
      1.448  0.3487E+02  0.3323E+02  0.2342E+03  0.2340E+03
      1.515  0.4748E+02  0.4757E+02  0.2374E+03  0.2372E+03
      1.583  0.4724E+02  0.3340E+02  0.2406E+03  0.2394E+03
      1.651  0.3430E+02  0.4598E+02  0.2429E+03  0.2426E+03
      1.718  0.3278E+02  0.3389E+02  0.2451E+03  0.2449E+03
      1.786  0.1480E+02  0.1749E+02  0.2461E+03  0.2460E+03
      1.853  0.3865E+02  0.3348E+02  0.2487E+03  0.2483E+03
      1.921  0.4669E+02  0.4469E+02  0.2519E+03  0.2513E+03
      1.989  0.2706E+02  0.2924E+02  0.2537E+03  0.2533E+03
      2.056  0.2852E+02  0.2904E+02  0.2556E+03  0.2553E+03
      2.124  0.4615E+02  0.4404E+02  0.2588E+03  0.2583E+03
      2.191  0.5350E+02  0.5307E+02  0.2624E+03  0.2618E+03
      2.259  0.3152E+02  0.3831E+02  0.2645E+03  0.2644E+03
      2.326  0.2573E+02  0.2414E+02  0.2663E+03  0.2661E+03
      2.394  0.5737E+02  0.4922E+02  0.2702E+03  0.2694E+03
      2.462  0.5272E+02  0.5904E+02  0.2737E+03  0.2734E+03
      2.529  0.3764E+02  0.3978E+02  0.2763E+03  0.2761E+03
      2.597  0.4360E+02  0.4108E+02  0.2792E+03  0.2789E+03
      2.664  0.4002E+02  0.3818E+02  0.2819E+03  0.2814E+03
      2.732  0.5641E+02  0.5736E+02  0.2857E+03  0.2853E+03
      2.800  0.6196E+02  0.6462E+02  0.2899E+03  0.2897E+03
      2.867  0.3122E+02  0.3099E+02  0.2921E+03  0.2918E+03
      2.935  0.5722E+02  0.5853E+02  0.2959E+03  0.2958E+03
      3.002  0.4776E+02  0.4225E+02  0.2992E+03  0.2986E+03
      3.070  0.6442E+02  0.6994E+02  0.3035E+03  0.3034E+03
      3.137  0.3280E+02  0.3166E+02  0.3057E+03  0.3055E+03
      3.205  0.6893E+02  0.6735E+02  0.3104E+03  0.3101E+03
      3.273  0.5951E+02  0.5917E+02  0.3144E+03  0.3141E+03
      3.340  0.5384E+02  0.5105E+02  0.3181E+03  0.3175E+03
      3.408  0.6146E+02  0.6136E+02  0.3222E+03  0.3217E+03
      3.475  0.5949E+02  0.6548E+02  0.3263E+03  0.3261E+03
      3.543  0.4175E+02  0.3714E+02  0.3291E+03  0.3286E+03
      3.611  0.6547E+02  0.6787E+02  0.3335E+03  0.3332E+03
      3.678  0.3537E+02  0.3543E+02  0.3359E+03  0.3356E+03
      3.746  0.6108E+02  0.5785E+02  0.3400E+03  0.3395E+03
      3.813  0.7190E+02  0.7035E+02  0.3449E+03  0.3443E+03
      3.881  0.6670E+02  0.6656E+02  0.3494E+03  0.3488E+03
      3.948  0.5427E+02  0.5776E+02  0.3531E+03  0.3527E+03
      4.016  0.7230E+02  0.7297E+02  0.3580E+03  0.3577E+03
      4.084  0.4871E+02  0.4846E+02  0.3613E+03  0.3609E+03
      4.151  0.4322E+02  0.4259E+02  0.3642E+03  0.3638E+03
      4.219  0.5985E+02  0.6140E+02  0.3683E+03  0.3680E+03
      4.286  0.7315E+02  0.7402E+02  0.3732E+03  0.3730E+03
      4.354  0.3762E+02  0.3217E+02  0.3758E+03  0.3752E+03
      4.422  0.7070E+02  0.7472E+02  0.3805E+03  0.3802E+03
      4.489  0.4718E+02  0.4866E+02  0.3837E+03  0.3835E+03
      4.557  0.4769E+02  0.4556E+02  0.3870E+03  0.3866E+03
      4.624  0.4124E+02  0.4335E+02  0.3898E+03  0.3895E+03
      4.692  0.5884E+02  0.5335E+02  0.3937E+03  0.3931E+03
      4.759  0.5115E+02  0.5808E+02  0.3972E+03  0.3971E+03
      4.827  0.3773E+02  0.3436E+02  0.3997E+03  0.3994E+03
      4.895  0.5216E+02  0.4719E+02  0.4033E+03  0.4026E+03
      4.962  0.2707E+02  0.3443E+02  0.4051E+03  0.4049E+03
      5.030  0.2404E+02  0.2460E+02  0.4068E+03  0.4066E+03
      5.097  0.4073E+02  0.3334E+02  0.4095E+03  0.4089E+03
      5.165  0.5549E+02  0.5506E+02  0.4133E+03  0.4126E+03
      5.233  0.5088E+02  0.4583E+02  0.4167E+03  0.4157E+03
      5.300  0.6517E+02  0.7012E+02  0.4211E+03  0.4204E+03
      5.368  0.3232E+02  0.3293E+02  0.4233E+03  0.4226E+03
      5.435  0.2840E+02  0.1812E+02  0.4253E+03  0.4239E+03
      5.503  0.3942E+02  0.4448E+02  0.4279E+03  0.4269E+03
      5.570  0.4510E+02  0.3973E+02  0.4310E+03  0.4296E+03
      5.638  0.3086E+02  0.4295E+02  0.4331E+03  0.4325E+03
      5.706  0.3742E+02  0.3738E+02  0.4356E+03  0.4350E+03
      5.773  0.4536E+02  0.3600E+02  0.4387E+03  0.4374E+03
      5.841  0.7525E+02  0.6468E+02  0.4438E+03  0.4418E+03
      5.908  0.4626E+02  0.5490E+02  0.4469E+03  0.4455E+03
      5.976  0.4332E+02  0.5296E+02  0.4498E+03  0.4491E+03
      6.044  0.2006E+02  0.2461E+02  0.4512E+03  0.4508E+03
      6.111  0.4374E+02  0.3264E+02  0.4541E+03  0.4530E+03
      6.179  0.4477E+02  0.4477E+02  0.4572E+03  0.4560E+03
      6.246  0.3965E+02  0.4261E+02  0.4599E+03  0.4589E+03
      6.314  0.2382E+02  0.2230E+02  0.4615E+03  0.4604E+03
      6.381  0.5529E+02  0.3416E+02  0.4652E+03  0.4627E+03
      6.449  0.3476E+02  0.4513E+02  0.4676E+03  0.4658E+03
      6.517  0.2604E+02  0.4343E+02  0.4693E+03  0.4687E+03
      6.584  0.6201E+02  0.1473E+02  0.4735E+03  0.4697E+03
      6.652  0.3915E+02  0.6269E+02  0.4762E+03  0.4740E+03
      6.719  0.2756E+02  0.4097E+02  0.4780E+03  0.4767E+03
      6.787  0.5861E+02  0.3505E+02  0.4820E+03  0.4791E+03
      6.855  0.5556E+02  0.4253E+02  0.4858E+03  0.4820E+03
      6.922  0.3636E+02  0.5193E+02  0.4882E+03  0.4855E+03
      6.990  0.4993E+02  0.5848E+02  0.4916E+03  0.4895E+03
      7.057  0.5113E+02  0.4351E+02  0.4951E+03  0.4924E+03
      7.125  0.6540E+02  0.6148E+02  0.4995E+03  0.4966E+03
      7.192  0.3393E+02  0.4737E+02  0.5018E+03  0.4998E+03
      7.260  0.2172E+02  0.4518E+02  0.5033E+03  0.5028E+03
      7.328  0.2437E+02  0.2108E+02  0.5049E+03  0.5043E+03
      7.395  0.3898E+02  0.2511E+02  0.5075E+03  0.5060E+03
      7.463  0.3877E+02  0.4558E+02  0.5102E+03  0.5091E+03
      7.530  0.5882E+02  0.6045E+02  0.5141E+03  0.5131E+03
      7.598  0.3164E+02  0.3685E+02  0.5163E+03  0.5156E+03
      7.666  0.5370E+02  0.5034E+02  0.5199E+03  0.5190E+03
      7.733  0.5224E+02  0.4939E+02  0.5235E+03  0.5224E+03
      7.801  0.3986E+02  0.4924E+02  0.5262E+03  0.5257E+03
      7.868  0.2106E+02  0.1966E+02  0.5276E+03  0.5271E+03
      7.936  0.4316E+02  0.4524E+02  0.5305E+03  0.5301E+03
      8.003  0.2926E+02  0.3153E+02  0.5325E+03  0.5323E+03
      8.071  0.5038E+02  0.4416E+02  0.5359E+03  0.5352E+03
      8.139  0.4789E+02  0.5166E+02  0.5392E+03  0.5387E+03
      8.206  0.5612E+02  0.5543E+02  0.5430E+03  0.5425E+03
      8.274  0.4173E+02  0.4494E+02  0.5458E+03  0.5455E+03
      8.341  0.4865E+02  0.4234E+02  0.5491E+03  0.5484E+03
      8.409  0.5043E+02  0.5319E+02  0.5525E+03  0.5520E+03
      8.477  0.5289E+02  0.5559E+02  0.5561E+03  0.5558E+03
      8.544  0.5274E+02  0.5302E+02  0.5596E+03  0.5594E+03
      8.612  0.4945E+02  0.4648E+02  0.5630E+03  0.5625E+03
      8.679  0.6446E+02  0.6429E+02  0.5673E+03  0.5669E+03
      8.747  0.3109E+02  0.3585E+02  0.5695E+03  0.5693E+03
      8.814  0.4460E+02  0.4515E+02  0.5725E+03  0.5724E+03
      8.882  0.3065E+02  0.2989E+02  0.5746E+03  0.5744E+03
      8.950  0.1023E+02  0.1286E+02  0.5753E+03  0.5752E+03
      9.017  0.6863E+01  0.5726E+01  0.5757E+03  0.5756E+03
      9.085  0.4234E+01  0.5357E+01  0.5760E+03  0.5760E+03
      9.152  0.0000E+00  0.0000E+00  0.5760E+03  0.5760E+03
      9.220  0.0000E+00  0.0000E+00  0.5760E+03  0.5760E+03
      9.288  0.0000E+00  0.0000E+00  0.5760E+03  0.5760E+03
      9.355  0.0000E+00  0.0000E+00  0.5760E+03  0.5760E+03
      9.423  0.0000E+00  0.0000E+00  0.5760E+03  0.5760E+03
      9.490  0.0000E+00  0.0000E+00  0.5760E+03  0.5760E+03
      9.558  0.0000E+00  0.0000E+00  0.5760E+03  0.5760E+03
      9.625  0.0000E+00  0.0000E+00  0.5760E+03  0.5760E+03
      9.693  0.0000E+00  0.0000E+00  0.5760E+03  0.5760E+03
      9.761  0.0000E+00  0.0000E+00  0.5760E+03  0.5760E+03
      9.828  0.0000E+00  0.0000E+00  0.5760E+03  0.5760E+03
      9.896  0.0000E+00  0.0000E+00  0.5760E+03  0.5760E+03
      9.963  0.0000E+00  0.0000E+00  0.5760E+03  0.5760E+03
