 264 264   0   0
  0.2770664E+02  0.1946760E-08  0.1946760E-08  0.1930025E-08  0.5000000E-15
  1.000000000000000E-004
  CAR 
 Si and Ge interface calculation         
      6.64088055     -8.85797182  301      4.07089614      1.00000000
     -8.858  0.0000E+00  0.0000E+00  0.0000E+00  0.0000E+00
     -8.806  0.0000E+00  0.0000E+00  0.0000E+00  0.0000E+00
     -8.755  0.0000E+00  0.0000E+00  0.0000E+00  0.0000E+00
     -8.703  0.0000E+00  0.0000E+00  0.0000E+00  0.0000E+00
     -8.651  0.0000E+00  0.0000E+00  0.0000E+00  0.0000E+00
     -8.600  0.0000E+00  0.0000E+00  0.0000E+00  0.0000E+00
     -8.548  0.0000E+00  0.0000E+00  0.0000E+00  0.0000E+00
     -8.496  0.0000E+00  0.0000E+00  0.0000E+00  0.0000E+00
     -8.445  0.0000E+00  0.0000E+00  0.0000E+00  0.0000E+00
     -8.393  0.0000E+00  0.0000E+00  0.0000E+00  0.0000E+00
     -8.341  0.0000E+00  0.0000E+00  0.0000E+00  0.0000E+00
     -8.290  0.0000E+00  0.0000E+00  0.0000E+00  0.0000E+00
     -8.238  0.0000E+00  0.0000E+00  0.0000E+00  0.0000E+00
     -8.186  0.1578E-04  0.3646E-05  0.8154E-06  0.1884E-06
     -8.135  0.9639E+01  0.9589E+01  0.4980E+00  0.4954E+00
     -8.083  0.1874E+02  0.1827E+02  0.1466E+01  0.1439E+01
     -8.031  0.2459E+02  0.2399E+02  0.2737E+01  0.2678E+01
     -7.980  0.1211E+02  0.1213E+02  0.3362E+01  0.3305E+01
     -7.928  0.1234E+02  0.1346E+02  0.4000E+01  0.4000E+01
     -7.876  0.1621E+02  0.1467E+02  0.4838E+01  0.4758E+01
     -7.825  0.1282E+02  0.1436E+02  0.5500E+01  0.5500E+01
     -7.773  0.1932E+02  0.1926E+02  0.6498E+01  0.6495E+01
     -7.721  0.3648E+02  0.3568E+02  0.8383E+01  0.8338E+01
     -7.670  0.2558E+02  0.2546E+02  0.9704E+01  0.9654E+01
     -7.618  0.1540E+02  0.1637E+02  0.1050E+02  0.1050E+02
     -7.566  0.1763E-02  0.4853E-02  0.1050E+02  0.1050E+02
     -7.515  0.3620E+01  0.2609E+01  0.1069E+02  0.1063E+02
     -7.463  0.1290E+02  0.1281E+02  0.1135E+02  0.1130E+02
     -7.411  0.4264E+02  0.4096E+02  0.1356E+02  0.1341E+02
     -7.360  0.3688E+02  0.3898E+02  0.1546E+02  0.1543E+02
     -7.308  0.1651E+02  0.1627E+02  0.1631E+02  0.1627E+02
     -7.256  0.3298E+02  0.3070E+02  0.1802E+02  0.1785E+02
     -7.205  0.2911E+02  0.3211E+02  0.1952E+02  0.1951E+02
     -7.153  0.3074E+02  0.2977E+02  0.2111E+02  0.2105E+02
     -7.101  0.1919E+02  0.1890E+02  0.2210E+02  0.2203E+02
     -7.050  0.5224E+02  0.5177E+02  0.2480E+02  0.2470E+02
     -6.998  0.5463E+02  0.5417E+02  0.2762E+02  0.2750E+02
     -6.946  0.1937E+02  0.2059E+02  0.2862E+02  0.2856E+02
     -6.895  0.3593E+02  0.3636E+02  0.3048E+02  0.3044E+02
     -6.843  0.3878E+02  0.3786E+02  0.3248E+02  0.3240E+02
     -6.791  0.2892E+02  0.2950E+02  0.3398E+02  0.3392E+02
     -6.740  0.5421E+02  0.5271E+02  0.3678E+02  0.3664E+02
     -6.688  0.6654E+02  0.6673E+02  0.4022E+02  0.4009E+02
     -6.636  0.2928E+02  0.3046E+02  0.4173E+02  0.4167E+02
     -6.585  0.5745E+02  0.5625E+02  0.4470E+02  0.4457E+02
     -6.533  0.4442E+02  0.4469E+02  0.4699E+02  0.4688E+02
     -6.481  0.3028E+02  0.3037E+02  0.4856E+02  0.4845E+02
     -6.430  0.3704E+02  0.3744E+02  0.5047E+02  0.5038E+02
     -6.378  0.4372E+02  0.4405E+02  0.5273E+02  0.5266E+02
     -6.326  0.3333E+02  0.3334E+02  0.5445E+02  0.5438E+02
     -6.275  0.6851E+02  0.6961E+02  0.5799E+02  0.5798E+02
     -6.223  0.2315E+02  0.2185E+02  0.5919E+02  0.5911E+02
     -6.172  0.7155E+02  0.7083E+02  0.6288E+02  0.6277E+02
     -6.120  0.7354E+02  0.7162E+02  0.6668E+02  0.6647E+02
     -6.068  0.6635E+02  0.6765E+02  0.7011E+02  0.6996E+02
     -6.017  0.8353E+02  0.8258E+02  0.7443E+02  0.7423E+02
     -5.965  0.8126E+02  0.8289E+02  0.7862E+02  0.7851E+02
     -5.913  0.5605E+02  0.5490E+02  0.8152E+02  0.8135E+02
     -5.862  0.5239E+02  0.5358E+02  0.8423E+02  0.8411E+02
     -5.810  0.6895E+02  0.6746E+02  0.8779E+02  0.8760E+02
     -5.758  0.7813E+02  0.7882E+02  0.9183E+02  0.9167E+02
     -5.707  0.6909E+02  0.7017E+02  0.9540E+02  0.9530E+02
     -5.655  0.8838E+02  0.8434E+02  0.9996E+02  0.9965E+02
     -5.603  0.8117E+02  0.8437E+02  0.1042E+03  0.1040E+03
     -5.552  0.7346E+02  0.7177E+02  0.1079E+03  0.1077E+03
     -5.500  0.7814E+02  0.7870E+02  0.1120E+03  0.1118E+03
     -5.448  0.7777E+02  0.7853E+02  0.1160E+03  0.1158E+03
     -5.397  0.6516E+02  0.6357E+02  0.1194E+03  0.1191E+03
     -5.345  0.8801E+02  0.8744E+02  0.1239E+03  0.1236E+03
     -5.293  0.9038E+02  0.9195E+02  0.1286E+03  0.1284E+03
     -5.242  0.8923E+02  0.8936E+02  0.1332E+03  0.1330E+03
     -5.190  0.5880E+02  0.5972E+02  0.1362E+03  0.1361E+03
     -5.138  0.5711E+02  0.5787E+02  0.1392E+03  0.1391E+03
     -5.087  0.5659E+02  0.5524E+02  0.1421E+03  0.1419E+03
     -5.035  0.7323E+02  0.7203E+02  0.1459E+03  0.1457E+03
     -4.983  0.6345E+02  0.6437E+02  0.1492E+03  0.1490E+03
     -4.932  0.6119E+02  0.6227E+02  0.1523E+03  0.1522E+03
     -4.880  0.7839E+02  0.7562E+02  0.1564E+03  0.1561E+03
     -4.828  0.1033E+03  0.1046E+03  0.1617E+03  0.1615E+03
     -4.777  0.1023E+03  0.1001E+03  0.1670E+03  0.1667E+03
     -4.725  0.1033E+03  0.1040E+03  0.1723E+03  0.1721E+03
     -4.673  0.1160E+03  0.1154E+03  0.1783E+03  0.1780E+03
     -4.622  0.1039E+03  0.1025E+03  0.1837E+03  0.1833E+03
     -4.570  0.1058E+03  0.1058E+03  0.1892E+03  0.1888E+03
     -4.518  0.9564E+02  0.9763E+02  0.1941E+03  0.1938E+03
     -4.467  0.1039E+03  0.1020E+03  0.1995E+03  0.1991E+03
     -4.415  0.8923E+02  0.9021E+02  0.2041E+03  0.2038E+03
     -4.363  0.8999E+02  0.9158E+02  0.2087E+03  0.2085E+03
     -4.312  0.1003E+03  0.9840E+02  0.2139E+03  0.2136E+03
     -4.260  0.5636E+02  0.5881E+02  0.2168E+03  0.2166E+03
     -4.208  0.8298E+02  0.8029E+02  0.2211E+03  0.2208E+03
     -4.157  0.9982E+02  0.1029E+03  0.2263E+03  0.2261E+03
     -4.105  0.4947E+02  0.5105E+02  0.2288E+03  0.2287E+03
     -4.053  0.6094E+02  0.5920E+02  0.2320E+03  0.2318E+03
     -4.002  0.6834E+02  0.6756E+02  0.2355E+03  0.2353E+03
     -3.950  0.5872E+02  0.5839E+02  0.2385E+03  0.2383E+03
     -3.898  0.8152E+02  0.8192E+02  0.2427E+03  0.2425E+03
     -3.847  0.7835E+02  0.7847E+02  0.2468E+03  0.2466E+03
     -3.795  0.7122E+02  0.7143E+02  0.2505E+03  0.2503E+03
     -3.743  0.5398E+02  0.5722E+02  0.2533E+03  0.2532E+03
     -3.692  0.6759E+02  0.6058E+02  0.2568E+03  0.2563E+03
     -3.640  0.6860E+02  0.7258E+02  0.2603E+03  0.2601E+03
     -3.588  0.7412E+02  0.7453E+02  0.2641E+03  0.2639E+03
     -3.537  0.3129E+02  0.3246E+02  0.2657E+03  0.2656E+03
     -3.485  0.7460E+02  0.7165E+02  0.2696E+03  0.2693E+03
     -3.433  0.8816E+02  0.8718E+02  0.2742E+03  0.2738E+03
     -3.382  0.6091E+02  0.6206E+02  0.2773E+03  0.2770E+03
     -3.330  0.8203E+02  0.8489E+02  0.2815E+03  0.2814E+03
     -3.278  0.7352E+02  0.7165E+02  0.2853E+03  0.2851E+03
     -3.227  0.8433E+02  0.8364E+02  0.2897E+03  0.2894E+03
     -3.175  0.6543E+02  0.6461E+02  0.2931E+03  0.2928E+03
     -3.123  0.8929E+02  0.8759E+02  0.2977E+03  0.2973E+03
     -3.072  0.6211E+02  0.6529E+02  0.3009E+03  0.3007E+03
     -3.020  0.6166E+02  0.6318E+02  0.3041E+03  0.3039E+03
     -2.968  0.7934E+02  0.7725E+02  0.3082E+03  0.3079E+03
     -2.917  0.9650E+02  0.9518E+02  0.3132E+03  0.3129E+03
     -2.865  0.1021E+03  0.1028E+03  0.3184E+03  0.3182E+03
     -2.813  0.6616E+02  0.6802E+02  0.3219E+03  0.3217E+03
     -2.762  0.9542E+02  0.9214E+02  0.3268E+03  0.3264E+03
     -2.710  0.1035E+03  0.1048E+03  0.3321E+03  0.3318E+03
     -2.658  0.1005E+03  0.1003E+03  0.3373E+03  0.3370E+03
     -2.607  0.9107E+02  0.9184E+02  0.3420E+03  0.3418E+03
     -2.555  0.1198E+03  0.1188E+03  0.3482E+03  0.3479E+03
     -2.503  0.1307E+03  0.1308E+03  0.3550E+03  0.3547E+03
     -2.452  0.9860E+02  0.9928E+02  0.3601E+03  0.3598E+03
     -2.400  0.7502E+02  0.7613E+02  0.3639E+03  0.3637E+03
     -2.348  0.1078E+03  0.1067E+03  0.3695E+03  0.3692E+03
     -2.297  0.9826E+02  0.9817E+02  0.3746E+03  0.3743E+03
     -2.245  0.1054E+03  0.1046E+03  0.3800E+03  0.3797E+03
     -2.193  0.4793E+02  0.4979E+02  0.3825E+03  0.3823E+03
     -2.142  0.3915E+02  0.4103E+02  0.3845E+03  0.3844E+03
     -2.090  0.6348E+02  0.6365E+02  0.3878E+03  0.3877E+03
     -2.038  0.6353E+02  0.6074E+02  0.3911E+03  0.3908E+03
     -1.987  0.8858E+02  0.8757E+02  0.3957E+03  0.3954E+03
     -1.935  0.9941E+02  0.9985E+02  0.4008E+03  0.4005E+03
     -1.883  0.1032E+03  0.1039E+03  0.4061E+03  0.4059E+03
     -1.832  0.5892E+02  0.6058E+02  0.4092E+03  0.4090E+03
     -1.780  0.9030E+02  0.8827E+02  0.4138E+03  0.4136E+03
     -1.728  0.9331E+02  0.9200E+02  0.4187E+03  0.4183E+03
     -1.677  0.1065E+03  0.1070E+03  0.4242E+03  0.4239E+03
     -1.625  0.6564E+02  0.6661E+02  0.4276E+03  0.4273E+03
     -1.574  0.9943E+02  0.9879E+02  0.4327E+03  0.4324E+03
     -1.522  0.6083E+02  0.6303E+02  0.4358E+03  0.4357E+03
     -1.470  0.6881E+02  0.6933E+02  0.4394E+03  0.4392E+03
     -1.419  0.5102E+02  0.5327E+02  0.4420E+03  0.4420E+03
     -1.367  0.6810E+02  0.6208E+02  0.4455E+03  0.4452E+03
     -1.315  0.6703E+02  0.7067E+02  0.4490E+03  0.4489E+03
     -1.264  0.4012E+02  0.4115E+02  0.4511E+03  0.4510E+03
     -1.212  0.5698E+02  0.5613E+02  0.4540E+03  0.4539E+03
     -1.160  0.5317E+02  0.5334E+02  0.4568E+03  0.4566E+03
     -1.109  0.5338E+02  0.5253E+02  0.4595E+03  0.4593E+03
     -1.057  0.5049E+02  0.5161E+02  0.4621E+03  0.4620E+03
     -1.005  0.6453E+02  0.6301E+02  0.4655E+03  0.4653E+03
     -0.954  0.3626E+02  0.3746E+02  0.4673E+03  0.4672E+03
     -0.902  0.4363E+02  0.4144E+02  0.4696E+03  0.4693E+03
     -0.850  0.5720E+02  0.6048E+02  0.4726E+03  0.4725E+03
     -0.799  0.7131E+02  0.7054E+02  0.4762E+03  0.4761E+03
     -0.747  0.5896E+02  0.5916E+02  0.4793E+03  0.4792E+03
     -0.695  0.6344E+02  0.5992E+02  0.4826E+03  0.4823E+03
     -0.644  0.5523E+02  0.5787E+02  0.4854E+03  0.4853E+03
     -0.592  0.3650E+02  0.3669E+02  0.4873E+03  0.4872E+03
     -0.540  0.3578E+02  0.3742E+02  0.4892E+03  0.4891E+03
     -0.489  0.1023E+02  0.1030E+02  0.4897E+03  0.4896E+03
     -0.437  0.4476E+02  0.4341E+02  0.4920E+03  0.4919E+03
     -0.385  0.4255E+02  0.4380E+02  0.4942E+03  0.4941E+03
     -0.334  0.4917E+02  0.4684E+02  0.4967E+03  0.4965E+03
     -0.282  0.8638E+02  0.8751E+02  0.5012E+03  0.5011E+03
     -0.230  0.6144E+02  0.5882E+02  0.5044E+03  0.5041E+03
     -0.179  0.8541E+02  0.8688E+02  0.5088E+03  0.5086E+03
     -0.127  0.1141E+03  0.1136E+03  0.5147E+03  0.5145E+03
     -0.075  0.1136E+03  0.1127E+03  0.5205E+03  0.5203E+03
     -0.024  0.1286E+03  0.1268E+03  0.5272E+03  0.5268E+03
      0.028  0.1048E+03  0.1051E+03  0.5326E+03  0.5323E+03
      0.080  0.1745E+03  0.1735E+03  0.5416E+03  0.5412E+03
      0.131  0.1140E+03  0.1182E+03  0.5475E+03  0.5473E+03
      0.183  0.8388E+02  0.8321E+02  0.5518E+03  0.5516E+03
      0.235  0.9399E+02  0.9428E+02  0.5567E+03  0.5565E+03
      0.286  0.8296E+02  0.8334E+02  0.5610E+03  0.5608E+03
      0.338  0.6975E+02  0.6973E+02  0.5646E+03  0.5644E+03
      0.390  0.8796E+02  0.8291E+02  0.5691E+03  0.5687E+03
      0.441  0.1118E+03  0.1153E+03  0.5749E+03  0.5747E+03
      0.493  0.6467E+02  0.6771E+02  0.5782E+03  0.5782E+03
      0.545  0.1189E+03  0.1151E+03  0.5844E+03  0.5841E+03
      0.596  0.1501E+03  0.1489E+03  0.5921E+03  0.5918E+03
      0.648  0.1386E+03  0.1396E+03  0.5993E+03  0.5990E+03
      0.700  0.1406E+03  0.1417E+03  0.6066E+03  0.6063E+03
      0.751  0.1205E+03  0.1217E+03  0.6128E+03  0.6126E+03
      0.803  0.1134E+03  0.1108E+03  0.6187E+03  0.6183E+03
      0.855  0.1131E+03  0.1133E+03  0.6245E+03  0.6242E+03
      0.906  0.9640E+02  0.9903E+02  0.6295E+03  0.6293E+03
      0.958  0.1013E+03  0.9741E+02  0.6347E+03  0.6343E+03
      1.010  0.1123E+03  0.1117E+03  0.6405E+03  0.6401E+03
      1.061  0.1820E+03  0.1802E+03  0.6499E+03  0.6494E+03
      1.113  0.1106E+03  0.1132E+03  0.6556E+03  0.6553E+03
      1.165  0.1733E+03  0.1704E+03  0.6646E+03  0.6641E+03
      1.216  0.1563E+03  0.1573E+03  0.6727E+03  0.6722E+03
      1.268  0.1727E+03  0.1737E+03  0.6816E+03  0.6812E+03
      1.320  0.1800E+03  0.1776E+03  0.6909E+03  0.6903E+03
      1.371  0.1962E+03  0.1968E+03  0.7010E+03  0.7005E+03
      1.423  0.1611E+03  0.1617E+03  0.7093E+03  0.7089E+03
      1.475  0.1504E+03  0.1500E+03  0.7171E+03  0.7166E+03
      1.526  0.2118E+03  0.2097E+03  0.7281E+03  0.7274E+03
      1.578  0.1865E+03  0.1862E+03  0.7377E+03  0.7371E+03
      1.630  0.1862E+03  0.1872E+03  0.7473E+03  0.7467E+03
      1.681  0.1690E+03  0.1700E+03  0.7560E+03  0.7555E+03
      1.733  0.2089E+03  0.2062E+03  0.7668E+03  0.7662E+03
      1.785  0.1555E+03  0.1601E+03  0.7749E+03  0.7744E+03
      1.836  0.1884E+03  0.1855E+03  0.7846E+03  0.7840E+03
      1.888  0.1652E+03  0.1657E+03  0.7931E+03  0.7926E+03
      1.940  0.1907E+03  0.1889E+03  0.8030E+03  0.8024E+03
      1.991  0.1823E+03  0.1852E+03  0.8124E+03  0.8119E+03
      2.043  0.1670E+03  0.1660E+03  0.8210E+03  0.8205E+03
      2.095  0.1933E+03  0.1955E+03  0.8310E+03  0.8306E+03
      2.146  0.1792E+03  0.1721E+03  0.8403E+03  0.8395E+03
      2.198  0.1842E+03  0.1872E+03  0.8498E+03  0.8492E+03
      2.250  0.1691E+03  0.1690E+03  0.8585E+03  0.8579E+03
      2.301  0.1523E+03  0.1547E+03  0.8664E+03  0.8659E+03
      2.353  0.1729E+03  0.1729E+03  0.8753E+03  0.8748E+03
      2.405  0.1992E+03  0.2005E+03  0.8856E+03  0.8852E+03
      2.456  0.1553E+03  0.1545E+03  0.8936E+03  0.8932E+03
      2.508  0.1520E+03  0.1502E+03  0.9015E+03  0.9009E+03
      2.560  0.1597E+03  0.1595E+03  0.9098E+03  0.9092E+03
      2.611  0.1366E+03  0.1376E+03  0.9168E+03  0.9163E+03
      2.663  0.1066E+03  0.1103E+03  0.9223E+03  0.9220E+03
      2.715  0.1537E+03  0.1493E+03  0.9303E+03  0.9297E+03
      2.766  0.1329E+03  0.1357E+03  0.9371E+03  0.9367E+03
      2.818  0.1503E+03  0.1457E+03  0.9449E+03  0.9442E+03
      2.869  0.1391E+03  0.1414E+03  0.9521E+03  0.9515E+03
      2.921  0.1394E+03  0.1395E+03  0.9593E+03  0.9587E+03
      2.973  0.9757E+02  0.1011E+03  0.9643E+03  0.9640E+03
      3.024  0.1355E+03  0.1331E+03  0.9713E+03  0.9708E+03
      3.076  0.1313E+03  0.1323E+03  0.9781E+03  0.9777E+03
      3.128  0.1206E+03  0.1171E+03  0.9843E+03  0.9837E+03
      3.179  0.9630E+02  0.9467E+02  0.9893E+03  0.9886E+03
      3.231  0.1111E+03  0.1160E+03  0.9950E+03  0.9946E+03
      3.283  0.1204E+03  0.1159E+03  0.1001E+04  0.1001E+04
      3.334  0.9940E+02  0.1057E+03  0.1006E+04  0.1006E+04
      3.386  0.7923E+02  0.7994E+02  0.1010E+04  0.1010E+04
      3.438  0.8978E+02  0.8651E+02  0.1015E+04  0.1015E+04
      3.489  0.8604E+02  0.8487E+02  0.1020E+04  0.1019E+04
      3.541  0.8091E+02  0.8497E+02  0.1024E+04  0.1023E+04
      3.593  0.7459E+02  0.7534E+02  0.1028E+04  0.1027E+04
      3.644  0.8050E+02  0.8481E+02  0.1032E+04  0.1032E+04
      3.696  0.3794E+02  0.3296E+02  0.1034E+04  0.1033E+04
      3.748  0.6993E+02  0.6814E+02  0.1037E+04  0.1037E+04
      3.799  0.3315E+02  0.3635E+02  0.1039E+04  0.1039E+04
      3.851  0.6670E+02  0.6954E+02  0.1043E+04  0.1042E+04
      3.903  0.3761E+02  0.3501E+02  0.1044E+04  0.1044E+04
      3.954  0.3938E+02  0.3444E+02  0.1046E+04  0.1046E+04
      4.006  0.7828E+02  0.7725E+02  0.1051E+04  0.1050E+04
      4.058  0.7703E+02  0.6546E+02  0.1055E+04  0.1053E+04
      4.109  0.9043E+02  0.9878E+02  0.1059E+04  0.1058E+04
      4.161  0.1206E+03  0.1092E+03  0.1065E+04  0.1064E+04
      4.213  0.9690E+02  0.1018E+03  0.1070E+04  0.1069E+04
      4.264  0.9660E+02  0.9317E+02  0.1075E+04  0.1074E+04
      4.316  0.9969E+02  0.1012E+03  0.1081E+04  0.1079E+04
      4.368  0.1061E+03  0.1072E+03  0.1086E+04  0.1085E+04
      4.419  0.1017E+03  0.1081E+03  0.1091E+04  0.1091E+04
      4.471  0.1331E+03  0.1293E+03  0.1098E+04  0.1097E+04
      4.523  0.1087E+03  0.1153E+03  0.1104E+04  0.1103E+04
      4.574  0.1049E+03  0.1013E+03  0.1109E+04  0.1108E+04
      4.626  0.1016E+03  0.1019E+03  0.1114E+04  0.1114E+04
      4.678  0.1177E+03  0.1212E+03  0.1121E+04  0.1120E+04
      4.729  0.1231E+03  0.1215E+03  0.1127E+04  0.1126E+04
      4.781  0.1146E+03  0.1142E+03  0.1133E+04  0.1132E+04
      4.833  0.1161E+03  0.1172E+03  0.1139E+04  0.1138E+04
      4.884  0.1266E+03  0.1292E+03  0.1145E+04  0.1145E+04
      4.936  0.1137E+03  0.1086E+03  0.1151E+04  0.1150E+04
      4.988  0.1303E+03  0.1322E+03  0.1158E+04  0.1157E+04
      5.039  0.1199E+03  0.1194E+03  0.1164E+04  0.1163E+04
      5.091  0.1346E+03  0.1371E+03  0.1171E+04  0.1171E+04
      5.143  0.1142E+03  0.1152E+03  0.1177E+04  0.1176E+04
      5.194  0.1132E+03  0.1105E+03  0.1183E+04  0.1182E+04
      5.246  0.9008E+02  0.9248E+02  0.1188E+04  0.1187E+04
      5.298  0.1190E+03  0.1138E+03  0.1194E+04  0.1193E+04
      5.349  0.1140E+03  0.1198E+03  0.1200E+04  0.1199E+04
      5.401  0.1466E+03  0.1419E+03  0.1207E+04  0.1206E+04
      5.453  0.1446E+03  0.1481E+03  0.1215E+04  0.1214E+04
      5.504  0.1384E+03  0.1395E+03  0.1222E+04  0.1221E+04
      5.556  0.1538E+03  0.1529E+03  0.1230E+04  0.1229E+04
      5.608  0.1308E+03  0.1316E+03  0.1236E+04  0.1236E+04
      5.659  0.1108E+03  0.1107E+03  0.1242E+04  0.1242E+04
      5.711  0.1378E+03  0.1380E+03  0.1249E+04  0.1249E+04
      5.763  0.1271E+03  0.1292E+03  0.1256E+04  0.1255E+04
      5.814  0.1242E+03  0.1214E+03  0.1262E+04  0.1262E+04
      5.866  0.1326E+03  0.1284E+03  0.1269E+04  0.1268E+04
      5.918  0.4707E+02  0.6339E+02  0.1272E+04  0.1272E+04
      5.969  0.8804E+01  0.7044E+01  0.1272E+04  0.1272E+04
      6.021  0.0000E+00  0.0000E+00  0.1272E+04  0.1272E+04
      6.073  0.0000E+00  0.0000E+00  0.1272E+04  0.1272E+04
      6.124  0.0000E+00  0.0000E+00  0.1272E+04  0.1272E+04
      6.176  0.0000E+00  0.0000E+00  0.1272E+04  0.1272E+04
      6.228  0.0000E+00  0.0000E+00  0.1272E+04  0.1272E+04
      6.279  0.0000E+00  0.0000E+00  0.1272E+04  0.1272E+04
      6.331  0.0000E+00  0.0000E+00  0.1272E+04  0.1272E+04
      6.383  0.0000E+00  0.0000E+00  0.1272E+04  0.1272E+04
      6.434  0.0000E+00  0.0000E+00  0.1272E+04  0.1272E+04
      6.486  0.0000E+00  0.0000E+00  0.1272E+04  0.1272E+04
      6.538  0.0000E+00  0.0000E+00  0.1272E+04  0.1272E+04
      6.589  0.0000E+00  0.0000E+00  0.1272E+04  0.1272E+04
      6.641  0.0000E+00  0.0000E+00  0.1272E+04  0.1272E+04
