  60  60   0   0
  0.2197472E+02  0.1330318E-08  0.1629300E-08  0.6663596E-09  0.5000000E-15
  1.000000000000000E-004
  CAR 
 Si and Ge interface calculation         
      8.77054925     -8.30840900  301      6.13201714      1.00000000
     -8.308  0.0000E+00  0.0000E+00  0.0000E+00  0.0000E+00
     -8.251  0.0000E+00  0.0000E+00  0.0000E+00  0.0000E+00
     -8.195  0.0000E+00  0.0000E+00  0.0000E+00  0.0000E+00
     -8.138  0.0000E+00  0.0000E+00  0.0000E+00  0.0000E+00
     -8.081  0.0000E+00  0.0000E+00  0.0000E+00  0.0000E+00
     -8.024  0.0000E+00  0.0000E+00  0.0000E+00  0.0000E+00
     -7.967  0.0000E+00  0.0000E+00  0.0000E+00  0.0000E+00
     -7.910  0.0000E+00  0.0000E+00  0.0000E+00  0.0000E+00
     -7.853  0.0000E+00  0.0000E+00  0.0000E+00  0.0000E+00
     -7.796  0.0000E+00  0.0000E+00  0.0000E+00  0.0000E+00
     -7.739  0.0000E+00  0.0000E+00  0.0000E+00  0.0000E+00
     -7.682  0.0000E+00  0.0000E+00  0.0000E+00  0.0000E+00
     -7.625  0.0000E+00  0.0000E+00  0.0000E+00  0.0000E+00
     -7.568  0.1851E-06  0.9085E-11  0.1054E-07  0.5172E-12
     -7.511  0.2331E+01  0.1974E+01  0.1327E+00  0.1124E+00
     -7.454  0.9999E+01  0.9657E+01  0.7020E+00  0.6621E+00
     -7.398  0.9228E+01  0.9455E+01  0.1227E+01  0.1200E+01
     -7.341  0.2540E+02  0.1974E+02  0.2674E+01  0.2324E+01
     -7.284  0.1671E+02  0.1539E+02  0.3625E+01  0.3200E+01
     -7.227  0.6589E+01  0.1402E+02  0.4000E+01  0.3998E+01
     -7.170  0.0000E+00  0.3264E-01  0.4000E+01  0.4000E+01
     -7.113  0.0000E+00  0.0000E+00  0.4000E+01  0.4000E+01
     -7.056  0.0000E+00  0.0000E+00  0.4000E+01  0.4000E+01
     -6.999  0.0000E+00  0.0000E+00  0.4000E+01  0.4000E+01
     -6.942  0.2275E-14  0.0000E+00  0.4000E+01  0.4000E+01
     -6.885  0.6763E+00  0.1889E+00  0.4039E+01  0.4011E+01
     -6.828  0.3028E+01  0.2442E+01  0.4211E+01  0.4150E+01
     -6.771  0.8791E+01  0.9152E+01  0.4711E+01  0.4671E+01
     -6.714  0.1024E+02  0.9658E+01  0.5294E+01  0.5221E+01
     -6.657  0.8008E+01  0.5851E+01  0.5750E+01  0.5554E+01
     -6.601  0.1295E+02  0.1402E+02  0.6487E+01  0.6352E+01
     -6.544  0.5518E+01  0.7872E+01  0.6801E+01  0.6800E+01
     -6.487  0.9699E+01  0.9420E+01  0.7354E+01  0.7336E+01
     -6.430  0.7168E+01  0.6997E+01  0.7762E+01  0.7735E+01
     -6.373  0.6560E+01  0.7003E+01  0.8135E+01  0.8133E+01
     -6.316  0.4652E+01  0.4682E+01  0.8400E+01  0.8400E+01
     -6.259  0.8547E+01  0.5698E+01  0.8887E+01  0.8724E+01
     -6.202  0.1768E+02  0.1816E+02  0.9893E+01  0.9758E+01
     -6.145  0.1590E+02  0.1801E+02  0.1080E+02  0.1078E+02
     -6.088  0.5203E+01  0.4772E+01  0.1109E+02  0.1106E+02
     -6.031  0.1112E+02  0.9600E+01  0.1173E+02  0.1160E+02
     -5.974  0.4901E+01  0.6656E+01  0.1201E+02  0.1198E+02
     -5.917  0.4581E+01  0.5024E+01  0.1227E+02  0.1227E+02
     -5.860  0.9195E+01  0.8156E+01  0.1279E+02  0.1273E+02
     -5.803  0.1125E+02  0.1062E+02  0.1343E+02  0.1334E+02
     -5.747  0.1079E+02  0.1001E+02  0.1405E+02  0.1391E+02
     -5.690  0.1466E+02  0.1376E+02  0.1488E+02  0.1469E+02
     -5.633  0.2041E+02  0.1839E+02  0.1604E+02  0.1574E+02
     -5.576  0.1579E+02  0.1775E+02  0.1694E+02  0.1675E+02
     -5.519  0.2089E+02  0.2160E+02  0.1813E+02  0.1798E+02
     -5.462  0.1202E+02  0.1252E+02  0.1881E+02  0.1869E+02
     -5.405  0.1250E+02  0.1362E+02  0.1953E+02  0.1946E+02
     -5.348  0.6177E+01  0.6027E+01  0.1988E+02  0.1981E+02
     -5.291  0.2147E+01  0.3387E+01  0.2000E+02  0.2000E+02
     -5.234  0.1074E-08  0.2600E-15  0.2000E+02  0.2000E+02
     -5.177  0.1147E+01  0.5517E+00  0.2007E+02  0.2003E+02
     -5.120  0.5041E+01  0.3815E+01  0.2035E+02  0.2025E+02
     -5.063  0.1351E+02  0.1268E+02  0.2112E+02  0.2097E+02
     -5.006  0.1598E+02  0.1440E+02  0.2203E+02  0.2179E+02
     -4.950  0.1880E+02  0.1696E+02  0.2310E+02  0.2276E+02
     -4.893  0.1578E+02  0.2181E+02  0.2400E+02  0.2400E+02
     -4.836  0.2372E+01  0.1631E+01  0.2414E+02  0.2409E+02
     -4.779  0.1054E+02  0.9278E+01  0.2474E+02  0.2462E+02
     -4.722  0.1113E+02  0.1005E+02  0.2537E+02  0.2519E+02
     -4.665  0.4220E+01  0.7186E+01  0.2561E+02  0.2560E+02
     -4.608  0.1456E+02  0.9116E+01  0.2644E+02  0.2612E+02
     -4.551  0.1849E+02  0.1836E+02  0.2749E+02  0.2716E+02
     -4.494  0.1660E+02  0.2083E+02  0.2844E+02  0.2835E+02
     -4.437  0.1125E+02  0.1225E+02  0.2908E+02  0.2905E+02
     -4.380  0.6873E+01  0.7054E+01  0.2947E+02  0.2945E+02
     -4.323  0.1364E+02  0.7555E+01  0.3024E+02  0.2988E+02
     -4.266  0.1685E+02  0.2011E+02  0.3120E+02  0.3102E+02
     -4.209  0.1760E+02  0.1774E+02  0.3220E+02  0.3203E+02
     -4.153  0.1287E+02  0.1237E+02  0.3294E+02  0.3274E+02
     -4.096  0.1485E+02  0.1435E+02  0.3378E+02  0.3355E+02
     -4.039  0.9173E+01  0.1134E+02  0.3430E+02  0.3420E+02
     -3.982  0.1572E+02  0.1542E+02  0.3520E+02  0.3508E+02
     -3.925  0.1744E+02  0.1810E+02  0.3619E+02  0.3611E+02
     -3.868  0.2760E+01  0.2997E+01  0.3635E+02  0.3628E+02
     -3.811  0.7916E+01  0.9097E+01  0.3680E+02  0.3680E+02
     -3.754  0.5106E+01  0.4755E+01  0.3709E+02  0.3707E+02
     -3.697  0.1815E+02  0.1556E+02  0.3812E+02  0.3795E+02
     -3.640  0.1263E+02  0.1217E+02  0.3884E+02  0.3865E+02
     -3.583  0.2140E+02  0.2206E+02  0.4006E+02  0.3990E+02
     -3.526  0.1393E+02  0.1450E+02  0.4085E+02  0.4073E+02
     -3.469  0.1105E+02  0.9997E+01  0.4148E+02  0.4130E+02
     -3.412  0.1847E+02  0.1570E+02  0.4254E+02  0.4219E+02
     -3.356  0.1584E+02  0.2114E+02  0.4344E+02  0.4339E+02
     -3.299  0.1409E+02  0.1096E+02  0.4424E+02  0.4402E+02
     -3.242  0.1670E+02  0.1946E+02  0.4519E+02  0.4512E+02
     -3.185  0.1087E+02  0.1055E+02  0.4581E+02  0.4573E+02
     -3.128  0.8091E+01  0.9200E+01  0.4627E+02  0.4625E+02
     -3.071  0.1698E+02  0.1317E+02  0.4724E+02  0.4700E+02
     -3.014  0.9934E+01  0.1176E+02  0.4780E+02  0.4767E+02
     -2.957  0.7739E+01  0.9226E+01  0.4824E+02  0.4819E+02
     -2.900  0.1227E+02  0.1297E+02  0.4894E+02  0.4893E+02
     -2.843  0.8271E+01  0.6138E+01  0.4941E+02  0.4928E+02
     -2.786  0.2408E+01  0.4429E+01  0.4955E+02  0.4953E+02
     -2.729  0.8827E+01  0.5917E+01  0.5005E+02  0.4987E+02
     -2.672  0.7052E+01  0.8861E+01  0.5045E+02  0.5038E+02
     -2.615  0.1156E+02  0.1093E+02  0.5111E+02  0.5100E+02
     -2.558  0.4776E+01  0.5955E+01  0.5138E+02  0.5134E+02
     -2.502  0.7448E+01  0.7005E+01  0.5181E+02  0.5174E+02
     -2.445  0.1340E+02  0.1181E+02  0.5257E+02  0.5241E+02
     -2.388  0.1814E+02  0.1631E+02  0.5360E+02  0.5334E+02
     -2.331  0.1810E+02  0.1992E+02  0.5463E+02  0.5447E+02
     -2.274  0.1603E+02  0.1514E+02  0.5555E+02  0.5533E+02
     -2.217  0.1704E+02  0.1658E+02  0.5652E+02  0.5628E+02
     -2.160  0.9086E+01  0.1078E+02  0.5703E+02  0.5689E+02
     -2.103  0.2435E+02  0.2244E+02  0.5842E+02  0.5817E+02
     -2.046  0.2529E+02  0.2632E+02  0.5986E+02  0.5967E+02
     -1.989  0.4998E+01  0.8206E+01  0.6014E+02  0.6013E+02
     -1.932  0.4499E+01  0.3999E+01  0.6040E+02  0.6036E+02
     -1.875  0.4959E+01  0.5367E+01  0.6068E+02  0.6067E+02
     -1.818  0.1662E+02  0.1182E+02  0.6163E+02  0.6134E+02
     -1.761  0.1272E+02  0.1471E+02  0.6235E+02  0.6218E+02
     -1.705  0.2277E+02  0.2438E+02  0.6365E+02  0.6357E+02
     -1.648  0.2074E+02  0.1973E+02  0.6483E+02  0.6469E+02
     -1.591  0.1985E+02  0.1640E+02  0.6596E+02  0.6562E+02
     -1.534  0.1174E+02  0.1619E+02  0.6663E+02  0.6654E+02
     -1.477  0.1354E+02  0.1237E+02  0.6740E+02  0.6725E+02
     -1.420  0.7033E+01  0.7749E+01  0.6780E+02  0.6769E+02
     -1.363  0.1024E+02  0.7515E+01  0.6838E+02  0.6812E+02
     -1.306  0.2025E+02  0.2054E+02  0.6954E+02  0.6929E+02
     -1.249  0.2440E+02  0.2476E+02  0.7092E+02  0.7070E+02
     -1.192  0.2107E+02  0.1883E+02  0.7212E+02  0.7177E+02
     -1.135  0.2682E+02  0.2775E+02  0.7365E+02  0.7335E+02
     -1.078  0.1850E+02  0.1820E+02  0.7470E+02  0.7438E+02
     -1.021  0.1541E+02  0.1675E+02  0.7558E+02  0.7534E+02
     -0.964  0.1163E+02  0.1097E+02  0.7624E+02  0.7596E+02
     -0.908  0.1641E+02  0.1607E+02  0.7718E+02  0.7688E+02
     -0.851  0.1361E+02  0.1503E+02  0.7795E+02  0.7773E+02
     -0.794  0.2037E+02  0.2029E+02  0.7911E+02  0.7889E+02
     -0.737  0.1731E+02  0.1736E+02  0.8010E+02  0.7988E+02
     -0.680  0.2017E+02  0.1951E+02  0.8125E+02  0.8099E+02
     -0.623  0.1616E+02  0.1525E+02  0.8217E+02  0.8185E+02
     -0.566  0.2348E+02  0.2536E+02  0.8350E+02  0.8330E+02
     -0.509  0.1774E+02  0.1597E+02  0.8451E+02  0.8421E+02
     -0.452  0.1424E+02  0.1595E+02  0.8532E+02  0.8512E+02
     -0.395  0.1543E+02  0.1487E+02  0.8620E+02  0.8596E+02
     -0.338  0.2085E+02  0.1810E+02  0.8739E+02  0.8699E+02
     -0.281  0.2223E+02  0.2204E+02  0.8865E+02  0.8825E+02
     -0.224  0.2048E+02  0.2153E+02  0.8982E+02  0.8947E+02
     -0.167  0.2192E+02  0.2269E+02  0.9107E+02  0.9077E+02
     -0.111  0.1190E+02  0.1521E+02  0.9175E+02  0.9163E+02
     -0.054  0.1715E+02  0.1427E+02  0.9272E+02  0.9244E+02
      0.003  0.2424E+02  0.2263E+02  0.9410E+02  0.9373E+02
      0.060  0.7563E+01  0.1213E+02  0.9453E+02  0.9442E+02
      0.117  0.1809E+02  0.1445E+02  0.9556E+02  0.9525E+02
      0.174  0.2808E+02  0.2951E+02  0.9716E+02  0.9693E+02
      0.231  0.1390E+02  0.1423E+02  0.9795E+02  0.9774E+02
      0.288  0.2432E+02  0.2415E+02  0.9934E+02  0.9911E+02
      0.345  0.1855E+02  0.1618E+02  0.1004E+03  0.1000E+03
      0.402  0.2179E+02  0.2575E+02  0.1016E+03  0.1015E+03
      0.459  0.1615E+02  0.1410E+02  0.1026E+03  0.1023E+03
      0.516  0.2966E+02  0.2121E+02  0.1042E+03  0.1035E+03
      0.573  0.1646E+02  0.2634E+02  0.1052E+03  0.1050E+03
      0.630  0.2391E+02  0.2232E+02  0.1065E+03  0.1063E+03
      0.687  0.1340E+02  0.1347E+02  0.1073E+03  0.1070E+03
      0.743  0.1979E+02  0.2072E+02  0.1084E+03  0.1082E+03
      0.800  0.1150E+02  0.1142E+02  0.1091E+03  0.1089E+03
      0.857  0.2578E+02  0.2309E+02  0.1106E+03  0.1102E+03
      0.914  0.2036E+02  0.2466E+02  0.1117E+03  0.1116E+03
      0.971  0.2499E+02  0.1970E+02  0.1131E+03  0.1127E+03
      1.028  0.1706E+02  0.1675E+02  0.1141E+03  0.1137E+03
      1.085  0.2254E+02  0.2613E+02  0.1154E+03  0.1152E+03
      1.142  0.2919E+02  0.2316E+02  0.1171E+03  0.1165E+03
      1.199  0.2174E+02  0.2498E+02  0.1183E+03  0.1179E+03
      1.256  0.1754E+02  0.1762E+02  0.1193E+03  0.1189E+03
      1.313  0.1305E+02  0.1259E+02  0.1200E+03  0.1196E+03
      1.370  0.1715E+02  0.1985E+02  0.1210E+03  0.1207E+03
      1.427  0.1730E+02  0.1502E+02  0.1220E+03  0.1216E+03
      1.484  0.1154E+02  0.1511E+02  0.1226E+03  0.1225E+03
      1.540  0.1992E+02  0.1600E+02  0.1238E+03  0.1234E+03
      1.597  0.2270E+02  0.2052E+02  0.1251E+03  0.1245E+03
      1.654  0.1677E+02  0.1800E+02  0.1260E+03  0.1256E+03
      1.711  0.2572E+02  0.2963E+02  0.1275E+03  0.1273E+03
      1.768  0.1653E+02  0.1600E+02  0.1284E+03  0.1282E+03
      1.825  0.1176E+02  0.1287E+02  0.1291E+03  0.1289E+03
      1.882  0.2045E+02  0.1587E+02  0.1303E+03  0.1298E+03
      1.939  0.3601E+02  0.3486E+02  0.1323E+03  0.1318E+03
      1.996  0.1372E+02  0.1935E+02  0.1331E+03  0.1329E+03
      2.053  0.2475E+02  0.2165E+02  0.1345E+03  0.1341E+03
      2.110  0.2364E+02  0.1710E+02  0.1359E+03  0.1351E+03
      2.167  0.2350E+02  0.2694E+02  0.1372E+03  0.1366E+03
      2.224  0.1808E+02  0.2165E+02  0.1382E+03  0.1379E+03
      2.281  0.3163E+02  0.2954E+02  0.1400E+03  0.1395E+03
      2.337  0.2792E+02  0.2708E+02  0.1416E+03  0.1411E+03
      2.394  0.3038E+02  0.3418E+02  0.1433E+03  0.1430E+03
      2.451  0.2367E+02  0.2334E+02  0.1447E+03  0.1444E+03
      2.508  0.3191E+02  0.3125E+02  0.1465E+03  0.1461E+03
      2.565  0.3319E+02  0.3187E+02  0.1484E+03  0.1479E+03
      2.622  0.2302E+02  0.2560E+02  0.1497E+03  0.1494E+03
      2.679  0.3373E+02  0.3200E+02  0.1516E+03  0.1512E+03
      2.736  0.2907E+02  0.2738E+02  0.1533E+03  0.1528E+03
      2.793  0.1713E+02  0.2021E+02  0.1543E+03  0.1539E+03
      2.850  0.2990E+02  0.2709E+02  0.1560E+03  0.1555E+03
      2.907  0.2661E+02  0.2979E+02  0.1575E+03  0.1572E+03
      2.964  0.2970E+02  0.2757E+02  0.1592E+03  0.1587E+03
      3.021  0.2535E+02  0.2379E+02  0.1606E+03  0.1601E+03
      3.078  0.2585E+02  0.2966E+02  0.1621E+03  0.1618E+03
      3.134  0.2393E+02  0.2415E+02  0.1634E+03  0.1632E+03
      3.191  0.3294E+02  0.2640E+02  0.1653E+03  0.1647E+03
      3.248  0.2355E+02  0.2582E+02  0.1667E+03  0.1661E+03
      3.305  0.3246E+02  0.3524E+02  0.1685E+03  0.1681E+03
      3.362  0.2115E+02  0.2180E+02  0.1697E+03  0.1694E+03
      3.419  0.2053E+02  0.2089E+02  0.1709E+03  0.1706E+03
      3.476  0.2999E+02  0.3105E+02  0.1726E+03  0.1723E+03
      3.533  0.2802E+02  0.2317E+02  0.1742E+03  0.1737E+03
      3.590  0.1815E+02  0.2411E+02  0.1752E+03  0.1750E+03
      3.647  0.2695E+02  0.2673E+02  0.1767E+03  0.1766E+03
      3.704  0.2663E+02  0.2179E+02  0.1783E+03  0.1778E+03
      3.761  0.1756E+02  0.2125E+02  0.1793E+03  0.1790E+03
      3.818  0.2664E+02  0.2191E+02  0.1808E+03  0.1803E+03
      3.875  0.2508E+02  0.3111E+02  0.1822E+03  0.1820E+03
      3.932  0.2006E+02  0.1855E+02  0.1834E+03  0.1831E+03
      3.988  0.2876E+02  0.2677E+02  0.1850E+03  0.1846E+03
      4.045  0.2549E+02  0.2651E+02  0.1864E+03  0.1861E+03
      4.102  0.2183E+02  0.2123E+02  0.1877E+03  0.1873E+03
      4.159  0.3161E+02  0.2894E+02  0.1895E+03  0.1890E+03
      4.216  0.2798E+02  0.3498E+02  0.1911E+03  0.1910E+03
      4.273  0.1553E+02  0.1064E+02  0.1920E+03  0.1916E+03
      4.330  0.2201E+02  0.2227E+02  0.1932E+03  0.1928E+03
      4.387  0.2154E+02  0.2072E+02  0.1944E+03  0.1940E+03
      4.444  0.2095E+02  0.2353E+02  0.1956E+03  0.1954E+03
      4.501  0.2456E+02  0.2277E+02  0.1970E+03  0.1966E+03
      4.558  0.2423E+02  0.2104E+02  0.1984E+03  0.1978E+03
      4.615  0.1916E+02  0.2637E+02  0.1995E+03  0.1993E+03
      4.672  0.2781E+02  0.2182E+02  0.2011E+03  0.2006E+03
      4.729  0.2763E+02  0.3035E+02  0.2027E+03  0.2023E+03
      4.785  0.2278E+02  0.2009E+02  0.2040E+03  0.2035E+03
      4.842  0.2290E+02  0.2619E+02  0.2053E+03  0.2050E+03
      4.899  0.3030E+02  0.2860E+02  0.2070E+03  0.2066E+03
      4.956  0.1734E+02  0.1902E+02  0.2080E+03  0.2077E+03
      5.013  0.3862E+02  0.2501E+02  0.2102E+03  0.2091E+03
      5.070  0.2501E+02  0.3575E+02  0.2116E+03  0.2111E+03
      5.127  0.2065E+02  0.2482E+02  0.2128E+03  0.2125E+03
      5.184  0.1972E+02  0.1537E+02  0.2139E+03  0.2134E+03
      5.241  0.2151E+02  0.1794E+02  0.2151E+03  0.2144E+03
      5.298  0.2980E+02  0.3450E+02  0.2168E+03  0.2164E+03
      5.355  0.3139E+02  0.2420E+02  0.2186E+03  0.2178E+03
      5.412  0.2864E+02  0.2693E+02  0.2202E+03  0.2193E+03
      5.469  0.2571E+02  0.2794E+02  0.2217E+03  0.2209E+03
      5.526  0.3022E+02  0.3083E+02  0.2234E+03  0.2227E+03
      5.582  0.2514E+02  0.3399E+02  0.2248E+03  0.2246E+03
      5.639  0.3098E+02  0.2425E+02  0.2266E+03  0.2260E+03
      5.696  0.3240E+02  0.3165E+02  0.2285E+03  0.2278E+03
      5.753  0.2348E+02  0.2607E+02  0.2298E+03  0.2293E+03
      5.810  0.3192E+02  0.2488E+02  0.2316E+03  0.2307E+03
      5.867  0.2295E+02  0.2422E+02  0.2329E+03  0.2321E+03
      5.924  0.2454E+02  0.2784E+02  0.2343E+03  0.2336E+03
      5.981  0.3025E+02  0.2234E+02  0.2360E+03  0.2349E+03
      6.038  0.2231E+02  0.2243E+02  0.2373E+03  0.2362E+03
      6.095  0.2688E+02  0.3381E+02  0.2388E+03  0.2381E+03
      6.152  0.3645E+02  0.2772E+02  0.2409E+03  0.2397E+03
      6.209  0.3014E+02  0.3198E+02  0.2426E+03  0.2415E+03
      6.266  0.2471E+02  0.2993E+02  0.2440E+03  0.2432E+03
      6.323  0.3691E+02  0.2721E+02  0.2461E+03  0.2448E+03
      6.379  0.2668E+02  0.2879E+02  0.2476E+03  0.2464E+03
      6.436  0.3139E+02  0.3763E+02  0.2494E+03  0.2485E+03
      6.493  0.2974E+02  0.2647E+02  0.2511E+03  0.2500E+03
      6.550  0.1972E+02  0.2615E+02  0.2523E+03  0.2515E+03
      6.607  0.2823E+02  0.2757E+02  0.2539E+03  0.2531E+03
      6.664  0.3201E+02  0.2732E+02  0.2557E+03  0.2547E+03
      6.721  0.2584E+02  0.3054E+02  0.2572E+03  0.2564E+03
      6.778  0.3199E+02  0.3438E+02  0.2590E+03  0.2584E+03
      6.835  0.2919E+02  0.2415E+02  0.2606E+03  0.2597E+03
      6.892  0.3009E+02  0.2985E+02  0.2623E+03  0.2614E+03
      6.949  0.2270E+02  0.2839E+02  0.2636E+03  0.2630E+03
      7.006  0.3176E+02  0.3144E+02  0.2654E+03  0.2648E+03
      7.063  0.2418E+02  0.2338E+02  0.2668E+03  0.2662E+03
      7.120  0.2322E+02  0.2401E+02  0.2681E+03  0.2675E+03
      7.177  0.3435E+02  0.2980E+02  0.2701E+03  0.2692E+03
      7.233  0.3197E+02  0.3607E+02  0.2719E+03  0.2713E+03
      7.290  0.2946E+02  0.2031E+02  0.2736E+03  0.2724E+03
      7.347  0.2399E+02  0.3572E+02  0.2750E+03  0.2745E+03
      7.404  0.2953E+02  0.2854E+02  0.2766E+03  0.2761E+03
      7.461  0.3123E+02  0.2849E+02  0.2784E+03  0.2777E+03
      7.518  0.2586E+02  0.2710E+02  0.2799E+03  0.2793E+03
      7.575  0.2348E+02  0.2589E+02  0.2812E+03  0.2807E+03
      7.632  0.3705E+02  0.3078E+02  0.2833E+03  0.2825E+03
      7.689  0.2448E+02  0.3008E+02  0.2847E+03  0.2842E+03
      7.746  0.2693E+02  0.2358E+02  0.2863E+03  0.2855E+03
      7.803  0.9192E+01  0.1888E+02  0.2868E+03  0.2866E+03
      7.860  0.8859E+01  0.8288E+01  0.2873E+03  0.2871E+03
      7.917  0.5580E+01  0.6404E+01  0.2876E+03  0.2875E+03
      7.974  0.6678E+01  0.7158E+01  0.2880E+03  0.2879E+03
      8.030  0.7828E-01  0.2350E+01  0.2880E+03  0.2880E+03
      8.087  0.0000E+00  0.0000E+00  0.2880E+03  0.2880E+03
      8.144  0.0000E+00  0.0000E+00  0.2880E+03  0.2880E+03
      8.201  0.0000E+00  0.0000E+00  0.2880E+03  0.2880E+03
      8.258  0.0000E+00  0.0000E+00  0.2880E+03  0.2880E+03
      8.315  0.0000E+00  0.0000E+00  0.2880E+03  0.2880E+03
      8.372  0.0000E+00  0.0000E+00  0.2880E+03  0.2880E+03
      8.429  0.0000E+00  0.0000E+00  0.2880E+03  0.2880E+03
      8.486  0.0000E+00  0.0000E+00  0.2880E+03  0.2880E+03
      8.543  0.0000E+00  0.0000E+00  0.2880E+03  0.2880E+03
      8.600  0.0000E+00  0.0000E+00  0.2880E+03  0.2880E+03
      8.657  0.0000E+00  0.0000E+00  0.2880E+03  0.2880E+03
      8.714  0.0000E+00  0.0000E+00  0.2880E+03  0.2880E+03
      8.771  0.0000E+00  0.0000E+00  0.2880E+03  0.2880E+03
