 264 264   0   0
  0.2741953E+02  0.1946760E-08  0.1946760E-08  0.1910025E-08  0.5000000E-15
  1.000000000000000E-004
  CAR 
 Si and Ge interface calculation         
      6.76022863     -8.85045268  301      4.14340376      1.00000000
     -8.850  0.0000E+00  0.0000E+00  0.0000E+00  0.0000E+00
     -8.798  0.0000E+00  0.0000E+00  0.0000E+00  0.0000E+00
     -8.746  0.0000E+00  0.0000E+00  0.0000E+00  0.0000E+00
     -8.694  0.0000E+00  0.0000E+00  0.0000E+00  0.0000E+00
     -8.642  0.0000E+00  0.0000E+00  0.0000E+00  0.0000E+00
     -8.590  0.0000E+00  0.0000E+00  0.0000E+00  0.0000E+00
     -8.538  0.0000E+00  0.0000E+00  0.0000E+00  0.0000E+00
     -8.486  0.0000E+00  0.0000E+00  0.0000E+00  0.0000E+00
     -8.434  0.0000E+00  0.0000E+00  0.0000E+00  0.0000E+00
     -8.382  0.0000E+00  0.0000E+00  0.0000E+00  0.0000E+00
     -8.330  0.0000E+00  0.0000E+00  0.0000E+00  0.0000E+00
     -8.278  0.0000E+00  0.0000E+00  0.0000E+00  0.0000E+00
     -8.226  0.0000E+00  0.0000E+00  0.0000E+00  0.0000E+00
     -8.174  0.1328E-04  0.3478E-05  0.6910E-06  0.1810E-06
     -8.122  0.9830E+01  0.9668E+01  0.5115E+00  0.5031E+00
     -8.070  0.2588E+02  0.2514E+02  0.1858E+01  0.1811E+01
     -8.018  0.8269E+01  0.8115E+01  0.2288E+01  0.2234E+01
     -7.966  0.2018E+02  0.1996E+02  0.3338E+01  0.3272E+01
     -7.914  0.6095E+01  0.6525E+01  0.3656E+01  0.3612E+01
     -7.862  0.1624E+02  0.1707E+02  0.4500E+01  0.4500E+01
     -7.810  0.2759E+02  0.2702E+02  0.5936E+01  0.5906E+01
     -7.758  0.1073E+02  0.1120E+02  0.6494E+01  0.6489E+01
     -7.706  0.1111E+02  0.9018E+01  0.7073E+01  0.6958E+01
     -7.654  0.3720E+02  0.3926E+02  0.9008E+01  0.9001E+01
     -7.602  0.1651E+02  0.1560E+02  0.9867E+01  0.9813E+01
     -7.550  0.1216E+02  0.1320E+02  0.1050E+02  0.1050E+02
     -7.498  0.1001E+00  0.4404E-01  0.1051E+02  0.1050E+02
     -7.445  0.1935E+02  0.1929E+02  0.1151E+02  0.1151E+02
     -7.393  0.2722E+02  0.2622E+02  0.1293E+02  0.1287E+02
     -7.341  0.4005E+02  0.4090E+02  0.1501E+02  0.1500E+02
     -7.289  0.1894E+02  0.1917E+02  0.1600E+02  0.1600E+02
     -7.237  0.3754E+02  0.3623E+02  0.1795E+02  0.1788E+02
     -7.185  0.3511E+02  0.3531E+02  0.1978E+02  0.1972E+02
     -7.133  0.1373E+02  0.1475E+02  0.2049E+02  0.2049E+02
     -7.081  0.2732E+02  0.2618E+02  0.2192E+02  0.2185E+02
     -7.029  0.3751E+02  0.3715E+02  0.2387E+02  0.2378E+02
     -6.977  0.4812E+02  0.4601E+02  0.2637E+02  0.2618E+02
     -6.925  0.3637E+02  0.3812E+02  0.2826E+02  0.2816E+02
     -6.873  0.4325E+02  0.4492E+02  0.3051E+02  0.3050E+02
     -6.821  0.2120E+02  0.2072E+02  0.3162E+02  0.3158E+02
     -6.769  0.3260E+02  0.3094E+02  0.3331E+02  0.3319E+02
     -6.717  0.5137E+02  0.5182E+02  0.3599E+02  0.3588E+02
     -6.665  0.5434E+02  0.5427E+02  0.3881E+02  0.3871E+02
     -6.613  0.6294E+02  0.6333E+02  0.4209E+02  0.4200E+02
     -6.561  0.3413E+02  0.3467E+02  0.4387E+02  0.4381E+02
     -6.509  0.5078E+02  0.4946E+02  0.4651E+02  0.4638E+02
     -6.457  0.2766E+02  0.2809E+02  0.4795E+02  0.4784E+02
     -6.405  0.3687E+02  0.3729E+02  0.4987E+02  0.4978E+02
     -6.353  0.5752E+02  0.5685E+02  0.5286E+02  0.5274E+02
     -6.301  0.4942E+02  0.5027E+02  0.5543E+02  0.5536E+02
     -6.249  0.2435E+02  0.2426E+02  0.5670E+02  0.5662E+02
     -6.197  0.5205E+02  0.5253E+02  0.5941E+02  0.5935E+02
     -6.145  0.4274E+02  0.3982E+02  0.6163E+02  0.6142E+02
     -6.093  0.7716E+02  0.7848E+02  0.6565E+02  0.6551E+02
     -6.041  0.7391E+02  0.7385E+02  0.6949E+02  0.6935E+02
     -5.988  0.5636E+02  0.5471E+02  0.7242E+02  0.7220E+02
     -5.936  0.8476E+02  0.8650E+02  0.7684E+02  0.7670E+02
     -5.884  0.7440E+02  0.7471E+02  0.8071E+02  0.8059E+02
     -5.832  0.7096E+02  0.6979E+02  0.8440E+02  0.8422E+02
     -5.780  0.7699E+02  0.7705E+02  0.8841E+02  0.8823E+02
     -5.728  0.7279E+02  0.7243E+02  0.9219E+02  0.9200E+02
     -5.676  0.7177E+02  0.7211E+02  0.9593E+02  0.9575E+02
     -5.624  0.8776E+02  0.8423E+02  0.1005E+03  0.1001E+03
     -5.572  0.8387E+02  0.8701E+02  0.1049E+03  0.1047E+03
     -5.520  0.5855E+02  0.5789E+02  0.1079E+03  0.1077E+03
     -5.468  0.8090E+02  0.8242E+02  0.1121E+03  0.1120E+03
     -5.416  0.7831E+02  0.7657E+02  0.1162E+03  0.1159E+03
     -5.364  0.6539E+02  0.6630E+02  0.1196E+03  0.1194E+03
     -5.312  0.5947E+02  0.6017E+02  0.1227E+03  0.1225E+03
     -5.260  0.7852E+02  0.7731E+02  0.1268E+03  0.1265E+03
     -5.208  0.9009E+02  0.8960E+02  0.1315E+03  0.1312E+03
     -5.156  0.6447E+02  0.6421E+02  0.1348E+03  0.1346E+03
     -5.104  0.7399E+02  0.7718E+02  0.1387E+03  0.1386E+03
     -5.052  0.6978E+02  0.6871E+02  0.1423E+03  0.1421E+03
     -5.000  0.7727E+02  0.7649E+02  0.1463E+03  0.1461E+03
     -4.948  0.4371E+02  0.4541E+02  0.1486E+03  0.1485E+03
     -4.896  0.7606E+02  0.7464E+02  0.1525E+03  0.1524E+03
     -4.844  0.7325E+02  0.7382E+02  0.1564E+03  0.1562E+03
     -4.792  0.9102E+02  0.8949E+02  0.1611E+03  0.1609E+03
     -4.740  0.9204E+02  0.9019E+02  0.1659E+03  0.1656E+03
     -4.688  0.1235E+03  0.1230E+03  0.1723E+03  0.1720E+03
     -4.636  0.1050E+03  0.1047E+03  0.1778E+03  0.1774E+03
     -4.584  0.1020E+03  0.1027E+03  0.1831E+03  0.1828E+03
     -4.531  0.1093E+03  0.1095E+03  0.1888E+03  0.1885E+03
     -4.479  0.1146E+03  0.1149E+03  0.1947E+03  0.1944E+03
     -4.427  0.1030E+03  0.1039E+03  0.2001E+03  0.1998E+03
     -4.375  0.9328E+02  0.9175E+02  0.2049E+03  0.2046E+03
     -4.323  0.6717E+02  0.6671E+02  0.2084E+03  0.2081E+03
     -4.271  0.8977E+02  0.9196E+02  0.2131E+03  0.2129E+03
     -4.219  0.6391E+02  0.6599E+02  0.2164E+03  0.2163E+03
     -4.167  0.5333E+02  0.5099E+02  0.2192E+03  0.2190E+03
     -4.115  0.1007E+03  0.1001E+03  0.2245E+03  0.2242E+03
     -4.063  0.6788E+02  0.7089E+02  0.2280E+03  0.2279E+03
     -4.011  0.6434E+02  0.6336E+02  0.2313E+03  0.2312E+03
     -3.959  0.5964E+02  0.5963E+02  0.2344E+03  0.2343E+03
     -3.907  0.5990E+02  0.6042E+02  0.2376E+03  0.2374E+03
     -3.855  0.6325E+02  0.6343E+02  0.2408E+03  0.2407E+03
     -3.803  0.7406E+02  0.7187E+02  0.2447E+03  0.2444E+03
     -3.751  0.6987E+02  0.6951E+02  0.2483E+03  0.2481E+03
     -3.699  0.6127E+02  0.6227E+02  0.2515E+03  0.2513E+03
     -3.647  0.6043E+02  0.6136E+02  0.2547E+03  0.2545E+03
     -3.595  0.7731E+02  0.7584E+02  0.2587E+03  0.2584E+03
     -3.543  0.5988E+02  0.5950E+02  0.2618E+03  0.2615E+03
     -3.491  0.6885E+02  0.7049E+02  0.2654E+03  0.2652E+03
     -3.439  0.5206E+02  0.4762E+02  0.2681E+03  0.2677E+03
     -3.387  0.8670E+02  0.9071E+02  0.2726E+03  0.2724E+03
     -3.335  0.6933E+02  0.6868E+02  0.2762E+03  0.2760E+03
     -3.283  0.7638E+02  0.7693E+02  0.2802E+03  0.2800E+03
     -3.231  0.6505E+02  0.6634E+02  0.2836E+03  0.2834E+03
     -3.179  0.8388E+02  0.8187E+02  0.2879E+03  0.2877E+03
     -3.127  0.7398E+02  0.7375E+02  0.2918E+03  0.2915E+03
     -3.075  0.7722E+02  0.7662E+02  0.2958E+03  0.2955E+03
     -3.022  0.7287E+02  0.7574E+02  0.2996E+03  0.2995E+03
     -2.970  0.6825E+02  0.6685E+02  0.3032E+03  0.3029E+03
     -2.918  0.7351E+02  0.7519E+02  0.3070E+03  0.3068E+03
     -2.866  0.7038E+02  0.6735E+02  0.3106E+03  0.3104E+03
     -2.814  0.1008E+03  0.1024E+03  0.3159E+03  0.3157E+03
     -2.762  0.8554E+02  0.8629E+02  0.3203E+03  0.3202E+03
     -2.710  0.7968E+02  0.7651E+02  0.3245E+03  0.3242E+03
     -2.658  0.1169E+03  0.1178E+03  0.3306E+03  0.3303E+03
     -2.606  0.1020E+03  0.1030E+03  0.3359E+03  0.3356E+03
     -2.554  0.8950E+02  0.8850E+02  0.3405E+03  0.3403E+03
     -2.502  0.1051E+03  0.1027E+03  0.3460E+03  0.3456E+03
     -2.450  0.1239E+03  0.1246E+03  0.3524E+03  0.3521E+03
     -2.398  0.9986E+02  0.1028E+03  0.3576E+03  0.3574E+03
     -2.346  0.1025E+03  0.1015E+03  0.3630E+03  0.3627E+03
     -2.294  0.9140E+02  0.9046E+02  0.3677E+03  0.3674E+03
     -2.242  0.1046E+03  0.1052E+03  0.3732E+03  0.3729E+03
     -2.190  0.1055E+03  0.1041E+03  0.3787E+03  0.3783E+03
     -2.138  0.6634E+02  0.6979E+02  0.3821E+03  0.3819E+03
     -2.086  0.4402E+02  0.4581E+02  0.3844E+03  0.3843E+03
     -2.034  0.4147E+02  0.3944E+02  0.3866E+03  0.3864E+03
     -1.982  0.6866E+02  0.6699E+02  0.3901E+03  0.3899E+03
     -1.930  0.6308E+02  0.6335E+02  0.3934E+03  0.3932E+03
     -1.878  0.1045E+03  0.1046E+03  0.3989E+03  0.3986E+03
     -1.826  0.1047E+03  0.1029E+03  0.4043E+03  0.4040E+03
     -1.774  0.7677E+02  0.8078E+02  0.4083E+03  0.4082E+03
     -1.722  0.5906E+02  0.5820E+02  0.4114E+03  0.4112E+03
     -1.670  0.8932E+02  0.8370E+02  0.4160E+03  0.4155E+03
     -1.618  0.1132E+03  0.1159E+03  0.4219E+03  0.4216E+03
     -1.565  0.9886E+02  0.1011E+03  0.4271E+03  0.4268E+03
     -1.513  0.5813E+02  0.5770E+02  0.4301E+03  0.4298E+03
     -1.461  0.8091E+02  0.7981E+02  0.4343E+03  0.4340E+03
     -1.409  0.8286E+02  0.8232E+02  0.4386E+03  0.4383E+03
     -1.357  0.5646E+02  0.6086E+02  0.4415E+03  0.4414E+03
     -1.305  0.4252E+02  0.3990E+02  0.4438E+03  0.4435E+03
     -1.253  0.7689E+02  0.7921E+02  0.4478E+03  0.4476E+03
     -1.201  0.4554E+02  0.4658E+02  0.4501E+03  0.4501E+03
     -1.149  0.5807E+02  0.5554E+02  0.4531E+03  0.4530E+03
     -1.097  0.5488E+02  0.5808E+02  0.4560E+03  0.4560E+03
     -1.045  0.4506E+02  0.4133E+02  0.4583E+03  0.4581E+03
     -0.993  0.5807E+02  0.5939E+02  0.4614E+03  0.4612E+03
     -0.941  0.5797E+02  0.5615E+02  0.4644E+03  0.4641E+03
     -0.889  0.4798E+02  0.5091E+02  0.4669E+03  0.4668E+03
     -0.837  0.3190E+02  0.3145E+02  0.4685E+03  0.4684E+03
     -0.785  0.6577E+02  0.6395E+02  0.4720E+03  0.4717E+03
     -0.733  0.6818E+02  0.6965E+02  0.4755E+03  0.4754E+03
     -0.681  0.5799E+02  0.5806E+02  0.4785E+03  0.4784E+03
     -0.629  0.4967E+02  0.4698E+02  0.4811E+03  0.4808E+03
     -0.577  0.6897E+02  0.7177E+02  0.4847E+03  0.4846E+03
     -0.525  0.4295E+02  0.4408E+02  0.4869E+03  0.4869E+03
     -0.473  0.2512E+02  0.2331E+02  0.4882E+03  0.4881E+03
     -0.421  0.2158E+02  0.2373E+02  0.4894E+03  0.4893E+03
     -0.369  0.3578E+02  0.3411E+02  0.4912E+03  0.4911E+03
     -0.317  0.5036E+02  0.5038E+02  0.4938E+03  0.4937E+03
     -0.265  0.4551E+02  0.4474E+02  0.4962E+03  0.4960E+03
     -0.213  0.9473E+02  0.9381E+02  0.5011E+03  0.5009E+03
     -0.161  0.7157E+02  0.7145E+02  0.5049E+03  0.5046E+03
     -0.108  0.7977E+02  0.8079E+02  0.5090E+03  0.5088E+03
     -0.056  0.1169E+03  0.1132E+03  0.5151E+03  0.5147E+03
     -0.004  0.1153E+03  0.1153E+03  0.5211E+03  0.5207E+03
      0.048  0.1229E+03  0.1234E+03  0.5275E+03  0.5272E+03
      0.100  0.1055E+03  0.1062E+03  0.5330E+03  0.5327E+03
      0.152  0.1453E+03  0.1457E+03  0.5406E+03  0.5403E+03
      0.204  0.1388E+03  0.1407E+03  0.5478E+03  0.5476E+03
      0.256  0.6950E+02  0.6946E+02  0.5514E+03  0.5512E+03
      0.308  0.9347E+02  0.9280E+02  0.5563E+03  0.5560E+03
      0.360  0.9127E+02  0.9111E+02  0.5610E+03  0.5608E+03
      0.412  0.9024E+02  0.9026E+02  0.5657E+03  0.5655E+03
      0.464  0.8589E+02  0.8648E+02  0.5702E+03  0.5700E+03
      0.516  0.8646E+02  0.8732E+02  0.5747E+03  0.5745E+03
      0.568  0.9121E+02  0.8839E+02  0.5794E+03  0.5791E+03
      0.620  0.1208E+03  0.1220E+03  0.5857E+03  0.5854E+03
      0.672  0.1482E+03  0.1444E+03  0.5934E+03  0.5930E+03
      0.724  0.1482E+03  0.1501E+03  0.6011E+03  0.6008E+03
      0.776  0.1332E+03  0.1325E+03  0.6081E+03  0.6077E+03
      0.828  0.1217E+03  0.1205E+03  0.6144E+03  0.6139E+03
      0.880  0.1324E+03  0.1339E+03  0.6213E+03  0.6209E+03
      0.932  0.7923E+02  0.8017E+02  0.6254E+03  0.6251E+03
      0.984  0.9834E+02  0.9843E+02  0.6305E+03  0.6302E+03
      1.036  0.1130E+03  0.1145E+03  0.6364E+03  0.6362E+03
      1.088  0.1357E+03  0.1319E+03  0.6435E+03  0.6430E+03
      1.140  0.1494E+03  0.1495E+03  0.6512E+03  0.6508E+03
      1.192  0.1237E+03  0.1235E+03  0.6577E+03  0.6572E+03
      1.244  0.1690E+03  0.1704E+03  0.6665E+03  0.6661E+03
      1.296  0.1650E+03  0.1627E+03  0.6751E+03  0.6746E+03
      1.349  0.1682E+03  0.1673E+03  0.6838E+03  0.6833E+03
      1.401  0.1924E+03  0.1920E+03  0.6938E+03  0.6933E+03
      1.453  0.1714E+03  0.1730E+03  0.7027E+03  0.7023E+03
      1.505  0.1708E+03  0.1734E+03  0.7116E+03  0.7113E+03
      1.557  0.1706E+03  0.1651E+03  0.7205E+03  0.7199E+03
      1.609  0.2118E+03  0.2133E+03  0.7315E+03  0.7310E+03
      1.661  0.1926E+03  0.1924E+03  0.7415E+03  0.7410E+03
      1.713  0.1720E+03  0.1722E+03  0.7505E+03  0.7499E+03
      1.765  0.1912E+03  0.1920E+03  0.7604E+03  0.7599E+03
      1.817  0.1811E+03  0.1783E+03  0.7699E+03  0.7692E+03
      1.869  0.1625E+03  0.1639E+03  0.7783E+03  0.7777E+03
      1.921  0.1706E+03  0.1727E+03  0.7872E+03  0.7867E+03
      1.973  0.1639E+03  0.1608E+03  0.7957E+03  0.7951E+03
      2.025  0.2105E+03  0.2115E+03  0.8067E+03  0.8061E+03
      2.077  0.1705E+03  0.1726E+03  0.8156E+03  0.8151E+03
      2.129  0.1793E+03  0.1771E+03  0.8249E+03  0.8243E+03
      2.181  0.1827E+03  0.1806E+03  0.8344E+03  0.8337E+03
      2.233  0.1837E+03  0.1824E+03  0.8440E+03  0.8432E+03
      2.285  0.1705E+03  0.1774E+03  0.8528E+03  0.8524E+03
      2.337  0.1589E+03  0.1543E+03  0.8611E+03  0.8604E+03
      2.389  0.1628E+03  0.1670E+03  0.8696E+03  0.8691E+03
      2.441  0.1734E+03  0.1664E+03  0.8786E+03  0.8778E+03
      2.493  0.1841E+03  0.1881E+03  0.8882E+03  0.8876E+03
      2.545  0.1360E+03  0.1401E+03  0.8952E+03  0.8949E+03
      2.597  0.1599E+03  0.1596E+03  0.9036E+03  0.9032E+03
      2.649  0.1597E+03  0.1577E+03  0.9119E+03  0.9114E+03
      2.701  0.1249E+03  0.1289E+03  0.9184E+03  0.9181E+03
      2.753  0.1168E+03  0.1159E+03  0.9244E+03  0.9241E+03
      2.806  0.1393E+03  0.1339E+03  0.9317E+03  0.9311E+03
      2.858  0.1302E+03  0.1329E+03  0.9385E+03  0.9380E+03
      2.910  0.1617E+03  0.1597E+03  0.9469E+03  0.9463E+03
      2.962  0.1343E+03  0.1357E+03  0.9539E+03  0.9534E+03
      3.014  0.1210E+03  0.1211E+03  0.9602E+03  0.9597E+03
      3.066  0.1229E+03  0.1247E+03  0.9666E+03  0.9662E+03
      3.118  0.1253E+03  0.1228E+03  0.9731E+03  0.9726E+03
      3.170  0.1267E+03  0.1241E+03  0.9797E+03  0.9790E+03
      3.222  0.1151E+03  0.1218E+03  0.9857E+03  0.9854E+03
      3.274  0.1008E+03  0.9565E+02  0.9909E+03  0.9903E+03
      3.326  0.1125E+03  0.1106E+03  0.9968E+03  0.9961E+03
      3.378  0.1059E+03  0.1035E+03  0.1002E+04  0.1001E+04
      3.430  0.9675E+02  0.9975E+02  0.1007E+04  0.1007E+04
      3.482  0.6175E+02  0.7153E+02  0.1011E+04  0.1010E+04
      3.534  0.8995E+02  0.8247E+02  0.1015E+04  0.1015E+04
      3.586  0.9889E+02  0.1003E+03  0.1020E+04  0.1020E+04
      3.638  0.8866E+02  0.9131E+02  0.1025E+04  0.1025E+04
      3.690  0.9269E+02  0.8284E+02  0.1030E+04  0.1029E+04
      3.742  0.5266E+02  0.6158E+02  0.1033E+04  0.1032E+04
      3.794  0.5807E+02  0.5807E+02  0.1036E+04  0.1035E+04
      3.846  0.5819E+02  0.5396E+02  0.1039E+04  0.1038E+04
      3.898  0.5823E+02  0.6162E+02  0.1042E+04  0.1041E+04
      3.950  0.4349E+02  0.4506E+02  0.1044E+04  0.1044E+04
      4.002  0.3024E+02  0.3091E+02  0.1045E+04  0.1045E+04
      4.054  0.5104E+02  0.4913E+02  0.1048E+04  0.1048E+04
      4.106  0.7119E+02  0.6442E+02  0.1052E+04  0.1051E+04
      4.158  0.9387E+02  0.9723E+02  0.1057E+04  0.1056E+04
      4.210  0.1270E+03  0.1196E+03  0.1063E+04  0.1062E+04
      4.263  0.6304E+02  0.7327E+02  0.1067E+04  0.1066E+04
      4.315  0.8905E+02  0.8344E+02  0.1071E+04  0.1070E+04
      4.367  0.1074E+03  0.1118E+03  0.1077E+04  0.1076E+04
      4.419  0.7535E+02  0.6740E+02  0.1081E+04  0.1080E+04
      4.471  0.1306E+03  0.1281E+03  0.1088E+04  0.1086E+04
      4.523  0.1125E+03  0.1183E+03  0.1093E+04  0.1093E+04
      4.575  0.1121E+03  0.1113E+03  0.1099E+04  0.1098E+04
      4.627  0.1055E+03  0.1110E+03  0.1105E+04  0.1104E+04
      4.679  0.8490E+02  0.8753E+02  0.1109E+04  0.1109E+04
      4.731  0.9105E+02  0.8498E+02  0.1114E+04  0.1113E+04
      4.783  0.1279E+03  0.1268E+03  0.1121E+04  0.1120E+04
      4.835  0.1166E+03  0.1154E+03  0.1127E+04  0.1126E+04
      4.887  0.1149E+03  0.1158E+03  0.1133E+04  0.1132E+04
      4.939  0.1265E+03  0.1257E+03  0.1139E+04  0.1138E+04
      4.991  0.1121E+03  0.1150E+03  0.1145E+04  0.1144E+04
      5.043  0.1141E+03  0.1153E+03  0.1151E+04  0.1150E+04
      5.095  0.1273E+03  0.1270E+03  0.1158E+04  0.1157E+04
      5.147  0.1157E+03  0.1120E+03  0.1164E+04  0.1163E+04
      5.199  0.1293E+03  0.1310E+03  0.1170E+04  0.1170E+04
      5.251  0.1182E+03  0.1212E+03  0.1176E+04  0.1176E+04
      5.303  0.9620E+02  0.9684E+02  0.1181E+04  0.1181E+04
      5.355  0.1006E+03  0.9895E+02  0.1187E+04  0.1186E+04
      5.407  0.1123E+03  0.1158E+03  0.1193E+04  0.1192E+04
      5.459  0.1193E+03  0.1155E+03  0.1199E+04  0.1198E+04
      5.511  0.1454E+03  0.1435E+03  0.1206E+04  0.1206E+04
      5.563  0.1482E+03  0.1532E+03  0.1214E+04  0.1214E+04
      5.615  0.1338E+03  0.1326E+03  0.1221E+04  0.1220E+04
      5.667  0.1385E+03  0.1360E+03  0.1228E+04  0.1228E+04
      5.720  0.1637E+03  0.1651E+03  0.1237E+04  0.1236E+04
      5.772  0.1123E+03  0.1146E+03  0.1243E+04  0.1242E+04
      5.824  0.1112E+03  0.1102E+03  0.1248E+04  0.1248E+04
      5.876  0.1457E+03  0.1469E+03  0.1256E+04  0.1255E+04
      5.928  0.1240E+03  0.1192E+03  0.1262E+04  0.1262E+04
      5.980  0.1406E+03  0.1466E+03  0.1270E+04  0.1269E+04
      6.032  0.4000E+02  0.4395E+02  0.1272E+04  0.1272E+04
      6.084  0.4832E+01  0.7854E+01  0.1272E+04  0.1272E+04
      6.136  0.0000E+00  0.0000E+00  0.1272E+04  0.1272E+04
      6.188  0.0000E+00  0.0000E+00  0.1272E+04  0.1272E+04
      6.240  0.0000E+00  0.0000E+00  0.1272E+04  0.1272E+04
      6.292  0.0000E+00  0.0000E+00  0.1272E+04  0.1272E+04
      6.344  0.0000E+00  0.0000E+00  0.1272E+04  0.1272E+04
      6.396  0.0000E+00  0.0000E+00  0.1272E+04  0.1272E+04
      6.448  0.0000E+00  0.0000E+00  0.1272E+04  0.1272E+04
      6.500  0.0000E+00  0.0000E+00  0.1272E+04  0.1272E+04
      6.552  0.0000E+00  0.0000E+00  0.1272E+04  0.1272E+04
      6.604  0.0000E+00  0.0000E+00  0.1272E+04  0.1272E+04
      6.656  0.0000E+00  0.0000E+00  0.1272E+04  0.1272E+04
      6.708  0.0000E+00  0.0000E+00  0.1272E+04  0.1272E+04
      6.760  0.0000E+00  0.0000E+00  0.1272E+04  0.1272E+04
