       N       E                     dE             d eps       ncg     rms          rms(c)
DAV:   1     0.465770017234E+04    0.46577E+04   -0.44441E+05 20352   0.167E+03
DAV:   2    -0.596831387340E+03   -0.52545E+04   -0.50734E+04 23968   0.204E+02
DAV:   3    -0.112917275747E+04   -0.53234E+03   -0.51491E+03 26040   0.588E+01
DAV:   4    -0.115123899093E+04   -0.22066E+02   -0.21600E+02 24808   0.128E+01
DAV:   5    -0.115225803116E+04   -0.10190E+01   -0.10092E+01 28776   0.271E+00    0.481E+01
DAV:   6    -0.112052347165E+04    0.31735E+02   -0.10823E+02 30880   0.131E+01    0.220E+01
DAV:   7    -0.111951586039E+04    0.10076E+01   -0.68045E+01 25704   0.109E+01    0.152E+01
DAV:   8    -0.111699511974E+04    0.25207E+01   -0.13667E+01 24152   0.483E+00    0.324E+00
DAV:   9    -0.111699158637E+04    0.35334E-02   -0.36303E+00 25352   0.207E+00    0.219E+00
DAV:  10    -0.111690947624E+04    0.82110E-01   -0.10681E+00 24872   0.127E+00    0.148E+00
DAV:  11    -0.111689110069E+04    0.18376E-01   -0.22295E-01 24120   0.561E-01    0.992E-01
DAV:  12    -0.111689277796E+04   -0.16773E-02   -0.52914E-02 23832   0.259E-01    0.616E-01
DAV:  13    -0.111689164726E+04    0.11307E-02   -0.25232E-02 25720   0.205E-01    0.350E-01
DAV:  14    -0.111689052389E+04    0.11234E-02   -0.11095E-02 25792   0.138E-01    0.181E-01
DAV:  15    -0.111689020768E+04    0.31621E-03   -0.40579E-03 24448   0.801E-02    0.810E-02
DAV:  16    -0.111689019332E+04    0.14360E-04   -0.10777E-03 23408   0.387E-02    0.582E-02
DAV:  17    -0.111689019919E+04   -0.58670E-05   -0.29116E-04 23328   0.180E-02    0.452E-02
DAV:  18    -0.111689020383E+04   -0.46437E-05   -0.72510E-05 23328   0.940E-03    0.209E-02
DAV:  19    -0.111689019936E+04    0.44698E-05   -0.21472E-05 23848   0.569E-03    0.125E-02
DAV:  20    -0.111689019842E+04    0.94168E-06   -0.74464E-06 24528   0.353E-03    0.893E-03
DAV:  21    -0.111689019878E+04   -0.35653E-06   -0.27649E-06 24208   0.203E-03    0.473E-03
DAV:  22    -0.111689019922E+04   -0.44337E-06   -0.10547E-06 23976   0.120E-03    0.223E-03
DAV:  23    -0.111689019952E+04   -0.30008E-06   -0.26795E-07 13392   0.566E-04    0.136E-03
DAV:  24    -0.111689019989E+04   -0.36862E-06   -0.10185E-07 12088   0.356E-04    0.727E-04
DAV:  25    -0.111689020003E+04   -0.14013E-06   -0.55666E-08 11808   0.248E-04    0.580E-04
DAV:  26    -0.111689020004E+04   -0.54861E-08   -0.19526E-08 11720   0.151E-04
   1 F= -.11168902E+04 E0= -.11168880E+04  d E =-.443512E-02  mag=     1.0000
