  48  48   0   0
  0.3605713E+02  0.1297840E-08  0.1946760E-08  0.9190413E-09  0.5000000E-15
  1.000000000000000E-004
  CAR 
 Si and Ge interface calculation         
      3.73042728    -10.26849554  301      1.67876635      1.00000000
    -10.268  0.0000E+00  0.0000E+00  0.0000E+00  0.0000E+00
    -10.222  0.0000E+00  0.0000E+00  0.0000E+00  0.0000E+00
    -10.175  0.0000E+00  0.0000E+00  0.0000E+00  0.0000E+00
    -10.129  0.0000E+00  0.0000E+00  0.0000E+00  0.0000E+00
    -10.082  0.0000E+00  0.0000E+00  0.0000E+00  0.0000E+00
    -10.035  0.0000E+00  0.0000E+00  0.0000E+00  0.0000E+00
     -9.989  0.0000E+00  0.0000E+00  0.0000E+00  0.0000E+00
     -9.942  0.0000E+00  0.0000E+00  0.0000E+00  0.0000E+00
     -9.895  0.0000E+00  0.0000E+00  0.0000E+00  0.0000E+00
     -9.849  0.0000E+00  0.0000E+00  0.0000E+00  0.0000E+00
     -9.802  0.0000E+00  0.0000E+00  0.0000E+00  0.0000E+00
     -9.755  0.0000E+00  0.0000E+00  0.0000E+00  0.0000E+00
     -9.709  0.0000E+00  0.0000E+00  0.0000E+00  0.0000E+00
     -9.662  0.3258E-04  0.3400E-07  0.1520E-05  0.1586E-08
     -9.615  0.2549E+02  0.9564E+01  0.1190E+01  0.4463E+00
     -9.569  0.1737E+02  0.3330E+02  0.2000E+01  0.2000E+01
     -9.522  0.0000E+00  0.0000E+00  0.2000E+01  0.2000E+01
     -9.475  0.0000E+00  0.0000E+00  0.2000E+01  0.2000E+01
     -9.429  0.9765E-07  0.5289E-11  0.2000E+01  0.2000E+01
     -9.382  0.8948E+01  0.2165E+01  0.2418E+01  0.2101E+01
     -9.335  0.3390E+02  0.4004E+02  0.4000E+01  0.3969E+01
     -9.289  0.9252E-02  0.6538E+00  0.4000E+01  0.4000E+01
     -9.242  0.3128E-01  0.6542E-04  0.4001E+01  0.4000E+01
     -9.195  0.3185E+02  0.1502E+02  0.5488E+01  0.4701E+01
     -9.149  0.1098E+02  0.2784E+02  0.6000E+01  0.6000E+01
     -9.102  0.0000E+00  0.1099E-03  0.6000E+01  0.6000E+01
     -9.055  0.0000E+00  0.0000E+00  0.6000E+01  0.6000E+01
     -9.009  0.0000E+00  0.0000E+00  0.6000E+01  0.6000E+01
     -8.962  0.0000E+00  0.0000E+00  0.6000E+01  0.6000E+01
     -8.915  0.0000E+00  0.0000E+00  0.6000E+01  0.6000E+01
     -8.869  0.1231E-11  0.0000E+00  0.6000E+01  0.6000E+01
     -8.822  0.2204E+01  0.3843E-01  0.6103E+01  0.6002E+01
     -8.775  0.3386E+02  0.2485E+02  0.7683E+01  0.7161E+01
     -8.729  0.6797E+01  0.1797E+02  0.8000E+01  0.8000E+01
     -8.682  0.1215E+02  0.4417E+01  0.8567E+01  0.8206E+01
     -8.635  0.3071E+02  0.3788E+02  0.1000E+02  0.9974E+01
     -8.589  0.2439E-02  0.5637E+00  0.1000E+02  0.1000E+02
     -8.542  0.0000E+00  0.0000E+00  0.1000E+02  0.1000E+02
     -8.495  0.0000E+00  0.0000E+00  0.1000E+02  0.1000E+02
     -8.449  0.1599E-13  0.0000E+00  0.1000E+02  0.1000E+02
     -8.402  0.3394E+00  0.1340E-02  0.1002E+02  0.1000E+02
     -8.355  0.1018E+02  0.7152E+01  0.1049E+02  0.1033E+02
     -8.309  0.3130E+02  0.2983E+02  0.1195E+02  0.1173E+02
     -8.262  0.1037E+01  0.5874E+01  0.1200E+02  0.1200E+02
     -8.215  0.5014E-05  0.2147E-10  0.1200E+02  0.1200E+02
     -8.169  0.1352E+02  0.2675E+01  0.1263E+02  0.1212E+02
     -8.122  0.2881E+02  0.3533E+02  0.1398E+02  0.1377E+02
     -8.075  0.5247E+00  0.4856E+01  0.1400E+02  0.1400E+02
     -8.029  0.0000E+00  0.0000E+00  0.1400E+02  0.1400E+02
     -7.982  0.8058E-07  0.5287E-15  0.1400E+02  0.1400E+02
     -7.935  0.4173E+01  0.2684E+00  0.1419E+02  0.1401E+02
     -7.889  0.1909E+02  0.1287E+02  0.1509E+02  0.1461E+02
     -7.842  0.2417E+02  0.2889E+02  0.1621E+02  0.1596E+02
     -7.795  0.1758E+02  0.1145E+02  0.1703E+02  0.1650E+02
     -7.749  0.1493E+02  0.1978E+02  0.1773E+02  0.1742E+02
     -7.702  0.1969E+02  0.1887E+02  0.1865E+02  0.1830E+02
     -7.655  0.1203E+02  0.1036E+02  0.1921E+02  0.1878E+02
     -7.609  0.1596E+02  0.1656E+02  0.1996E+02  0.1955E+02
     -7.562  0.8569E+01  0.1321E+02  0.2035E+02  0.2017E+02
     -7.515  0.1527E+02  0.1246E+02  0.2107E+02  0.2075E+02
     -7.469  0.1451E+02  0.1908E+02  0.2174E+02  0.2164E+02
     -7.422  0.2868E+02  0.1575E+02  0.2308E+02  0.2238E+02
     -7.375  0.1251E+02  0.2749E+02  0.2367E+02  0.2366E+02
     -7.329  0.4884E+01  0.2294E+01  0.2389E+02  0.2377E+02
     -7.282  0.1372E+02  0.1421E+02  0.2453E+02  0.2443E+02
     -7.235  0.1851E+02  0.1566E+02  0.2540E+02  0.2516E+02
     -7.189  0.1297E+02  0.1502E+02  0.2600E+02  0.2586E+02
     -7.142  0.1342E+02  0.1171E+02  0.2663E+02  0.2641E+02
     -7.095  0.1738E+02  0.1951E+02  0.2744E+02  0.2732E+02
     -7.049  0.2349E+02  0.1791E+02  0.2854E+02  0.2815E+02
     -7.002  0.8520E+01  0.1483E+02  0.2893E+02  0.2885E+02
     -6.955  0.1991E+02  0.1543E+02  0.2986E+02  0.2957E+02
     -6.909  0.2389E+02  0.1914E+02  0.3098E+02  0.3046E+02
     -6.862  0.1098E+02  0.2095E+02  0.3149E+02  0.3144E+02
     -6.815  0.1712E+02  0.1675E+02  0.3229E+02  0.3222E+02
     -6.769  0.2189E+02  0.1846E+02  0.3331E+02  0.3308E+02
     -6.722  0.2001E+02  0.2248E+02  0.3425E+02  0.3413E+02
     -6.675  0.1668E+02  0.1446E+02  0.3502E+02  0.3480E+02
     -6.629  0.1419E+02  0.1504E+02  0.3569E+02  0.3551E+02
     -6.582  0.2656E+02  0.2246E+02  0.3693E+02  0.3655E+02
     -6.535  0.1138E+02  0.1661E+02  0.3746E+02  0.3733E+02
     -6.489  0.1577E+02  0.1387E+02  0.3819E+02  0.3798E+02
     -6.442  0.2388E+02  0.2144E+02  0.3931E+02  0.3898E+02
     -6.395  0.1515E+02  0.1699E+02  0.4001E+02  0.3977E+02
     -6.349  0.1635E+02  0.1859E+02  0.4078E+02  0.4064E+02
     -6.302  0.1400E+02  0.9056E+01  0.4143E+02  0.4106E+02
     -6.255  0.1410E+02  0.1427E+02  0.4209E+02  0.4173E+02
     -6.209  0.1691E+02  0.1928E+02  0.4288E+02  0.4263E+02
     -6.162  0.1357E+02  0.1655E+02  0.4351E+02  0.4340E+02
     -6.115  0.2428E+02  0.2031E+02  0.4464E+02  0.4435E+02
     -6.069  0.1057E+02  0.1387E+02  0.4514E+02  0.4499E+02
     -6.022  0.2101E+02  0.2201E+02  0.4612E+02  0.4602E+02
     -5.975  0.1185E+02  0.8883E+01  0.4667E+02  0.4643E+02
     -5.929  0.1695E+02  0.1652E+02  0.4746E+02  0.4721E+02
     -5.882  0.1355E+02  0.1447E+02  0.4809E+02  0.4788E+02
     -5.836  0.1414E+02  0.1523E+02  0.4875E+02  0.4859E+02
     -5.789  0.2136E+02  0.1763E+02  0.4975E+02  0.4941E+02
     -5.742  0.1012E+02  0.1482E+02  0.5022E+02  0.5011E+02
     -5.696  0.1908E+02  0.2030E+02  0.5111E+02  0.5105E+02
     -5.649  0.7939E+01  0.3618E+01  0.5148E+02  0.5122E+02
     -5.602  0.1383E+02  0.1395E+02  0.5213E+02  0.5187E+02
     -5.556  0.1157E+02  0.1687E+02  0.5267E+02  0.5266E+02
     -5.509  0.1061E+02  0.4342E+01  0.5316E+02  0.5286E+02
     -5.462  0.1500E+02  0.1542E+02  0.5386E+02  0.5358E+02
     -5.416  0.1053E+02  0.1319E+02  0.5435E+02  0.5420E+02
     -5.369  0.1960E+02  0.1689E+02  0.5527E+02  0.5498E+02
     -5.322  0.9948E+01  0.1234E+02  0.5573E+02  0.5556E+02
     -5.276  0.6176E+01  0.9409E+01  0.5602E+02  0.5600E+02
     -5.229  0.4858E+01  0.4759E+01  0.5625E+02  0.5622E+02
     -5.182  0.2399E+02  0.1765E+02  0.5737E+02  0.5705E+02
     -5.136  0.8534E+01  0.1116E+02  0.5776E+02  0.5757E+02
     -5.089  0.9754E+01  0.1065E+02  0.5822E+02  0.5806E+02
     -5.042  0.1661E+02  0.1349E+02  0.5899E+02  0.5869E+02
     -4.996  0.3101E+02  0.3158E+02  0.6044E+02  0.6017E+02
     -4.949  0.1002E+02  0.1203E+02  0.6091E+02  0.6073E+02
     -4.902  0.1392E+02  0.1678E+02  0.6156E+02  0.6151E+02
     -4.856  0.4353E+01  0.3404E+01  0.6176E+02  0.6167E+02
     -4.809  0.2105E+02  0.1515E+02  0.6274E+02  0.6238E+02
     -4.762  0.1377E+02  0.1475E+02  0.6339E+02  0.6306E+02
     -4.716  0.1859E+02  0.1834E+02  0.6425E+02  0.6392E+02
     -4.669  0.6465E+01  0.1361E+02  0.6456E+02  0.6456E+02
     -4.622  0.6904E+01  0.2097E+01  0.6488E+02  0.6465E+02
     -4.576  0.2191E+02  0.1524E+02  0.6590E+02  0.6536E+02
     -4.529  0.2110E+02  0.2849E+02  0.6688E+02  0.6669E+02
     -4.482  0.7576E+01  0.8979E+01  0.6724E+02  0.6711E+02
     -4.436  0.2096E+02  0.1996E+02  0.6822E+02  0.6804E+02
     -4.389  0.1395E+02  0.6893E+01  0.6887E+02  0.6837E+02
     -4.342  0.2026E+02  0.2570E+02  0.6981E+02  0.6957E+02
     -4.296  0.1498E+02  0.1403E+02  0.7051E+02  0.7022E+02
     -4.249  0.2057E+02  0.2311E+02  0.7147E+02  0.7130E+02
     -4.202  0.1961E+01  0.5505E+01  0.7156E+02  0.7156E+02
     -4.156  0.1498E+02  0.7666E+01  0.7226E+02  0.7191E+02
     -4.109  0.1462E+02  0.1803E+02  0.7294E+02  0.7275E+02
     -4.062  0.1473E+02  0.6719E+01  0.7363E+02  0.7307E+02
     -4.016  0.1763E+02  0.2375E+02  0.7445E+02  0.7418E+02
     -3.969  0.1214E+02  0.1465E+02  0.7502E+02  0.7486E+02
     -3.922  0.1739E+02  0.1859E+02  0.7583E+02  0.7573E+02
     -3.876  0.1071E+02  0.8096E+01  0.7633E+02  0.7611E+02
     -3.829  0.1726E+02  0.1210E+02  0.7714E+02  0.7667E+02
     -3.782  0.1992E+02  0.2386E+02  0.7807E+02  0.7778E+02
     -3.736  0.5148E+01  0.9395E+01  0.7831E+02  0.7822E+02
     -3.689  0.1866E+02  0.1892E+02  0.7918E+02  0.7911E+02
     -3.642  0.4852E+01  0.4900E+01  0.7940E+02  0.7933E+02
     -3.596  0.1278E+02  0.1325E+02  0.8000E+02  0.7995E+02
     -3.549  0.6211E+01  0.1133E+01  0.8029E+02  0.8001E+02
     -3.502  0.2336E+02  0.2648E+02  0.8138E+02  0.8124E+02
     -3.456  0.1099E+02  0.1246E+02  0.8189E+02  0.8182E+02
     -3.409  0.1216E+02  0.9805E+01  0.8246E+02  0.8228E+02
     -3.362  0.9173E+01  0.1154E+02  0.8289E+02  0.8282E+02
     -3.316  0.5169E+01  0.5187E+01  0.8313E+02  0.8306E+02
     -3.269  0.1327E+02  0.1138E+02  0.8375E+02  0.8359E+02
     -3.222  0.1255E+02  0.1568E+02  0.8433E+02  0.8432E+02
     -3.176  0.1012E+02  0.5810E+01  0.8481E+02  0.8459E+02
     -3.129  0.1671E+02  0.1480E+02  0.8559E+02  0.8528E+02
     -3.082  0.2034E+01  0.8190E+01  0.8568E+02  0.8567E+02
     -3.036  0.6860E+01  0.7116E+01  0.8600E+02  0.8600E+02
     -2.989  0.7700E+01  0.2652E+01  0.8636E+02  0.8612E+02
     -2.942  0.1879E+02  0.1696E+02  0.8724E+02  0.8691E+02
     -2.896  0.1639E+02  0.2188E+02  0.8800E+02  0.8793E+02
     -2.849  0.6662E+01  0.6113E+01  0.8831E+02  0.8822E+02
     -2.802  0.1538E+02  0.1363E+02  0.8903E+02  0.8886E+02
     -2.756  0.9109E+01  0.1044E+02  0.8945E+02  0.8934E+02
     -2.709  0.2167E+01  0.4555E+01  0.8956E+02  0.8956E+02
     -2.662  0.1417E+02  0.1009E+02  0.9022E+02  0.9003E+02
     -2.616  0.5379E+01  0.6870E+01  0.9047E+02  0.9035E+02
     -2.569  0.1394E+02  0.1100E+02  0.9112E+02  0.9086E+02
     -2.522  0.1093E+02  0.1083E+02  0.9163E+02  0.9137E+02
     -2.476  0.1513E+02  0.1973E+02  0.9233E+02  0.9229E+02
     -2.429  0.4735E+01  0.5722E+01  0.9256E+02  0.9255E+02
     -2.382  0.4272E+01  0.2326E+00  0.9275E+02  0.9256E+02
     -2.336  0.1697E+02  0.1810E+02  0.9355E+02  0.9341E+02
     -2.289  0.4217E+01  0.4095E+01  0.9374E+02  0.9360E+02
     -2.242  0.1888E+01  0.3836E+01  0.9383E+02  0.9378E+02
     -2.196  0.8373E+01  0.9497E+01  0.9422E+02  0.9422E+02
     -2.149  0.5352E+00  0.1395E-01  0.9425E+02  0.9422E+02
     -2.102  0.6610E+01  0.6928E+01  0.9456E+02  0.9455E+02
     -2.056  0.6451E+01  0.3114E+01  0.9486E+02  0.9469E+02
     -2.009  0.5453E+01  0.8614E+01  0.9511E+02  0.9509E+02
     -1.962  0.4744E+01  0.3719E+01  0.9533E+02  0.9527E+02
     -1.916  0.4776E+01  0.4968E+01  0.9556E+02  0.9550E+02
     -1.869  0.4767E+01  0.5607E+01  0.9578E+02  0.9576E+02
     -1.822  0.6906E-03  0.3811E+00  0.9578E+02  0.9578E+02
     -1.776  0.4505E+01  0.1353E+01  0.9599E+02  0.9584E+02
     -1.729  0.2570E+00  0.3409E+01  0.9600E+02  0.9600E+02
     -1.682  0.1632E-02  0.6744E-06  0.9600E+02  0.9600E+02
     -1.636  0.2406E+01  0.2250E+01  0.9611E+02  0.9610E+02
     -1.589  0.1885E+02  0.1004E+02  0.9699E+02  0.9657E+02
     -1.543  0.2071E+02  0.2266E+02  0.9796E+02  0.9763E+02
     -1.496  0.8424E+01  0.1221E+02  0.9835E+02  0.9820E+02
     -1.449  0.2881E+02  0.2897E+02  0.9970E+02  0.9955E+02
     -1.403  0.2908E+02  0.2073E+02  0.1011E+03  0.1005E+03
     -1.356  0.1364E+02  0.2393E+02  0.1017E+03  0.1016E+03
     -1.309  0.2885E+02  0.1927E+02  0.1030E+03  0.1025E+03
     -1.263  0.1178E+02  0.1956E+02  0.1036E+03  0.1034E+03
     -1.216  0.1969E+02  0.1909E+02  0.1045E+03  0.1043E+03
     -1.169  0.2844E+02  0.2094E+02  0.1058E+03  0.1053E+03
     -1.123  0.3213E+02  0.3570E+02  0.1073E+03  0.1070E+03
     -1.076  0.3213E+02  0.2761E+02  0.1088E+03  0.1083E+03
     -1.029  0.1729E+02  0.2595E+02  0.1096E+03  0.1095E+03
     -0.983  0.2520E+02  0.1929E+02  0.1108E+03  0.1104E+03
     -0.936  0.2258E+02  0.2802E+02  0.1119E+03  0.1117E+03
     -0.889  0.2311E+02  0.1710E+02  0.1129E+03  0.1125E+03
     -0.843  0.2661E+02  0.2853E+02  0.1142E+03  0.1138E+03
     -0.796  0.2975E+02  0.2562E+02  0.1156E+03  0.1150E+03
     -0.749  0.3313E+02  0.3772E+02  0.1171E+03  0.1168E+03
     -0.703  0.3968E+02  0.3248E+02  0.1190E+03  0.1183E+03
     -0.656  0.2927E+02  0.4050E+02  0.1203E+03  0.1202E+03
     -0.609  0.2266E+02  0.1562E+02  0.1214E+03  0.1209E+03
     -0.563  0.2591E+02  0.2846E+02  0.1226E+03  0.1222E+03
     -0.516  0.3685E+02  0.3712E+02  0.1243E+03  0.1240E+03
     -0.469  0.3202E+02  0.2744E+02  0.1258E+03  0.1252E+03
     -0.423  0.3423E+02  0.3093E+02  0.1274E+03  0.1267E+03
     -0.376  0.2947E+02  0.3046E+02  0.1288E+03  0.1281E+03
     -0.329  0.3442E+02  0.3847E+02  0.1304E+03  0.1299E+03
     -0.283  0.4686E+02  0.4115E+02  0.1326E+03  0.1318E+03
     -0.236  0.2275E+02  0.2929E+02  0.1336E+03  0.1332E+03
     -0.189  0.2659E+02  0.2395E+02  0.1349E+03  0.1343E+03
     -0.143  0.2938E+02  0.3098E+02  0.1363E+03  0.1358E+03
     -0.096  0.3555E+02  0.3259E+02  0.1379E+03  0.1373E+03
     -0.049  0.3052E+02  0.3337E+02  0.1393E+03  0.1388E+03
     -0.003  0.2479E+02  0.2561E+02  0.1405E+03  0.1400E+03
      0.044  0.3522E+02  0.3362E+02  0.1421E+03  0.1416E+03
      0.091  0.2780E+02  0.3468E+02  0.1434E+03  0.1432E+03
      0.137  0.2776E+02  0.1405E+02  0.1447E+03  0.1439E+03
      0.184  0.3595E+02  0.4210E+02  0.1464E+03  0.1458E+03
      0.231  0.2652E+02  0.2851E+02  0.1476E+03  0.1472E+03
      0.277  0.3304E+02  0.3388E+02  0.1492E+03  0.1487E+03
      0.324  0.2401E+02  0.2628E+02  0.1503E+03  0.1500E+03
      0.371  0.2772E+02  0.2201E+02  0.1516E+03  0.1510E+03
      0.417  0.3571E+02  0.3716E+02  0.1533E+03  0.1527E+03
      0.464  0.3028E+02  0.3147E+02  0.1547E+03  0.1542E+03
      0.511  0.2611E+02  0.2447E+02  0.1559E+03  0.1553E+03
      0.557  0.3212E+02  0.3482E+02  0.1574E+03  0.1570E+03
      0.604  0.3159E+02  0.2475E+02  0.1589E+03  0.1581E+03
      0.651  0.3714E+02  0.3582E+02  0.1606E+03  0.1598E+03
      0.697  0.3391E+02  0.2633E+02  0.1622E+03  0.1610E+03
      0.744  0.4218E+02  0.4520E+02  0.1642E+03  0.1631E+03
      0.791  0.3026E+02  0.4478E+02  0.1656E+03  0.1652E+03
      0.837  0.2327E+02  0.1856E+02  0.1667E+03  0.1661E+03
      0.884  0.2235E+02  0.2925E+02  0.1677E+03  0.1675E+03
      0.931  0.3591E+02  0.3089E+02  0.1694E+03  0.1689E+03
      0.977  0.2446E+02  0.2112E+02  0.1705E+03  0.1699E+03
      1.024  0.2533E+02  0.3452E+02  0.1717E+03  0.1715E+03
      1.071  0.3921E+02  0.3132E+02  0.1735E+03  0.1730E+03
      1.117  0.2164E+02  0.1941E+02  0.1745E+03  0.1739E+03
      1.164  0.3068E+02  0.2469E+02  0.1760E+03  0.1750E+03
      1.211  0.4002E+02  0.3563E+02  0.1778E+03  0.1767E+03
      1.257  0.1735E+02  0.4002E+02  0.1786E+03  0.1785E+03
      1.304  0.4308E+02  0.2945E+02  0.1807E+03  0.1799E+03
      1.351  0.2890E+02  0.2339E+02  0.1820E+03  0.1810E+03
      1.397  0.4031E+02  0.4398E+02  0.1839E+03  0.1831E+03
      1.444  0.2738E+02  0.2894E+02  0.1852E+03  0.1844E+03
      1.491  0.2832E+02  0.2524E+02  0.1865E+03  0.1856E+03
      1.537  0.2529E+02  0.2606E+02  0.1877E+03  0.1868E+03
      1.584  0.3268E+02  0.3639E+02  0.1892E+03  0.1885E+03
      1.631  0.3208E+02  0.2821E+02  0.1907E+03  0.1898E+03
      1.677  0.2781E+02  0.2467E+02  0.1920E+03  0.1910E+03
      1.724  0.3041E+02  0.3213E+02  0.1934E+03  0.1925E+03
      1.771  0.3206E+02  0.3247E+02  0.1949E+03  0.1940E+03
      1.817  0.3100E+02  0.3467E+02  0.1963E+03  0.1956E+03
      1.864  0.2903E+02  0.2380E+02  0.1977E+03  0.1967E+03
      1.911  0.2683E+02  0.3666E+02  0.1990E+03  0.1984E+03
      1.957  0.1295E+02  0.1488E+02  0.1996E+03  0.1991E+03
      2.004  0.2316E+02  0.2221E+02  0.2006E+03  0.2002E+03
      2.051  0.4356E+02  0.3680E+02  0.2027E+03  0.2019E+03
      2.097  0.2789E+02  0.3019E+02  0.2040E+03  0.2033E+03
      2.144  0.3172E+02  0.3343E+02  0.2055E+03  0.2048E+03
      2.191  0.3567E+02  0.3699E+02  0.2071E+03  0.2066E+03
      2.237  0.1615E+02  0.1967E+02  0.2079E+03  0.2075E+03
      2.284  0.3323E+02  0.3248E+02  0.2094E+03  0.2090E+03
      2.331  0.2306E+02  0.2255E+02  0.2105E+03  0.2101E+03
      2.377  0.2473E+02  0.2673E+02  0.2116E+03  0.2113E+03
      2.424  0.3186E+02  0.2497E+02  0.2131E+03  0.2125E+03
      2.471  0.3153E+02  0.2893E+02  0.2146E+03  0.2138E+03
      2.517  0.2388E+02  0.2518E+02  0.2157E+03  0.2150E+03
      2.564  0.3558E+02  0.3941E+02  0.2174E+03  0.2168E+03
      2.611  0.2977E+02  0.2930E+02  0.2188E+03  0.2182E+03
      2.657  0.3931E+02  0.2908E+02  0.2206E+03  0.2196E+03
      2.704  0.2507E+02  0.3691E+02  0.2218E+03  0.2213E+03
      2.751  0.2812E+02  0.2267E+02  0.2231E+03  0.2223E+03
      2.797  0.2653E+02  0.3151E+02  0.2243E+03  0.2238E+03
      2.844  0.2339E+02  0.2363E+02  0.2254E+03  0.2249E+03
      2.890  0.2763E+02  0.3226E+02  0.2267E+03  0.2264E+03
      2.937  0.3442E+02  0.2827E+02  0.2283E+03  0.2277E+03
      2.984  0.3234E+02  0.3470E+02  0.2298E+03  0.2293E+03
      3.030  0.2866E+02  0.2543E+02  0.2312E+03  0.2305E+03
      3.077  0.1708E+02  0.2325E+02  0.2320E+03  0.2316E+03
      3.124  0.9754E+00  0.8118E+01  0.2320E+03  0.2320E+03
      3.170  0.0000E+00  0.6371E-04  0.2320E+03  0.2320E+03
      3.217  0.0000E+00  0.0000E+00  0.2320E+03  0.2320E+03
      3.264  0.0000E+00  0.0000E+00  0.2320E+03  0.2320E+03
      3.310  0.0000E+00  0.0000E+00  0.2320E+03  0.2320E+03
      3.357  0.0000E+00  0.0000E+00  0.2320E+03  0.2320E+03
      3.404  0.0000E+00  0.0000E+00  0.2320E+03  0.2320E+03
      3.450  0.0000E+00  0.0000E+00  0.2320E+03  0.2320E+03
      3.497  0.0000E+00  0.0000E+00  0.2320E+03  0.2320E+03
      3.544  0.0000E+00  0.0000E+00  0.2320E+03  0.2320E+03
      3.590  0.0000E+00  0.0000E+00  0.2320E+03  0.2320E+03
      3.637  0.0000E+00  0.0000E+00  0.2320E+03  0.2320E+03
      3.684  0.0000E+00  0.0000E+00  0.2320E+03  0.2320E+03
      3.730  0.0000E+00  0.0000E+00  0.2320E+03  0.2320E+03
