 216 216   0   0
  0.2508207E+02  0.1330318E-08  0.1881354E-08  0.2164667E-08  0.5000000E-15
  1.000000000000000E-004
  CAR 
 Si and Ge interface calculation         
      7.61474538     -8.08110579  301      4.60179611      1.00000000
     -8.081  0.0000E+00  0.0000E+00  0.0000E+00  0.0000E+00
     -8.029  0.0000E+00  0.0000E+00  0.0000E+00  0.0000E+00
     -7.976  0.0000E+00  0.0000E+00  0.0000E+00  0.0000E+00
     -7.924  0.0000E+00  0.0000E+00  0.0000E+00  0.0000E+00
     -7.872  0.0000E+00  0.0000E+00  0.0000E+00  0.0000E+00
     -7.820  0.0000E+00  0.0000E+00  0.0000E+00  0.0000E+00
     -7.767  0.0000E+00  0.0000E+00  0.0000E+00  0.0000E+00
     -7.715  0.0000E+00  0.0000E+00  0.0000E+00  0.0000E+00
     -7.663  0.0000E+00  0.0000E+00  0.0000E+00  0.0000E+00
     -7.610  0.0000E+00  0.0000E+00  0.0000E+00  0.0000E+00
     -7.558  0.0000E+00  0.0000E+00  0.0000E+00  0.0000E+00
     -7.506  0.0000E+00  0.0000E+00  0.0000E+00  0.0000E+00
     -7.453  0.0000E+00  0.0000E+00  0.0000E+00  0.0000E+00
     -7.401  0.1192E-04  0.1215E-05  0.6238E-06  0.6358E-07
     -7.349  0.9523E+01  0.9438E+01  0.4982E+00  0.4938E+00
     -7.296  0.9283E+01  0.8874E+01  0.9839E+00  0.9581E+00
     -7.244  0.9865E+01  0.1036E+02  0.1500E+01  0.1500E+01
     -7.192  0.2250E+02  0.2058E+02  0.2677E+01  0.2577E+01
     -7.139  0.2556E+02  0.2719E+02  0.4014E+01  0.3999E+01
     -7.087  0.1891E+02  0.1914E+02  0.5004E+01  0.5001E+01
     -7.035  0.1918E+02  0.1915E+02  0.6007E+01  0.6003E+01
     -6.982  0.1386E+02  0.1142E+02  0.6733E+01  0.6600E+01
     -6.930  0.1475E+02  0.1723E+02  0.7504E+01  0.7501E+01
     -6.878  0.4940E+02  0.4846E+02  0.1009E+02  0.1004E+02
     -6.825  0.4347E+02  0.4143E+02  0.1236E+02  0.1220E+02
     -6.773  0.4079E+02  0.4361E+02  0.1450E+02  0.1449E+02
     -6.721  0.5646E+01  0.2914E+01  0.1479E+02  0.1464E+02
     -6.668  0.3930E+02  0.4097E+02  0.1685E+02  0.1678E+02
     -6.616  0.1361E+02  0.1390E+02  0.1756E+02  0.1751E+02
     -6.564  0.5526E+02  0.5302E+02  0.2045E+02  0.2028E+02
     -6.512  0.2858E+02  0.3023E+02  0.2195E+02  0.2186E+02
     -6.459  0.1298E+02  0.1270E+02  0.2263E+02  0.2253E+02
     -6.407  0.2649E+02  0.2814E+02  0.2401E+02  0.2400E+02
     -6.355  0.6889E+02  0.6539E+02  0.2762E+02  0.2742E+02
     -6.302  0.4576E+02  0.4456E+02  0.3001E+02  0.2975E+02
     -6.250  0.2090E+02  0.2410E+02  0.3110E+02  0.3101E+02
     -6.198  0.5843E+02  0.5246E+02  0.3416E+02  0.3376E+02
     -6.145  0.4809E+02  0.5454E+02  0.3668E+02  0.3661E+02
     -6.093  0.2209E+02  0.2172E+02  0.3783E+02  0.3775E+02
     -6.041  0.3924E+02  0.3170E+02  0.3989E+02  0.3941E+02
     -5.988  0.5996E+02  0.6874E+02  0.4302E+02  0.4300E+02
     -5.936  0.2827E+02  0.2858E+02  0.4450E+02  0.4450E+02
     -5.884  0.9526E+01  0.9557E+01  0.4500E+02  0.4500E+02
     -5.831  0.2128E+02  0.1997E+02  0.4611E+02  0.4604E+02
     -5.779  0.6552E+02  0.6434E+02  0.4954E+02  0.4941E+02
     -5.727  0.5856E+02  0.5868E+02  0.5261E+02  0.5248E+02
     -5.674  0.3617E+02  0.3844E+02  0.5450E+02  0.5449E+02
     -5.622  0.4777E+02  0.4778E+02  0.5700E+02  0.5699E+02
     -5.570  0.4043E+02  0.3587E+02  0.5911E+02  0.5887E+02
     -5.517  0.8426E+02  0.8348E+02  0.6352E+02  0.6324E+02
     -5.465  0.6476E+02  0.6702E+02  0.6691E+02  0.6674E+02
     -5.413  0.3078E+02  0.3366E+02  0.6852E+02  0.6850E+02
     -5.360  0.5579E+02  0.5485E+02  0.7144E+02  0.7137E+02
     -5.308  0.4505E+02  0.3834E+02  0.7380E+02  0.7338E+02
     -5.256  0.9287E+02  0.9903E+02  0.7866E+02  0.7856E+02
     -5.204  0.8435E+02  0.8139E+02  0.8307E+02  0.8282E+02
     -5.151  0.3836E+02  0.4214E+02  0.8508E+02  0.8502E+02
     -5.099  0.8775E+02  0.8311E+02  0.8967E+02  0.8937E+02
     -5.047  0.7942E+02  0.7692E+02  0.9382E+02  0.9340E+02
     -4.994  0.2883E+02  0.3442E+02  0.9533E+02  0.9520E+02
     -4.942  0.3735E+02  0.3819E+02  0.9728E+02  0.9719E+02
     -4.890  0.5877E+02  0.5928E+02  0.1004E+03  0.1003E+03
     -4.837  0.1034E+03  0.9584E+02  0.1058E+03  0.1053E+03
     -4.785  0.5665E+02  0.5977E+02  0.1087E+03  0.1084E+03
     -4.733  0.6564E+02  0.6666E+02  0.1122E+03  0.1119E+03
     -4.680  0.5506E+02  0.5903E+02  0.1150E+03  0.1150E+03
     -4.628  0.5033E+02  0.4704E+02  0.1177E+03  0.1175E+03
     -4.576  0.1068E+03  0.1062E+03  0.1233E+03  0.1230E+03
     -4.523  0.8706E+02  0.8643E+02  0.1278E+03  0.1276E+03
     -4.471  0.6754E+02  0.6962E+02  0.1314E+03  0.1312E+03
     -4.419  0.4997E+02  0.4641E+02  0.1340E+03  0.1336E+03
     -4.366  0.7628E+02  0.7802E+02  0.1380E+03  0.1377E+03
     -4.314  0.5655E+02  0.5652E+02  0.1409E+03  0.1407E+03
     -4.262  0.7816E+02  0.7874E+02  0.1450E+03  0.1448E+03
     -4.209  0.1017E+03  0.9752E+02  0.1503E+03  0.1499E+03
     -4.157  0.9884E+02  0.8905E+02  0.1555E+03  0.1545E+03
     -4.105  0.9227E+02  0.1052E+03  0.1603E+03  0.1600E+03
     -4.053  0.7311E+02  0.7288E+02  0.1642E+03  0.1639E+03
     -4.000  0.5125E+02  0.5328E+02  0.1668E+03  0.1666E+03
     -3.948  0.4953E+02  0.4989E+02  0.1694E+03  0.1693E+03
     -3.896  0.4734E+02  0.4544E+02  0.1719E+03  0.1716E+03
     -3.843  0.1026E+03  0.9837E+02  0.1773E+03  0.1768E+03
     -3.791  0.7028E+02  0.7356E+02  0.1809E+03  0.1806E+03
     -3.739  0.7640E+02  0.7999E+02  0.1849E+03  0.1848E+03
     -3.686  0.2984E+02  0.2627E+02  0.1865E+03  0.1862E+03
     -3.634  0.3540E+02  0.3762E+02  0.1884E+03  0.1882E+03
     -3.582  0.4674E+02  0.4481E+02  0.1908E+03  0.1905E+03
     -3.529  0.4237E+02  0.4567E+02  0.1930E+03  0.1929E+03
     -3.477  0.7615E+02  0.7831E+02  0.1970E+03  0.1970E+03
     -3.425  0.2740E+02  0.2577E+02  0.1984E+03  0.1983E+03
     -3.372  0.5850E+02  0.6038E+02  0.2015E+03  0.2015E+03
     -3.320  0.2108E+02  0.1404E+02  0.2026E+03  0.2022E+03
     -3.268  0.5730E+02  0.6063E+02  0.2056E+03  0.2054E+03
     -3.215  0.2921E+02  0.2796E+02  0.2071E+03  0.2069E+03
     -3.163  0.3511E+02  0.3176E+02  0.2090E+03  0.2085E+03
     -3.111  0.3607E+02  0.4217E+02  0.2109E+03  0.2107E+03
     -3.058  0.2618E+02  0.2370E+02  0.2122E+03  0.2120E+03
     -3.006  0.4338E+02  0.4746E+02  0.2145E+03  0.2145E+03
     -2.954  0.3835E+02  0.3894E+02  0.2165E+03  0.2165E+03
     -2.901  0.5453E+02  0.4730E+02  0.2194E+03  0.2190E+03
     -2.849  0.5320E+02  0.5837E+02  0.2221E+03  0.2220E+03
     -2.797  0.8198E+02  0.7665E+02  0.2264E+03  0.2260E+03
     -2.745  0.6559E+02  0.7050E+02  0.2299E+03  0.2297E+03
     -2.692  0.3870E+02  0.3425E+02  0.2319E+03  0.2315E+03
     -2.640  0.3338E+02  0.3910E+02  0.2336E+03  0.2336E+03
     -2.588  0.1028E+02  0.1022E+02  0.2342E+03  0.2341E+03
     -2.535  0.5592E+02  0.5511E+02  0.2371E+03  0.2370E+03
     -2.483  0.7692E+02  0.7452E+02  0.2411E+03  0.2409E+03
     -2.431  0.4894E+02  0.4520E+02  0.2437E+03  0.2432E+03
     -2.378  0.8933E+02  0.9198E+02  0.2483E+03  0.2481E+03
     -2.326  0.7211E+02  0.6937E+02  0.2521E+03  0.2517E+03
     -2.274  0.1046E+03  0.1032E+03  0.2576E+03  0.2571E+03
     -2.221  0.6675E+02  0.7442E+02  0.2611E+03  0.2610E+03
     -2.169  0.9968E+02  0.9272E+02  0.2663E+03  0.2658E+03
     -2.117  0.5446E+02  0.6201E+02  0.2691E+03  0.2691E+03
     -2.064  0.8687E+02  0.8246E+02  0.2737E+03  0.2734E+03
     -2.012  0.7343E+02  0.7569E+02  0.2775E+03  0.2773E+03
     -1.960  0.1074E+03  0.1013E+03  0.2832E+03  0.2826E+03
     -1.907  0.1104E+03  0.1143E+03  0.2889E+03  0.2886E+03
     -1.855  0.9709E+02  0.9515E+02  0.2940E+03  0.2936E+03
     -1.803  0.6372E+02  0.6805E+02  0.2973E+03  0.2972E+03
     -1.750  0.9184E+02  0.8847E+02  0.3022E+03  0.3018E+03
     -1.698  0.7757E+02  0.7727E+02  0.3062E+03  0.3058E+03
     -1.646  0.1084E+03  0.1077E+03  0.3119E+03  0.3115E+03
     -1.593  0.7769E+02  0.8414E+02  0.3159E+03  0.3159E+03
     -1.541  0.7034E+02  0.6735E+02  0.3196E+03  0.3194E+03
     -1.489  0.9498E+02  0.8903E+02  0.3246E+03  0.3241E+03
     -1.437  0.6720E+02  0.6711E+02  0.3281E+03  0.3276E+03
     -1.384  0.6324E+02  0.6940E+02  0.3314E+03  0.3312E+03
     -1.332  0.6531E+02  0.6703E+02  0.3348E+03  0.3347E+03
     -1.280  0.1862E+02  0.1482E+02  0.3358E+03  0.3355E+03
     -1.227  0.3903E+02  0.4074E+02  0.3379E+03  0.3376E+03
     -1.175  0.4398E+02  0.4422E+02  0.3402E+03  0.3399E+03
     -1.123  0.6582E+02  0.6364E+02  0.3436E+03  0.3432E+03
     -1.070  0.6287E+02  0.6358E+02  0.3469E+03  0.3466E+03
     -1.018  0.4745E+02  0.4750E+02  0.3494E+03  0.3491E+03
     -0.966  0.3911E+02  0.4395E+02  0.3514E+03  0.3514E+03
     -0.913  0.7467E+02  0.6718E+02  0.3553E+03  0.3549E+03
     -0.861  0.5742E+02  0.6343E+02  0.3583E+03  0.3582E+03
     -0.809  0.3179E+02  0.3394E+02  0.3600E+03  0.3600E+03
     -0.756  0.3201E+02  0.2701E+02  0.3617E+03  0.3614E+03
     -0.704  0.8174E+02  0.8423E+02  0.3659E+03  0.3658E+03
     -0.652  0.3357E+02  0.3145E+02  0.3677E+03  0.3674E+03
     -0.599  0.3275E+02  0.3390E+02  0.3694E+03  0.3692E+03
     -0.547  0.3413E+02  0.2946E+02  0.3712E+03  0.3708E+03
     -0.495  0.6121E+02  0.6515E+02  0.3744E+03  0.3742E+03
     -0.442  0.5838E+02  0.6109E+02  0.3775E+03  0.3774E+03
     -0.390  0.3142E+02  0.2892E+02  0.3791E+03  0.3789E+03
     -0.338  0.5172E+02  0.5034E+02  0.3818E+03  0.3815E+03
     -0.285  0.8099E+02  0.8546E+02  0.3860E+03  0.3860E+03
     -0.233  0.2597E+02  0.2341E+02  0.3874E+03  0.3872E+03
     -0.181  0.2098E+02  0.2488E+02  0.3885E+03  0.3885E+03
     -0.129  0.2439E+02  0.1990E+02  0.3898E+03  0.3895E+03
     -0.076  0.2244E+02  0.2180E+02  0.3909E+03  0.3907E+03
     -0.024  0.5970E+02  0.5871E+02  0.3941E+03  0.3938E+03
      0.028  0.1426E+02  0.1772E+02  0.3948E+03  0.3947E+03
      0.081  0.6728E+02  0.6707E+02  0.3983E+03  0.3982E+03
      0.133  0.1263E+02  0.1550E+02  0.3990E+03  0.3990E+03
      0.185  0.5940E-03  0.3805E-04  0.3990E+03  0.3990E+03
      0.238  0.2045E+02  0.1973E+02  0.4001E+03  0.4000E+03
      0.290  0.5339E+02  0.5102E+02  0.4029E+03  0.4027E+03
      0.342  0.4803E+02  0.3965E+02  0.4054E+03  0.4048E+03
      0.395  0.8787E+02  0.9406E+02  0.4100E+03  0.4097E+03
      0.447  0.6264E+02  0.5948E+02  0.4133E+03  0.4128E+03
      0.499  0.1480E+03  0.1497E+03  0.4210E+03  0.4206E+03
      0.552  0.6796E+02  0.7192E+02  0.4246E+03  0.4244E+03
      0.604  0.9369E+02  0.8700E+02  0.4295E+03  0.4290E+03
      0.656  0.1200E+03  0.1167E+03  0.4357E+03  0.4351E+03
      0.709  0.9652E+02  0.1021E+03  0.4408E+03  0.4404E+03
      0.761  0.1054E+03  0.1014E+03  0.4463E+03  0.4457E+03
      0.813  0.1032E+03  0.1054E+03  0.4517E+03  0.4512E+03
      0.866  0.1275E+03  0.1259E+03  0.4584E+03  0.4578E+03
      0.918  0.1258E+03  0.1261E+03  0.4649E+03  0.4644E+03
      0.970  0.6660E+02  0.7353E+02  0.4684E+03  0.4683E+03
      1.022  0.7841E+02  0.7088E+02  0.4725E+03  0.4720E+03
      1.075  0.1042E+03  0.1046E+03  0.4780E+03  0.4774E+03
      1.127  0.1151E+03  0.1107E+03  0.4840E+03  0.4832E+03
      1.179  0.8561E+02  0.9932E+02  0.4885E+03  0.4884E+03
      1.232  0.8896E+02  0.8242E+02  0.4931E+03  0.4927E+03
      1.284  0.8880E+02  0.9253E+02  0.4978E+03  0.4976E+03
      1.336  0.1160E+03  0.9800E+02  0.5039E+03  0.5027E+03
      1.389  0.1143E+03  0.1269E+03  0.5098E+03  0.5093E+03
      1.441  0.1283E+03  0.1197E+03  0.5165E+03  0.5156E+03
      1.493  0.1186E+03  0.1230E+03  0.5228E+03  0.5220E+03
      1.546  0.1406E+03  0.1417E+03  0.5301E+03  0.5295E+03
      1.598  0.1261E+03  0.1281E+03  0.5367E+03  0.5362E+03
      1.650  0.1716E+03  0.1674E+03  0.5457E+03  0.5449E+03
      1.703  0.1486E+03  0.1507E+03  0.5535E+03  0.5528E+03
      1.755  0.1502E+03  0.1543E+03  0.5613E+03  0.5609E+03
      1.807  0.1085E+03  0.1075E+03  0.5670E+03  0.5665E+03
      1.860  0.1713E+03  0.1697E+03  0.5760E+03  0.5754E+03
      1.912  0.1534E+03  0.1557E+03  0.5840E+03  0.5835E+03
      1.964  0.8605E+02  0.8088E+02  0.5885E+03  0.5877E+03
      2.017  0.1463E+03  0.1507E+03  0.5961E+03  0.5956E+03
      2.069  0.1363E+03  0.1351E+03  0.6033E+03  0.6027E+03
      2.121  0.1575E+03  0.1590E+03  0.6115E+03  0.6110E+03
      2.174  0.1468E+03  0.1471E+03  0.6192E+03  0.6187E+03
      2.226  0.1752E+03  0.1688E+03  0.6283E+03  0.6276E+03
      2.278  0.1526E+03  0.1611E+03  0.6363E+03  0.6360E+03
      2.330  0.1355E+03  0.1365E+03  0.6434E+03  0.6431E+03
      2.383  0.1500E+03  0.1428E+03  0.6513E+03  0.6506E+03
      2.435  0.1501E+03  0.1600E+03  0.6591E+03  0.6590E+03
      2.487  0.1097E+03  0.1073E+03  0.6649E+03  0.6646E+03
      2.540  0.1219E+03  0.1173E+03  0.6712E+03  0.6707E+03
      2.592  0.1598E+03  0.1535E+03  0.6796E+03  0.6787E+03
      2.644  0.1367E+03  0.1431E+03  0.6868E+03  0.6862E+03
      2.697  0.1247E+03  0.1298E+03  0.6933E+03  0.6930E+03
      2.749  0.1252E+03  0.1150E+03  0.6998E+03  0.6990E+03
      2.801  0.1368E+03  0.1384E+03  0.7070E+03  0.7063E+03
      2.854  0.1415E+03  0.1504E+03  0.7144E+03  0.7142E+03
      2.906  0.1628E+03  0.1546E+03  0.7229E+03  0.7222E+03
      2.958  0.1465E+03  0.1516E+03  0.7306E+03  0.7302E+03
      3.011  0.8029E+02  0.7863E+02  0.7348E+03  0.7343E+03
      3.063  0.1429E+03  0.1437E+03  0.7423E+03  0.7418E+03
      3.115  0.1022E+03  0.1097E+03  0.7476E+03  0.7475E+03
      3.168  0.5566E+02  0.5285E+02  0.7505E+03  0.7503E+03
      3.220  0.1311E+03  0.1225E+03  0.7574E+03  0.7567E+03
      3.272  0.1299E+03  0.1325E+03  0.7642E+03  0.7637E+03
      3.325  0.7906E+02  0.8672E+02  0.7683E+03  0.7682E+03
      3.377  0.7588E+02  0.6981E+02  0.7723E+03  0.7718E+03
      3.429  0.1148E+03  0.1116E+03  0.7783E+03  0.7777E+03
      3.482  0.8240E+02  0.8961E+02  0.7826E+03  0.7824E+03
      3.534  0.7592E+02  0.7508E+02  0.7866E+03  0.7863E+03
      3.586  0.1183E+03  0.1168E+03  0.7928E+03  0.7924E+03
      3.638  0.8049E+02  0.7780E+02  0.7970E+03  0.7965E+03
      3.691  0.1053E+03  0.1066E+03  0.8025E+03  0.8021E+03
      3.743  0.9093E+02  0.9064E+02  0.8072E+03  0.8068E+03
      3.795  0.5386E+02  0.5862E+02  0.8101E+03  0.8099E+03
      3.848  0.9558E+02  0.9722E+02  0.8151E+03  0.8149E+03
      3.900  0.6271E+02  0.5777E+02  0.8183E+03  0.8180E+03
      3.952  0.1008E+03  0.9370E+02  0.8236E+03  0.8229E+03
      4.005  0.9230E+02  0.9859E+02  0.8284E+03  0.8280E+03
      4.057  0.3204E+02  0.3292E+02  0.8301E+03  0.8298E+03
      4.109  0.6614E+02  0.6126E+02  0.8336E+03  0.8330E+03
      4.162  0.1122E+03  0.1156E+03  0.8394E+03  0.8390E+03
      4.214  0.3278E+02  0.3836E+02  0.8412E+03  0.8410E+03
      4.266  0.4859E+02  0.4698E+02  0.8437E+03  0.8435E+03
      4.319  0.1088E+03  0.9568E+02  0.8494E+03  0.8485E+03
      4.371  0.6058E+02  0.5397E+02  0.8526E+03  0.8513E+03
      4.423  0.8187E+02  0.6825E+02  0.8568E+03  0.8549E+03
      4.476  0.2743E+02  0.5966E+02  0.8583E+03  0.8580E+03
      4.528  0.3307E+02  0.3591E+02  0.8600E+03  0.8599E+03
      4.580  0.6300E+02  0.2995E+02  0.8633E+03  0.8614E+03
      4.633  0.2367E+02  0.4549E+02  0.8645E+03  0.8638E+03
      4.685  0.8724E+01  0.1559E+02  0.8650E+03  0.8646E+03
      4.737  0.2991E+02  0.1460E+02  0.8666E+03  0.8654E+03
      4.789  0.2743E+02  0.4979E+02  0.8680E+03  0.8680E+03
      4.842  0.2649E+02  0.1423E+02  0.8694E+03  0.8687E+03
      4.894  0.3162E+02  0.3977E+02  0.8710E+03  0.8708E+03
      4.946  0.6769E+02  0.6839E+02  0.8746E+03  0.8744E+03
      4.999  0.4425E+02  0.4074E+02  0.8769E+03  0.8765E+03
      5.051  0.5438E+02  0.4561E+02  0.8797E+03  0.8789E+03
      5.103  0.4551E+02  0.5694E+02  0.8821E+03  0.8819E+03
      5.156  0.5544E+02  0.5317E+02  0.8850E+03  0.8847E+03
      5.208  0.5658E+02  0.5861E+02  0.8880E+03  0.8877E+03
      5.260  0.5180E+02  0.5333E+02  0.8907E+03  0.8905E+03
      5.313  0.6036E+02  0.5685E+02  0.8939E+03  0.8935E+03
      5.365  0.8648E+02  0.7081E+02  0.8984E+03  0.8972E+03
      5.417  0.9748E+02  0.1077E+03  0.9035E+03  0.9029E+03
      5.470  0.5430E+02  0.5659E+02  0.9063E+03  0.9058E+03
      5.522  0.8620E+02  0.8966E+02  0.9108E+03  0.9105E+03
      5.574  0.1903E+02  0.1909E+02  0.9118E+03  0.9115E+03
      5.627  0.6062E+02  0.6619E+02  0.9150E+03  0.9150E+03
      5.679  0.7899E+02  0.7219E+02  0.9191E+03  0.9187E+03
      5.731  0.1208E+03  0.1216E+03  0.9254E+03  0.9251E+03
      5.784  0.7003E+02  0.6997E+02  0.9291E+03  0.9288E+03
      5.836  0.8156E+02  0.8305E+02  0.9334E+03  0.9331E+03
      5.888  0.7823E+02  0.7188E+02  0.9375E+03  0.9369E+03
      5.941  0.1084E+03  0.1050E+03  0.9431E+03  0.9424E+03
      5.993  0.8297E+02  0.9302E+02  0.9475E+03  0.9472E+03
      6.045  0.1211E+03  0.1239E+03  0.9538E+03  0.9537E+03
      6.097  0.9670E+02  0.9166E+02  0.9589E+03  0.9585E+03
      6.150  0.8740E+02  0.9011E+02  0.9634E+03  0.9632E+03
      6.202  0.5785E+02  0.6026E+02  0.9665E+03  0.9664E+03
      6.254  0.1311E+03  0.1240E+03  0.9733E+03  0.9729E+03
      6.307  0.9131E+02  0.8948E+02  0.9781E+03  0.9776E+03
      6.359  0.1143E+03  0.1113E+03  0.9841E+03  0.9834E+03
      6.411  0.6420E+02  0.7032E+02  0.9875E+03  0.9871E+03
      6.464  0.1224E+03  0.1196E+03  0.9939E+03  0.9933E+03
      6.516  0.1281E+03  0.1217E+03  0.1001E+04  0.9997E+03
      6.568  0.1358E+03  0.1442E+03  0.1008E+04  0.1007E+04
      6.621  0.1282E+03  0.1240E+03  0.1014E+04  0.1014E+04
      6.673  0.1502E+03  0.1526E+03  0.1022E+04  0.1022E+04
      6.725  0.9985E+02  0.1063E+03  0.1027E+04  0.1027E+04
      6.778  0.8404E+02  0.8268E+02  0.1032E+04  0.1032E+04
      6.830  0.9806E+02  0.1070E+03  0.1037E+04  0.1037E+04
      6.882  0.5750E+02  0.4420E+02  0.1040E+04  0.1040E+04
      6.935  0.9991E-01  0.9527E+01  0.1040E+04  0.1040E+04
      6.987  0.0000E+00  0.0000E+00  0.1040E+04  0.1040E+04
      7.039  0.0000E+00  0.0000E+00  0.1040E+04  0.1040E+04
      7.092  0.0000E+00  0.0000E+00  0.1040E+04  0.1040E+04
      7.144  0.0000E+00  0.0000E+00  0.1040E+04  0.1040E+04
      7.196  0.0000E+00  0.0000E+00  0.1040E+04  0.1040E+04
      7.249  0.0000E+00  0.0000E+00  0.1040E+04  0.1040E+04
      7.301  0.0000E+00  0.0000E+00  0.1040E+04  0.1040E+04
      7.353  0.0000E+00  0.0000E+00  0.1040E+04  0.1040E+04
      7.405  0.0000E+00  0.0000E+00  0.1040E+04  0.1040E+04
      7.458  0.0000E+00  0.0000E+00  0.1040E+04  0.1040E+04
      7.510  0.0000E+00  0.0000E+00  0.1040E+04  0.1040E+04
      7.562  0.0000E+00  0.0000E+00  0.1040E+04  0.1040E+04
      7.615  0.0000E+00  0.0000E+00  0.1040E+04  0.1040E+04
