<?xml version="1.0" encoding="ISO-8859-1"?>
<modeling>
 <generator>
  <i name="program" type="string">vasp </i>
  <i name="version" type="string">6.4.3  </i>
  <i name="subversion" type="string">19Mar24 (build Oct 22 2024 11:23:12) complex                          parallel </i>
  <i name="platform" type="string">LinuxIFC </i>
  <i name="date" type="string">2025 06 09 </i>
  <i name="time" type="string">13:19:23 </i>
 </generator>
 <incar>
  <i type="string" name="SYSTEM">Si and Ge interface calculation</i>
  <i type="int" name="ISTART">     0</i>
  <i type="logical" name="ADDGRID"> T  </i>
  <i type="int" name="ISPIN">     2</i>
  <i name="AMIX">      0.60000000</i>
  <i type="int" name="ICHARG">     2</i>
  <i type="int" name="NELM">   100</i>
  <i name="EDIFF">      0.00000010</i>
  <i name="ENCUT">    700.00000000</i>
  <i name="ENAUG">    900.00000000</i>
  <i type="int" name="NBANDS">   519</i>
  <i name="NUPDOWN">      1.00000000</i>
  <i name="NELECT">    864.00000000</i>
  <i type="string" name="LREAL">AUTO</i>
  <i type="int" name="ISMEAR">     0</i>
  <i name="SIGMA">      0.01000000</i>
  <i type="int" name="LMAXMIX">     6</i>
  <i type="logical" name="LWAVE"> F  </i>
  <i type="logical" name="LVTOT"> F  </i>
  <i type="logical" name="LVHAR"> T  </i>
  <i type="logical" name="LASPH"> T  </i>
  <i type="logical" name="LMIXTAU"> T  </i>
 </incar>
 <primitive_cell>
  <structure name="primitive_cell" >
   <crystal>
    <varray name="basis" >
     <v>       6.65158829       0.00000000       0.00000000 </v>
     <v>       0.00000000      18.81353569       0.00000000 </v>
     <v>       0.00000000       0.00000000      21.64667320 </v>
    </varray>
    <i name="volume">   2708.86238230 </i>
    <varray name="rec_basis" >
     <v>       0.15034003       0.00000000       0.00000000 </v>
     <v>       0.00000000       0.05315322       0.00000000 </v>
     <v>       0.00000000       0.00000000       0.04619648 </v>
    </varray>
   </crystal>
   <varray name="positions" >
    <v>       0.95703505       0.49999997       0.00000000 </v>
    <v>       0.45703449       0.49999991       0.08870412 </v>
    <v>       0.95703470       0.49999988       0.17740822 </v>
    <v>       0.45703422       0.49999979       0.26611230 </v>
    <v>       0.95703434       0.49999973       0.35481641 </v>
    <v>       0.45703374       0.49999967       0.44352049 </v>
    <v>       0.62370172       0.66666675       0.00000001 </v>
    <v>       0.12370104       0.66666663       0.08870412 </v>
    <v>       0.62370124       0.66666657       0.17740822 </v>
    <v>       0.12370084       0.66666651       0.26611230 </v>
    <v>       0.62370089       0.66666645       0.35481644 </v>
    <v>       0.12370017       0.66666639       0.44352058 </v>
    <v>       0.29036800       0.83333337       0.00000001 </v>
    <v>       0.79036803       0.83333325       0.08870411 </v>
    <v>       0.29036755       0.83333331       0.17740823 </v>
    <v>       0.79036779       0.83333319       0.26611230 </v>
    <v>       0.29036720       0.83333313       0.35481647 </v>
    <v>       0.79036731       0.83333307       0.44352055 </v>
    <v>       0.95703505       0.00000000       0.00000001 </v>
    <v>       0.45703452       0.99999994       0.08870412 </v>
    <v>       0.95703470       0.99999988       0.17740822 </v>
    <v>       0.45703410       0.99999982       0.26611230 </v>
    <v>       0.95703434       0.99999970       0.35481644 </v>
    <v>       0.45703374       0.99999964       0.44352055 </v>
    <v>       0.62370160       0.16666669       0.00000001 </v>
    <v>       0.12370112       0.16666661       0.08870412 </v>
    <v>       0.62370124       0.16666654       0.17740822 </v>
    <v>       0.12370084       0.16666648       0.26611230 </v>
    <v>       0.62370089       0.16666640       0.35481644 </v>
    <v>       0.12370041       0.16666634       0.44352049 </v>
    <v>       0.29036794       0.33333331       0.00000001 </v>
    <v>       0.79036815       0.33333328       0.08870412 </v>
    <v>       0.29036767       0.33333319       0.17740822 </v>
    <v>       0.79036791       0.33333316       0.26611236 </v>
    <v>       0.29036732       0.33333307       0.35481644 </v>
    <v>       0.79036731       0.33333299       0.44352049 </v>
    <v>       0.29036803       0.70833337       0.00000000 </v>
    <v>       0.79036815       0.70833331       0.08870412 </v>
    <v>       0.29036770       0.70833319       0.17740822 </v>
    <v>       0.79036779       0.70833313       0.26611236 </v>
    <v>       0.29036720       0.70833313       0.35481647 </v>
    <v>       0.79036731       0.70833307       0.44352058 </v>
    <v>       0.95703505       0.87500006       0.00000001 </v>
    <v>       0.45703443       0.87500000       0.08870413 </v>
    <v>       0.95703470       0.87500000       0.17740823 </v>
    <v>       0.45703422       0.87499982       0.26611230 </v>
    <v>       0.95703434       0.87499982       0.35481647 </v>
    <v>       0.45703374       0.87499976       0.44352055 </v>
    <v>       0.29036797       0.20833334       0.00000001 </v>
    <v>       0.79036815       0.20833328       0.08870412 </v>
    <v>       0.29036773       0.20833319       0.17740822 </v>
    <v>       0.79036791       0.20833313       0.26611230 </v>
    <v>       0.29036720       0.20833307       0.35481644 </v>
    <v>       0.79036731       0.20833303       0.44352055 </v>
    <v>       0.95703505       0.37500000       0.00000001 </v>
    <v>       0.45703452       0.37499994       0.08870412 </v>
    <v>       0.95703470       0.37499988       0.17740822 </v>
    <v>       0.45703422       0.37499979       0.26611230 </v>
    <v>       0.95703434       0.37499976       0.35481647 </v>
    <v>       0.45703374       0.37499970       0.44352055 </v>
    <v>       0.62370172       0.54166669       0.00000001 </v>
    <v>       0.12370109       0.54166663       0.08870412 </v>
    <v>       0.62370124       0.54166657       0.17740823 </v>
    <v>       0.12370085       0.54166651       0.26611230 </v>
    <v>       0.62370100       0.54166645       0.35481644 </v>
    <v>       0.12370017       0.54166639       0.44352058 </v>
    <v>       0.62370172       0.04166668       0.00000001 </v>
    <v>       0.12370111       0.04166659       0.08870412 </v>
    <v>       0.62370136       0.04166652       0.17740822 </v>
    <v>       0.12370085       0.04166647       0.26611236 </v>
    <v>       0.62370100       0.04166639       0.35481644 </v>
    <v>       0.12370029       0.04166633       0.44352055 </v>
    <v>       0.80328746       0.77361858       0.53439891 </v>
    <v>       0.30328734       0.77361858       0.68428803 </v>
    <v>       0.80328770       0.77361858       0.83417702 </v>
    <v>       0.80328746       0.44028521       0.53439891 </v>
    <v>       0.30328734       0.44028521       0.68428803 </v>
    <v>       0.80328770       0.44028521       0.83417702 </v>
    <v>       0.80328746       0.10695187       0.53439891 </v>
    <v>       0.30328734       0.10695187       0.68428803 </v>
    <v>       0.80328770       0.10695187       0.83417702 </v>
    <v>       0.05328728       0.02361858       0.60934353 </v>
    <v>       0.55328764       0.02361858       0.75923264 </v>
    <v>       0.05328728       0.02361858       0.90912175 </v>
    <v>       0.05328728       0.69028532       0.60934353 </v>
    <v>       0.55328764       0.69028532       0.75923264 </v>
    <v>       0.05328728       0.69028532       0.90912175 </v>
    <v>       0.05328728       0.35695186       0.60934353 </v>
    <v>       0.55328764       0.35695186       0.75923264 </v>
    <v>       0.05328728       0.35695186       0.90912175 </v>
    <v>       0.30328734       0.94028521       0.53439891 </v>
    <v>       0.80328746       0.94028521       0.68428803 </v>
    <v>       0.30328734       0.94028521       0.83417702 </v>
    <v>       0.30328734       0.60695189       0.53439891 </v>
    <v>       0.80328746       0.60695189       0.68428803 </v>
    <v>       0.30328734       0.60695189       0.83417702 </v>
    <v>       0.30328734       0.27361855       0.53439891 </v>
    <v>       0.80328746       0.27361855       0.68428803 </v>
    <v>       0.30328734       0.27361855       0.83417702 </v>
    <v>       0.55328740       0.85695195       0.60934353 </v>
    <v>       0.05328728       0.85695195       0.75923264 </v>
    <v>       0.55328764       0.85695195       0.90912175 </v>
    <v>       0.55328740       0.52361858       0.60934353 </v>
    <v>       0.05328728       0.52361858       0.75923264 </v>
    <v>       0.55328764       0.52361858       0.90912175 </v>
    <v>       0.55328740       0.19028521       0.60934353 </v>
    <v>       0.05328728       0.19028521       0.75923264 </v>
    <v>       0.55328764       0.19028521       0.90912175 </v>
   </varray>
  </structure>
  <varray name="primitive_index" >
   <v type="int" >        1 </v>
   <v type="int" >       50 </v>
   <v type="int" >       51 </v>
   <v type="int" >        4 </v>
   <v type="int" >        5 </v>
   <v type="int" >       54 </v>
   <v type="int" >       55 </v>
   <v type="int" >        8 </v>
   <v type="int" >        9 </v>
   <v type="int" >       58 </v>
   <v type="int" >       59 </v>
   <v type="int" >       12 </v>
   <v type="int" >       37 </v>
   <v type="int" >       38 </v>
   <v type="int" >       15 </v>
   <v type="int" >       16 </v>
   <v type="int" >       41 </v>
   <v type="int" >       42 </v>
   <v type="int" >       19 </v>
   <v type="int" >       62 </v>
   <v type="int" >       63 </v>
   <v type="int" >       22 </v>
   <v type="int" >       23 </v>
   <v type="int" >       66 </v>
   <v type="int" >       67 </v>
   <v type="int" >       26 </v>
   <v type="int" >       27 </v>
   <v type="int" >       70 </v>
   <v type="int" >       71 </v>
   <v type="int" >       30 </v>
   <v type="int" >       43 </v>
   <v type="int" >       44 </v>
   <v type="int" >       33 </v>
   <v type="int" >       34 </v>
   <v type="int" >       47 </v>
   <v type="int" >       48 </v>
   <v type="int" >       73 </v>
   <v type="int" >       74 </v>
   <v type="int" >      129 </v>
   <v type="int" >      130 </v>
   <v type="int" >       77 </v>
   <v type="int" >       78 </v>
   <v type="int" >      109 </v>
   <v type="int" >       80 </v>
   <v type="int" >       81 </v>
   <v type="int" >      112 </v>
   <v type="int" >      113 </v>
   <v type="int" >       84 </v>
   <v type="int" >       85 </v>
   <v type="int" >       86 </v>
   <v type="int" >      141 </v>
   <v type="int" >      142 </v>
   <v type="int" >       89 </v>
   <v type="int" >       90 </v>
   <v type="int" >      115 </v>
   <v type="int" >       92 </v>
   <v type="int" >       93 </v>
   <v type="int" >      118 </v>
   <v type="int" >      119 </v>
   <v type="int" >       96 </v>
   <v type="int" >       97 </v>
   <v type="int" >      122 </v>
   <v type="int" >      123 </v>
   <v type="int" >      100 </v>
   <v type="int" >      101 </v>
   <v type="int" >      126 </v>
   <v type="int" >      103 </v>
   <v type="int" >      134 </v>
   <v type="int" >      135 </v>
   <v type="int" >      106 </v>
   <v type="int" >      107 </v>
   <v type="int" >      138 </v>
   <v type="int" >      145 </v>
   <v type="int" >      155 </v>
   <v type="int" >      156 </v>
   <v type="int" >      148 </v>
   <v type="int" >      158 </v>
   <v type="int" >      159 </v>
   <v type="int" >      151 </v>
   <v type="int" >      161 </v>
   <v type="int" >      162 </v>
   <v type="int" >      163 </v>
   <v type="int" >      164 </v>
   <v type="int" >      174 </v>
   <v type="int" >      166 </v>
   <v type="int" >      167 </v>
   <v type="int" >      177 </v>
   <v type="int" >      169 </v>
   <v type="int" >      170 </v>
   <v type="int" >      180 </v>
   <v type="int" >      181 </v>
   <v type="int" >      182 </v>
   <v type="int" >      192 </v>
   <v type="int" >      184 </v>
   <v type="int" >      185 </v>
   <v type="int" >      195 </v>
   <v type="int" >      187 </v>
   <v type="int" >      188 </v>
   <v type="int" >      198 </v>
   <v type="int" >      208 </v>
   <v type="int" >      200 </v>
   <v type="int" >      201 </v>
   <v type="int" >      211 </v>
   <v type="int" >      203 </v>
   <v type="int" >      204 </v>
   <v type="int" >      214 </v>
   <v type="int" >      206 </v>
   <v type="int" >      207 </v>
  </varray>
 </primitive_cell>
 <kpoints>
  <generation param="Gamma">
   <v type="int" name="divisions">       2        2        1 </v>
   <v name="usershift">      0.00000000       0.00000000       0.00000000 </v>
   <v name="genvec1">      0.50000000       0.00000000       0.00000000 </v>
   <v name="genvec2">      0.00000000       0.50000000       0.00000000 </v>
   <v name="genvec3">      0.00000000       0.00000000       1.00000000 </v>
   <v name="shift">      0.00000000       0.00000000       0.00000000 </v>
  </generation>
  <varray name="kpointlist" >
   <v>       0.00000000       0.00000000       0.00000000 </v>
   <v>       0.50000000       0.00000000       0.00000000 </v>
   <v>       0.00000000       0.50000000       0.00000000 </v>
   <v>       0.50000000       0.50000000       0.00000000 </v>
  </varray>
  <varray name="weights" >
   <v>       0.25000000 </v>
   <v>       0.25000000 </v>
   <v>       0.25000000 </v>
   <v>       0.25000000 </v>
  </varray>
 </kpoints>
 <parameters>
  <separator name="general" >
   <i type="string" name="SYSTEM">Si and Ge interface calculation</i>
   <i type="logical" name="LCOMPAT"> F  </i>
  </separator>
  <separator name="electronic" >
   <i type="string" name="PREC">normal</i>
   <i name="ENMAX">    700.00000000</i>
   <i name="ENAUG">    900.00000000</i>
   <i name="EDIFF">      0.00000010</i>
   <i type="int" name="IALGO">    38</i>
   <i type="int" name="IWAVPR">    10</i>
   <i type="int" name="NBANDS">   520</i>
   <i type="int" name="NBANDSLOW">    -1</i>
   <i type="int" name="NBANDSHIGH">    -1</i>
   <i name="NELECT">    864.00000000</i>
   <i type="int" name="TURBO">     0</i>
   <i type="int" name="IRESTART">     0</i>
   <i type="int" name="NREBOOT">     0</i>
   <i type="int" name="NMIN">     0</i>
   <i name="EREF">      0.00000000</i>
   <separator name="electronic smearing" >
    <i type="int" name="ISMEAR">     0</i>
    <i name="SIGMA">      0.01000000</i>
    <i name="KSPACING">      0.50000000</i>
    <i type="logical" name="KGAMMA"> T  </i>
    <i type="logical" name="KBLOWUP"> T  </i>
   </separator>
   <separator name="electronic projectors" >
    <i type="logical" name="LREAL"> T  </i>
    <v name="ROPT">     -0.00050000     -0.00050000</v>
    <i type="int" name="LMAXPAW">  -100</i>
    <i type="int" name="LMAXMIX">     6</i>
    <i type="logical" name="NLSPLINE"> F  </i>
   </separator>
   <separator name="electronic startup" >
    <i type="int" name="ISTART">     0</i>
    <i type="int" name="ICHARG">     2</i>
    <i type="int" name="INIWAV">     1</i>
   </separator>
   <separator name="electronic spin" >
    <i type="int" name="ISPIN">     2</i>
    <i type="logical" name="LNONCOLLINEAR"> F  </i>
    <v name="MAGMOM">      0.00462963      0.00462963      0.00462963      0.00462963      0.00462963      0.00462963      0.00462963      0.00462963      0.00462963      0.00462963      0.00462963      0.00462963      0.00462963      0.00462963      0.00462963      0.00462963      0.00462963      0.00462963      0.00462963      0.00462963
      0.00462963      0.00462963      0.00462963      0.00462963      0.00462963      0.00462963      0.00462963      0.00462963      0.00462963      0.00462963      0.00462963      0.00462963      0.00462963      0.00462963      0.00462963      0.00462963      0.00462963      0.00462963      0.00462963      0.00462963
      0.00462963      0.00462963      0.00462963      0.00462963      0.00462963      0.00462963      0.00462963      0.00462963      0.00462963      0.00462963      0.00462963      0.00462963      0.00462963      0.00462963      0.00462963      0.00462963      0.00462963      0.00462963      0.00462963      0.00462963
      0.00462963      0.00462963      0.00462963      0.00462963      0.00462963      0.00462963      0.00462963      0.00462963      0.00462963      0.00462963      0.00462963      0.00462963      0.00462963      0.00462963      0.00462963      0.00462963      0.00462963      0.00462963      0.00462963      0.00462963
      0.00462963      0.00462963      0.00462963      0.00462963      0.00462963      0.00462963      0.00462963      0.00462963      0.00462963      0.00462963      0.00462963      0.00462963      0.00462963      0.00462963      0.00462963      0.00462963      0.00462963      0.00462963      0.00462963      0.00462963
      0.00462963      0.00462963      0.00462963      0.00462963      0.00462963      0.00462963      0.00462963      0.00462963      0.00462963      0.00462963      0.00462963      0.00462963      0.00462963      0.00462963      0.00462963      0.00462963      0.00462963      0.00462963      0.00462963      0.00462963
      0.00462963      0.00462963      0.00462963      0.00462963      0.00462963      0.00462963      0.00462963      0.00462963      0.00462963      0.00462963      0.00462963      0.00462963      0.00462963      0.00462963      0.00462963      0.00462963      0.00462963      0.00462963      0.00462963      0.00462963
      0.00462963      0.00462963      0.00462963      0.00462963      0.00462963      0.00462963      0.00462963      0.00462963      0.00462963      0.00462963      0.00462963      0.00462963      0.00462963      0.00462963      0.00462963      0.00462963      0.00462963      0.00462963      0.00462963      0.00462963
      0.00462963      0.00462963      0.00462963      0.00462963      0.00462963      0.00462963      0.00462963      0.00462963      0.00462963      0.00462963      0.00462963      0.00462963      0.00462963      0.00462963      0.00462963      0.00462963      0.00462963      0.00462963      0.00462963      0.00462963
      0.00462963      0.00462963      0.00462963      0.00462963      0.00462963      0.00462963      0.00462963      0.00462963      0.00462963      0.00462963      0.00462963      0.00462963      0.00462963      0.00462963      0.00462963      0.00462963      0.00462963      0.00462963      0.00462963      0.00462963
      0.00462963      0.00462963      0.00462963      0.00462963      0.00462963      0.00462963      0.00462963      0.00462963      0.00462963      0.00462963      0.00462963      0.00462963      0.00462963      0.00462963      0.00462963      0.00462963</v>
    <i name="NUPDOWN">      1.00000000</i>
    <i type="logical" name="LSORBIT"> F  </i>
    <v name="SAXIS">      0.00000000      0.00000000      1.00000000</v>
    <i type="logical" name="LSPIRAL"> F  </i>
    <v name="QSPIRAL">      0.00000000      0.00000000      0.00000000</v>
    <i type="logical" name="LZEROZ"> F  </i>
   </separator>
   <separator name="electronic exchange-correlation" >
    <i type="logical" name="LASPH"> T  </i>
   </separator>
   <separator name="electronic convergence" >
    <i type="int" name="NELM">   100</i>
    <i type="int" name="NELMDL">    -5</i>
    <i type="int" name="NELMIN">     2</i>
    <i name="ENINI">    700.00000000</i>
    <separator name="electronic convergence detail" >
     <i type="logical" name="LDIAG"> T  </i>
     <i type="logical" name="LSUBROT"> F  </i>
     <i name="WEIMIN">      0.00000000</i>
     <i name="EBREAK">      0.00000000</i>
     <i name="DEPER">      0.30000000</i>
     <i type="int" name="NRMM">     4</i>
     <i name="TIME">      0.40000000</i>
    </separator>
   </separator>
   <separator name="electronic mixer" >
    <i name="AMIX">      0.60000000</i>
    <i name="BMIX">      1.00000000</i>
    <i name="AMIN">      0.10000000</i>
    <i name="AMIX_MAG">      2.40000000</i>
    <i name="BMIX_MAG">      1.00000000</i>
    <separator name="electronic mixer details" >
     <i type="int" name="IMIX">     4</i>
     <i type="logical" name="MIXFIRST"> F  </i>
     <i type="int" name="MAXMIX">   -45</i>
     <i name="WC">    100.00000000</i>
     <i type="int" name="INIMIX">     1</i>
     <i type="int" name="MIXPRE">     1</i>
     <i type="int" name="MREMOVE">     5</i>
    </separator>
   </separator>
   <separator name="electronic dipolcorrection" >
    <i type="logical" name="LDIPOL"> F  </i>
    <i type="logical" name="LMONO"> F  </i>
    <i type="int" name="IDIPOL">     0</i>
    <i name="EPSILON">      1.00000000</i>
    <v name="DIPOL">   -100.00000000   -100.00000000   -100.00000000</v>
    <i name="EFIELD">      0.00000000</i>
    <i type="logical" name="LVACPOTAV"> F  </i>
   </separator>
  </separator>
  <separator name="grids" >
   <i type="int" name="NGX">    90</i>
   <i type="int" name="NGY">   126</i>
   <i type="int" name="NGZ">   140</i>
   <i type="int" name="NGXF">   180</i>
   <i type="int" name="NGYF">   252</i>
   <i type="int" name="NGZF">   280</i>
   <i type="logical" name="ADDGRID"> T  </i>
  </separator>
  <separator name="ionic" >
   <i type="int" name="NSW">     0</i>
   <i type="int" name="IBRION">    -1</i>
   <i type="int" name="MDALGO">     0</i>
   <i type="int" name="ISIF">     2</i>
   <i name="PSTRESS">      0.00000000</i>
   <i name="EDIFFG">      0.00000100</i>
   <i type="int" name="NFREE">     0</i>
   <i name="POTIM">      0.50000000</i>
   <i name="SMASS">     -3.00000000</i>
   <i name="SCALEE">      1.00000000</i>
  </separator>
  <separator name="ionic md" >
   <i name="TEBEG">      0.00010000</i>
   <i name="TEEND">      0.00010000</i>
   <i type="int" name="NBLOCK">     1</i>
   <i type="int" name="KBLOCK">     1</i>
   <i type="int" name="NPACO">   256</i>
   <i name="APACO">     10.00000000</i>
  </separator>
  <separator name="symmetry" >
   <i type="int" name="ISYM">     2</i>
   <i name="SYMPREC">      0.00001000</i>
  </separator>
  <separator name="dos" >
   <i type="int" name="LORBIT">     0</i>
   <v name="RWIGS">     -1.00000000     -1.00000000</v>
   <i type="int" name="NEDOS">   301</i>
   <i name="EMIN">     10.00000000</i>
   <i name="EMAX">    -10.00000000</i>
   <i name="EFERMI">      0.00000000</i>
  </separator>
  <separator name="writing" >
   <i type="int" name="NWRITE">     2</i>
   <i type="logical" name="LWAVE"> F  </i>
   <i type="logical" name="LDOWNSAMPLE"> F  </i>
   <i type="logical" name="LCHARG"> T  </i>
   <i type="logical" name="LPARD"> F  </i>
   <i type="logical" name="LVTOT"> F  </i>
   <i type="logical" name="LVHAR"> T  </i>
   <i type="logical" name="LELF"> F  </i>
   <i type="logical" name="LOPTICS"> F  </i>
   <v name="STM">      0.00000000      0.00000000      0.00000000      0.00000000      0.00000000      0.00000000      0.00000000</v>
  </separator>
  <separator name="performance" >
   <i type="int" name="NPAR">     4</i>
   <i type="int" name="NSIM">     4</i>
   <i type="int" name="NBLK">    -1</i>
   <i type="logical" name="LPLANE"> T  </i>
   <i type="logical" name="LSCALAPACK"> T  </i>
   <i type="logical" name="LSCAAWARE"> F  </i>
   <i type="logical" name="LSCALU"> F  </i>
   <i type="logical" name="LASYNC"> F  </i>
   <i type="logical" name="LORBITALREAL"> F  </i>
  </separator>
  <separator name="miscellaneous" >
   <i type="int" name="IDIOT">     3</i>
   <i type="int" name="PHON_NSTRUCT">    -1</i>
   <i type="logical" name="LMUSIC"> F  </i>
   <v name="POMASS">     28.08500000    118.71000000</v>
   <v name="DARWINR">      0.00000000      0.00000000</v>
   <v name="DARWINV">      1.00000000      1.00000000</v>
   <i type="logical" name="LCORR"> T  </i>
  </separator>
  <i type="logical" name="GGA_COMPAT"> T  </i>
  <i type="logical" name="LBERRY"> F  </i>
  <i type="int" name="ICORELEVEL">     0</i>
  <i type="logical" name="LDAU"> F  </i>
  <i type="int" name="I_CONSTRAINED_M">     0</i>
  <separator name="electronic exchange-correlation" >
   <i type="string" name="GGA    ">PE</i>
   <i type="string" name="XC_C">1</i>
   <i type="int" name="VOSKOWN">     0</i>
   <i type="logical" name="LHFCALC"> F  </i>
   <i type="string" name="PRECFOCK"></i>
   <i type="logical" name="LSYMGRAD"> F  </i>
   <i type="logical" name="LHFONE"> F  </i>
   <i type="logical" name="LRHFCALC"> F  </i>
   <i type="logical" name="LTHOMAS"> F  </i>
   <i type="logical" name="LMODELHF"> F  </i>
   <i type="logical" name="LFOCKACE"> F  </i>
   <i name="ENCUT4O">     -1.00000000</i>
   <i type="int" name="EXXOEP">     0</i>
   <i type="int" name="FOURORBIT">     0</i>
   <i name="AEXX">      0.00000000</i>
   <i name="HFALPHA">      0.00000000</i>
   <i name="MCALPHA">      0.00000000</i>
   <i name="ALDAX">      1.00000000</i>
   <i name="AGGAX">      1.00000000</i>
   <i name="AMGGAX">      1.00000000</i>
   <i name="ALDAC">      1.00000000</i>
   <i name="AGGAC">      1.00000000</i>
   <i name="AMGGAC">      1.00000000</i>
   <i type="int" name="NKREDX">     1</i>
   <i type="int" name="NKREDY">     1</i>
   <i type="int" name="NKREDZ">     1</i>
   <i type="logical" name="SHIFTRED"> F  </i>
   <i type="logical" name="ODDONLY"> F  </i>
   <i type="logical" name="EVENONLY"> F  </i>
   <i type="int" name="LMAXFOCK">     0</i>
   <i type="int" name="NMAXFOCKAE">     0</i>
   <i type="logical" name="LFOCKAEDFT"> F  </i>
   <i name="HFSCREEN">      0.00000000</i>
   <i name="HFSCREENC">      0.00000000</i>
   <i type="int" name="NBANDSGWLOW">     0</i>
  </separator>
  <separator name="vdW DFT" >
   <i type="logical" name="LUSE_VDW"> F  </i>
   <i type="int" name="IVDW_NL">    -1</i>
   <i type="logical" name="LSPIN_VDW"> F  </i>
   <i name="ZAB_VDW">     -0.84910000</i>
   <i name="GAMMA_VDW">      1.39626340</i>
   <i name="ALPHA_VDW">      0.00000000</i>
   <i name="PARAM1">      0.12340000</i>
   <i name="PARAM2">      1.00000000</i>
   <i name="BPARAM">      6.30000000</i>
   <i name="CPARAM">      0.00930000</i>
  </separator>
  <separator name="model GW" >
   <i type="int" name="MODEL_GW">     0</i>
   <i name="MODEL_EPS0">     15.04923904</i>
   <i name="MODEL_ALPHA">      1.00000000</i>
  </separator>
  <separator name="linear response parameters" >
   <i type="logical" name="LEPSILON"> F  </i>
   <i type="logical" name="LRPA"> F  </i>
   <i type="logical" name="LNABLA"> F  </i>
   <i type="logical" name="LVEL"> F  </i>
   <i name="CSHIFT">      0.10000000</i>
   <i name="OMEGAMAX">     -1.00000000</i>
   <i name="DEG_THRESHOLD">      0.00200000</i>
   <i name="RTIME">     -0.10000000</i>
   <i name="WPLASMAI">      0.00000000</i>
   <v name="DFIELD">      0.00000000      0.00000000      0.00000000</v>
   <v name="WPLASMA">      0.00000000      0.00000000      0.00000000      0.00000000      0.00000000      0.00000000      0.00000000      0.00000000      0.00000000</v>
  </separator>
  <separator name="orbital magnetization" >
   <i type="logical" name="NUCIND"> F  </i>
   <v name="MAGPOS">      0.00000000      0.00000000      0.00000000</v>
   <i type="logical" name="LNICSALL"> T  </i>
   <i type="logical" name="ORBITALMAG"> F  </i>
   <i type="logical" name="LMAGBLOCH"> F  </i>
   <i type="logical" name="LCHIMAG"> F  </i>
   <i type="logical" name="LGAUGE"> T  </i>
   <i type="int" name="MAGATOM">     0</i>
   <v name="MAGDIPOL">      0.00000000      0.00000000      0.00000000</v>
   <v name="AVECCONST">      0.00000000      0.00000000      0.00000000</v>
  </separator>
  <separator name="response functions" >
   <i type="logical" name="LALL_IN_ONE"> F  </i>
   <i type="int" name="IALL_IN_ONE">    -1</i>
   <i type="int" name="NBANDS_WAVE">    -1</i>
   <i type="logical" name="LFINITE_TEMPERATURE"> F  </i>
   <i type="logical" name="LADDER"> F  </i>
   <i type="logical" name="LRPAFORCE"> F  </i>
   <i type="logical" name="LFXC"> F  </i>
   <i type="logical" name="LHARTREE"> T  </i>
   <i type="int" name="IBSE">     0</i>
   <v type="int" name="KPOINT">    -1     0     0     0</v>
   <i type="logical" name="LTCTC"> F  </i>
   <i type="logical" name="LTCTE"> F  </i>
   <i type="logical" name="LTETE"> F  </i>
   <i type="logical" name="LTRIPLET"> F  </i>
   <i type="logical" name="LFXCEPS"> F  </i>
   <i type="logical" name="LFXHEG"> F  </i>
   <i type="int" name="NATURALO">     2</i>
   <i type="logical" name="LHOLEGF"> F  </i>
   <i type="logical" name="L2ORDER"> F  </i>
   <i type="logical" name="LDMP1"> F  </i>
   <i type="logical" name="LMP2LT"> F  </i>
   <i type="logical" name="LSMP2LT"> F  </i>
   <i type="logical" name="LGWLF"> F  </i>
   <i name="ENCUTGW">     -1.60000002</i>
   <i name="ENCUTGWSOFT">     -1.60000002</i>
   <i name="ENCUTLF">     -1.00000000</i>
   <i type="logical" name="ESF_SPLINES"> F  </i>
   <i name="ESF_CONV">      0.01000000</i>
   <i type="int" name="ESF_NINTER">    15</i>
   <i type="int" name="LMAXMP2">    -1</i>
   <i name="SCISSOR">      0.00000000</i>
   <i type="int" name="NOMEGA">     0</i>
   <i type="int" name="NOMEGAR">     0</i>
   <i type="int" name="NBANDSGW">    -1</i>
   <i type="int" name="NBANDSO">    -1</i>
   <i type="int" name="NBANDSV">    -1</i>
   <i type="int" name="NELMGW">     1</i>
   <i type="int" name="NELMHF">     1</i>
   <i type="int" name="DIM">     3</i>
   <i type="int" name="IESPILON">     4</i>
   <i type="int" name="ANTIRES">     0</i>
   <i name="OMEGAMAX">    -30.00000000</i>
   <i name="OMEGAMIN">    -30.00000000</i>
   <i name="OMEGATL">   -200.00000000</i>
   <i type="int" name="OMEGAGRID">     0</i>
   <i name="CSHIFT">     -0.10000000</i>
   <i type="logical" name="LSELFENERGY"> F  </i>
   <i type="logical" name="LSPECTRAL"> F  </i>
   <i type="logical" name="LSPECTRALGW"> F  </i>
   <i type="logical" name="LSINGLES"> F  </i>
   <i type="logical" name="LFERMIGW"> F  </i>
   <i type="logical" name="ODDONLYGW"> F  </i>
   <i type="logical" name="EVENONLYGW"> F  </i>
   <i type="int" name="NKREDLFX">     1</i>
   <i type="int" name="NKREDLFY">     1</i>
   <i type="int" name="NKREDLFZ">     1</i>
   <i type="int" name="MAXMEM">  2800</i>
   <i type="int" name="TELESCOPE">     0</i>
   <i type="int" name="NTAUPAR">    -1</i>
   <i type="int" name="NOMEGAPAR">    -1</i>
   <i name="DAMP_NEWTON">      0.80000001</i>
   <i name="LAMBDA">      1.00000000</i>
  </separator>
  <separator name="External order field" >
   <i name="OFIELD_KAPPA">      0.00000000</i>
   <v name="OFIELD_K">      0.00000000      0.00000000      0.00000000</v>
   <i name="OFIELD_Q6_NEAR">      0.00000000</i>
   <i name="OFIELD_Q6_FAR">      0.00000000</i>
   <i name="OFIELD_A">      0.00000000</i>
  </separator>
  <separator name="optional k-points parameters" >
   <i type="int" name="KPOINTS_OPT_MODE">     1</i>
   <i type="logical" name="LKPOINTS_OPT"> F  </i>
  </separator>
 </parameters>
 <atominfo>
  <atoms>     216 </atoms>
  <types>       2 </types>
  <array name="atoms" >
   <dimension dim="1">ion</dimension>
   <field type="string">element</field>
   <field type="int">atomtype</field>
   <set>
    <rc><c>Si</c><c>   1</c></rc>
    <rc><c>Si</c><c>   1</c></rc>
    <rc><c>Si</c><c>   1</c></rc>
    <rc><c>Si</c><c>   1</c></rc>
    <rc><c>Si</c><c>   1</c></rc>
    <rc><c>Si</c><c>   1</c></rc>
    <rc><c>Si</c><c>   1</c></rc>
    <rc><c>Si</c><c>   1</c></rc>
    <rc><c>Si</c><c>   1</c></rc>
    <rc><c>Si</c><c>   1</c></rc>
    <rc><c>Si</c><c>   1</c></rc>
    <rc><c>Si</c><c>   1</c></rc>
    <rc><c>Si</c><c>   1</c></rc>
    <rc><c>Si</c><c>   1</c></rc>
    <rc><c>Si</c><c>   1</c></rc>
    <rc><c>Si</c><c>   1</c></rc>
    <rc><c>Si</c><c>   1</c></rc>
    <rc><c>Si</c><c>   1</c></rc>
    <rc><c>Si</c><c>   1</c></rc>
    <rc><c>Si</c><c>   1</c></rc>
    <rc><c>Si</c><c>   1</c></rc>
    <rc><c>Si</c><c>   1</c></rc>
    <rc><c>Si</c><c>   1</c></rc>
    <rc><c>Si</c><c>   1</c></rc>
    <rc><c>Si</c><c>   1</c></rc>
    <rc><c>Si</c><c>   1</c></rc>
    <rc><c>Si</c><c>   1</c></rc>
    <rc><c>Si</c><c>   1</c></rc>
    <rc><c>Si</c><c>   1</c></rc>
    <rc><c>Si</c><c>   1</c></rc>
    <rc><c>Si</c><c>   1</c></rc>
    <rc><c>Si</c><c>   1</c></rc>
    <rc><c>Si</c><c>   1</c></rc>
    <rc><c>Si</c><c>   1</c></rc>
    <rc><c>Si</c><c>   1</c></rc>
    <rc><c>Si</c><c>   1</c></rc>
    <rc><c>Si</c><c>   1</c></rc>
    <rc><c>Si</c><c>   1</c></rc>
    <rc><c>Si</c><c>   1</c></rc>
    <rc><c>Si</c><c>   1</c></rc>
    <rc><c>Si</c><c>   1</c></rc>
    <rc><c>Si</c><c>   1</c></rc>
    <rc><c>Si</c><c>   1</c></rc>
    <rc><c>Si</c><c>   1</c></rc>
    <rc><c>Si</c><c>   1</c></rc>
    <rc><c>Si</c><c>   1</c></rc>
    <rc><c>Si</c><c>   1</c></rc>
    <rc><c>Si</c><c>   1</c></rc>
    <rc><c>Si</c><c>   1</c></rc>
    <rc><c>Si</c><c>   1</c></rc>
    <rc><c>Si</c><c>   1</c></rc>
    <rc><c>Si</c><c>   1</c></rc>
    <rc><c>Si</c><c>   1</c></rc>
    <rc><c>Si</c><c>   1</c></rc>
    <rc><c>Si</c><c>   1</c></rc>
    <rc><c>Si</c><c>   1</c></rc>
    <rc><c>Si</c><c>   1</c></rc>
    <rc><c>Si</c><c>   1</c></rc>
    <rc><c>Si</c><c>   1</c></rc>
    <rc><c>Si</c><c>   1</c></rc>
    <rc><c>Si</c><c>   1</c></rc>
    <rc><c>Si</c><c>   1</c></rc>
    <rc><c>Si</c><c>   1</c></rc>
    <rc><c>Si</c><c>   1</c></rc>
    <rc><c>Si</c><c>   1</c></rc>
    <rc><c>Si</c><c>   1</c></rc>
    <rc><c>Si</c><c>   1</c></rc>
    <rc><c>Si</c><c>   1</c></rc>
    <rc><c>Si</c><c>   1</c></rc>
    <rc><c>Si</c><c>   1</c></rc>
    <rc><c>Si</c><c>   1</c></rc>
    <rc><c>Si</c><c>   1</c></rc>
    <rc><c>Si</c><c>   1</c></rc>
    <rc><c>Si</c><c>   1</c></rc>
    <rc><c>Si</c><c>   1</c></rc>
    <rc><c>Si</c><c>   1</c></rc>
    <rc><c>Si</c><c>   1</c></rc>
    <rc><c>Si</c><c>   1</c></rc>
    <rc><c>Si</c><c>   1</c></rc>
    <rc><c>Si</c><c>   1</c></rc>
    <rc><c>Si</c><c>   1</c></rc>
    <rc><c>Si</c><c>   1</c></rc>
    <rc><c>Si</c><c>   1</c></rc>
    <rc><c>Si</c><c>   1</c></rc>
    <rc><c>Si</c><c>   1</c></rc>
    <rc><c>Si</c><c>   1</c></rc>
    <rc><c>Si</c><c>   1</c></rc>
    <rc><c>Si</c><c>   1</c></rc>
    <rc><c>Si</c><c>   1</c></rc>
    <rc><c>Si</c><c>   1</c></rc>
    <rc><c>Si</c><c>   1</c></rc>
    <rc><c>Si</c><c>   1</c></rc>
    <rc><c>Si</c><c>   1</c></rc>
    <rc><c>Si</c><c>   1</c></rc>
    <rc><c>Si</c><c>   1</c></rc>
    <rc><c>Si</c><c>   1</c></rc>
    <rc><c>Si</c><c>   1</c></rc>
    <rc><c>Si</c><c>   1</c></rc>
    <rc><c>Si</c><c>   1</c></rc>
    <rc><c>Si</c><c>   1</c></rc>
    <rc><c>Si</c><c>   1</c></rc>
    <rc><c>Si</c><c>   1</c></rc>
    <rc><c>Si</c><c>   1</c></rc>
    <rc><c>Si</c><c>   1</c></rc>
    <rc><c>Si</c><c>   1</c></rc>
    <rc><c>Si</c><c>   1</c></rc>
    <rc><c>Si</c><c>   1</c></rc>
    <rc><c>Si</c><c>   1</c></rc>
    <rc><c>Si</c><c>   1</c></rc>
    <rc><c>Si</c><c>   1</c></rc>
    <rc><c>Si</c><c>   1</c></rc>
    <rc><c>Si</c><c>   1</c></rc>
    <rc><c>Si</c><c>   1</c></rc>
    <rc><c>Si</c><c>   1</c></rc>
    <rc><c>Si</c><c>   1</c></rc>
    <rc><c>Si</c><c>   1</c></rc>
    <rc><c>Si</c><c>   1</c></rc>
    <rc><c>Si</c><c>   1</c></rc>
    <rc><c>Si</c><c>   1</c></rc>
    <rc><c>Si</c><c>   1</c></rc>
    <rc><c>Si</c><c>   1</c></rc>
    <rc><c>Si</c><c>   1</c></rc>
    <rc><c>Si</c><c>   1</c></rc>
    <rc><c>Si</c><c>   1</c></rc>
    <rc><c>Si</c><c>   1</c></rc>
    <rc><c>Si</c><c>   1</c></rc>
    <rc><c>Si</c><c>   1</c></rc>
    <rc><c>Si</c><c>   1</c></rc>
    <rc><c>Si</c><c>   1</c></rc>
    <rc><c>Si</c><c>   1</c></rc>
    <rc><c>Si</c><c>   1</c></rc>
    <rc><c>Si</c><c>   1</c></rc>
    <rc><c>Si</c><c>   1</c></rc>
    <rc><c>Si</c><c>   1</c></rc>
    <rc><c>Si</c><c>   1</c></rc>
    <rc><c>Si</c><c>   1</c></rc>
    <rc><c>Si</c><c>   1</c></rc>
    <rc><c>Si</c><c>   1</c></rc>
    <rc><c>Si</c><c>   1</c></rc>
    <rc><c>Si</c><c>   1</c></rc>
    <rc><c>Si</c><c>   1</c></rc>
    <rc><c>Si</c><c>   1</c></rc>
    <rc><c>Si</c><c>   1</c></rc>
    <rc><c>Si</c><c>   1</c></rc>
    <rc><c>Sn</c><c>   2</c></rc>
    <rc><c>Sn</c><c>   2</c></rc>
    <rc><c>Sn</c><c>   2</c></rc>
    <rc><c>Sn</c><c>   2</c></rc>
    <rc><c>Sn</c><c>   2</c></rc>
    <rc><c>Sn</c><c>   2</c></rc>
    <rc><c>Sn</c><c>   2</c></rc>
    <rc><c>Sn</c><c>   2</c></rc>
    <rc><c>Sn</c><c>   2</c></rc>
    <rc><c>Sn</c><c>   2</c></rc>
    <rc><c>Sn</c><c>   2</c></rc>
    <rc><c>Sn</c><c>   2</c></rc>
    <rc><c>Sn</c><c>   2</c></rc>
    <rc><c>Sn</c><c>   2</c></rc>
    <rc><c>Sn</c><c>   2</c></rc>
    <rc><c>Sn</c><c>   2</c></rc>
    <rc><c>Sn</c><c>   2</c></rc>
    <rc><c>Sn</c><c>   2</c></rc>
    <rc><c>Sn</c><c>   2</c></rc>
    <rc><c>Sn</c><c>   2</c></rc>
    <rc><c>Sn</c><c>   2</c></rc>
    <rc><c>Sn</c><c>   2</c></rc>
    <rc><c>Sn</c><c>   2</c></rc>
    <rc><c>Sn</c><c>   2</c></rc>
    <rc><c>Sn</c><c>   2</c></rc>
    <rc><c>Sn</c><c>   2</c></rc>
    <rc><c>Sn</c><c>   2</c></rc>
    <rc><c>Sn</c><c>   2</c></rc>
    <rc><c>Sn</c><c>   2</c></rc>
    <rc><c>Sn</c><c>   2</c></rc>
    <rc><c>Sn</c><c>   2</c></rc>
    <rc><c>Sn</c><c>   2</c></rc>
    <rc><c>Sn</c><c>   2</c></rc>
    <rc><c>Sn</c><c>   2</c></rc>
    <rc><c>Sn</c><c>   2</c></rc>
    <rc><c>Sn</c><c>   2</c></rc>
    <rc><c>Sn</c><c>   2</c></rc>
    <rc><c>Sn</c><c>   2</c></rc>
    <rc><c>Sn</c><c>   2</c></rc>
    <rc><c>Sn</c><c>   2</c></rc>
    <rc><c>Sn</c><c>   2</c></rc>
    <rc><c>Sn</c><c>   2</c></rc>
    <rc><c>Sn</c><c>   2</c></rc>
    <rc><c>Sn</c><c>   2</c></rc>
    <rc><c>Sn</c><c>   2</c></rc>
    <rc><c>Sn</c><c>   2</c></rc>
    <rc><c>Sn</c><c>   2</c></rc>
    <rc><c>Sn</c><c>   2</c></rc>
    <rc><c>Sn</c><c>   2</c></rc>
    <rc><c>Sn</c><c>   2</c></rc>
    <rc><c>Sn</c><c>   2</c></rc>
    <rc><c>Sn</c><c>   2</c></rc>
    <rc><c>Sn</c><c>   2</c></rc>
    <rc><c>Sn</c><c>   2</c></rc>
    <rc><c>Sn</c><c>   2</c></rc>
    <rc><c>Sn</c><c>   2</c></rc>
    <rc><c>Sn</c><c>   2</c></rc>
    <rc><c>Sn</c><c>   2</c></rc>
    <rc><c>Sn</c><c>   2</c></rc>
    <rc><c>Sn</c><c>   2</c></rc>
    <rc><c>Sn</c><c>   2</c></rc>
    <rc><c>Sn</c><c>   2</c></rc>
    <rc><c>Sn</c><c>   2</c></rc>
    <rc><c>Sn</c><c>   2</c></rc>
    <rc><c>Sn</c><c>   2</c></rc>
    <rc><c>Sn</c><c>   2</c></rc>
    <rc><c>Sn</c><c>   2</c></rc>
    <rc><c>Sn</c><c>   2</c></rc>
    <rc><c>Sn</c><c>   2</c></rc>
    <rc><c>Sn</c><c>   2</c></rc>
    <rc><c>Sn</c><c>   2</c></rc>
    <rc><c>Sn</c><c>   2</c></rc>
   </set>
  </array>
  <array name="atomtypes" >
   <dimension dim="1">type</dimension>
   <field type="int">atomspertype</field>
   <field type="string">element</field>
   <field>mass</field>
   <field>valence</field>
   <field type="string">pseudopotential</field>
   <set>
    <rc><c> 144</c><c>Si</c><c>     28.08500000</c><c>      4.00000000</c><c>  PAW_PBE Si 05Jan2001                  </c></rc>
    <rc><c>  72</c><c>Sn</c><c>    118.71000000</c><c>      4.00000000</c><c>  PAW_PBE Sn 08Apr2002                  </c></rc>
   </set>
  </array>
 </atominfo>
 <structure name="initialpos" >
  <crystal>
   <varray name="basis" >
    <v>      13.30317974       0.00000000       0.00000000 </v>
    <v>       0.00000000      18.81353569       0.00000000 </v>
    <v>       0.00000000       0.00000000      21.64667320 </v>
   </varray>
   <i name="volume">   5417.72605401 </i>
   <varray name="rec_basis" >
    <v>       0.07517000       0.00000000       0.00000000 </v>
    <v>       0.00000000       0.05315322       0.00000000 </v>
    <v>       0.00000000       0.00000000       0.04619648 </v>
   </varray>
  </crystal>
  <varray name="positions" >
   <v>       0.97851729       0.49999997       0.00000000 </v>
   <v>       0.72851718       0.49999994       0.08870413 </v>
   <v>       0.47851712       0.49999988       0.17740823 </v>
   <v>       0.22851706       0.49999979       0.26611230 </v>
   <v>       0.97851694       0.49999973       0.35481641 </v>
   <v>       0.72851682       0.49999970       0.44352058 </v>
   <v>       0.31185061       0.66666669       0.00000000 </v>
   <v>       0.06185051       0.66666663       0.08870412 </v>
   <v>       0.81185043       0.66666657       0.17740822 </v>
   <v>       0.56185037       0.66666651       0.26611236 </v>
   <v>       0.31185019       0.66666645       0.35481647 </v>
   <v>       0.06185007       0.66666639       0.44352058 </v>
   <v>       0.64518398       0.83333343       0.00000000 </v>
   <v>       0.39518389       0.83333337       0.08870413 </v>
   <v>       0.14518374       0.83333331       0.17740823 </v>
   <v>       0.89518368       0.83333319       0.26611230 </v>
   <v>       0.64518356       0.83333313       0.35481644 </v>
   <v>       0.39518344       0.83333307       0.44352055 </v>
   <v>       0.97851729       0.00000000       0.00000001 </v>
   <v>       0.72851718       0.99999994       0.08870412 </v>
   <v>       0.47851712       0.99999988       0.17740822 </v>
   <v>       0.22851700       0.99999982       0.26611230 </v>
   <v>       0.97851694       0.99999970       0.35481644 </v>
   <v>       0.72851682       0.99999970       0.44352055 </v>
   <v>       0.31185061       0.16666666       0.00000001 </v>
   <v>       0.06185054       0.16666661       0.08870412 </v>
   <v>       0.81185043       0.16666654       0.17740822 </v>
   <v>       0.56185043       0.16666648       0.26611236 </v>
   <v>       0.31185031       0.16666642       0.35481644 </v>
   <v>       0.06185019       0.16666634       0.44352049 </v>
   <v>       0.64518398       0.33333334       0.00000001 </v>
   <v>       0.39518383       0.33333325       0.08870412 </v>
   <v>       0.14518380       0.33333319       0.17740822 </v>
   <v>       0.89518374       0.33333316       0.26611236 </v>
   <v>       0.64518356       0.33333307       0.35481644 </v>
   <v>       0.39518350       0.33333299       0.44352049 </v>
   <v>       0.14518397       0.83333337       0.00000001 </v>
   <v>       0.89518380       0.83333325       0.08870411 </v>
   <v>       0.64518380       0.83333319       0.17740823 </v>
   <v>       0.39518374       0.83333313       0.26611230 </v>
   <v>       0.14518356       0.83333313       0.35481647 </v>
   <v>       0.89518344       0.83333307       0.44352055 </v>
   <v>       0.14518394       0.33333331       0.00000001 </v>
   <v>       0.89518386       0.33333328       0.08870412 </v>
   <v>       0.64518380       0.33333319       0.17740822 </v>
   <v>       0.39518374       0.33333313       0.26611230 </v>
   <v>       0.14518362       0.33333307       0.35481644 </v>
   <v>       0.89518344       0.33333299       0.44352049 </v>
   <v>       0.47851732       0.50000000       0.00000001 </v>
   <v>       0.22851719       0.49999991       0.08870412 </v>
   <v>       0.97851712       0.49999988       0.17740822 </v>
   <v>       0.72851706       0.49999982       0.26611230 </v>
   <v>       0.47851694       0.49999973       0.35481644 </v>
   <v>       0.22851682       0.49999967       0.44352049 </v>
   <v>       0.81185067       0.66666675       0.00000001 </v>
   <v>       0.56185061       0.66666669       0.08870411 </v>
   <v>       0.31185049       0.66666657       0.17740823 </v>
   <v>       0.06185040       0.66666651       0.26611230 </v>
   <v>       0.81185025       0.66666645       0.35481644 </v>
   <v>       0.56185013       0.66666639       0.44352058 </v>
   <v>       0.47851729       0.00000000       0.00000001 </v>
   <v>       0.22851721       0.99999994       0.08870412 </v>
   <v>       0.97851712       0.99999988       0.17740822 </v>
   <v>       0.72851706       0.99999982       0.26611230 </v>
   <v>       0.47851694       0.99999976       0.35481644 </v>
   <v>       0.22851682       0.99999964       0.44352055 </v>
   <v>       0.81185061       0.16666669       0.00000001 </v>
   <v>       0.56185049       0.16666660       0.08870412 </v>
   <v>       0.31185046       0.16666654       0.17740822 </v>
   <v>       0.06185040       0.16666648       0.26611230 </v>
   <v>       0.81185025       0.16666640       0.35481644 </v>
   <v>       0.56185019       0.16666634       0.44352055 </v>
   <v>       0.14518398       0.70833337       0.00000000 </v>
   <v>       0.89518386       0.70833331       0.08870412 </v>
   <v>       0.64518380       0.70833325       0.17740822 </v>
   <v>       0.39518368       0.70833319       0.26611236 </v>
   <v>       0.14518356       0.70833313       0.35481647 </v>
   <v>       0.89518344       0.70833307       0.44352058 </v>
   <v>       0.47851729       0.87500012       0.00000000 </v>
   <v>       0.22851716       0.87500000       0.08870413 </v>
   <v>       0.97851712       0.87500000       0.17740823 </v>
   <v>       0.72851706       0.87499988       0.26611230 </v>
   <v>       0.47851688       0.87499982       0.35481644 </v>
   <v>       0.22851682       0.87499976       0.44352055 </v>
   <v>       0.14518395       0.20833334       0.00000001 </v>
   <v>       0.89518386       0.20833328       0.08870412 </v>
   <v>       0.64518380       0.20833322       0.17740823 </v>
   <v>       0.39518368       0.20833315       0.26611230 </v>
   <v>       0.14518356       0.20833307       0.35481644 </v>
   <v>       0.89518344       0.20833303       0.44352055 </v>
   <v>       0.47851732       0.37500000       0.00000001 </v>
   <v>       0.22851721       0.37499994       0.08870412 </v>
   <v>       0.97851712       0.37499988       0.17740822 </v>
   <v>       0.72851706       0.37499982       0.26611230 </v>
   <v>       0.47851694       0.37499973       0.35481644 </v>
   <v>       0.22851682       0.37499970       0.44352055 </v>
   <v>       0.81185067       0.54166669       0.00000001 </v>
   <v>       0.56185055       0.54166663       0.08870412 </v>
   <v>       0.31185046       0.54166657       0.17740823 </v>
   <v>       0.06185041       0.54166651       0.26611230 </v>
   <v>       0.81185031       0.54166645       0.35481644 </v>
   <v>       0.56185019       0.54166639       0.44352055 </v>
   <v>       0.81185067       0.04166668       0.00000001 </v>
   <v>       0.56185055       0.04166659       0.08870412 </v>
   <v>       0.31185049       0.04166653       0.17740822 </v>
   <v>       0.06185041       0.04166647       0.26611236 </v>
   <v>       0.81185031       0.04166639       0.35481644 </v>
   <v>       0.56185019       0.04166632       0.44352055 </v>
   <v>       0.97851729       0.87500006       0.00000001 </v>
   <v>       0.72851718       0.87500000       0.08870411 </v>
   <v>       0.47851712       0.87499988       0.17740825 </v>
   <v>       0.22851706       0.87499982       0.26611230 </v>
   <v>       0.97851694       0.87499982       0.35481647 </v>
   <v>       0.72851682       0.87499970       0.44352055 </v>
   <v>       0.97851729       0.37500000       0.00000001 </v>
   <v>       0.72851718       0.37499994       0.08870412 </v>
   <v>       0.47851712       0.37499991       0.17740823 </v>
   <v>       0.22851706       0.37499979       0.26611230 </v>
   <v>       0.97851694       0.37499976       0.35481647 </v>
   <v>       0.72851682       0.37499973       0.44352058 </v>
   <v>       0.31185067       0.54166669       0.00000001 </v>
   <v>       0.06185053       0.54166663       0.08870412 </v>
   <v>       0.81185043       0.54166657       0.17740823 </v>
   <v>       0.56185043       0.54166651       0.26611230 </v>
   <v>       0.31185025       0.54166645       0.35481647 </v>
   <v>       0.06185007       0.54166639       0.44352058 </v>
   <v>       0.64518398       0.70833331       0.00000001 </v>
   <v>       0.39518386       0.70833325       0.08870412 </v>
   <v>       0.14518382       0.70833319       0.17740822 </v>
   <v>       0.89518368       0.70833313       0.26611236 </v>
   <v>       0.64518356       0.70833307       0.35481644 </v>
   <v>       0.39518350       0.70833296       0.44352055 </v>
   <v>       0.31185067       0.04166666       0.00000001 </v>
   <v>       0.06185054       0.04166659       0.08870412 </v>
   <v>       0.81185049       0.04166652       0.17740822 </v>
   <v>       0.56185043       0.04166645       0.26611230 </v>
   <v>       0.31185031       0.04166641       0.35481644 </v>
   <v>       0.06185013       0.04166633       0.44352055 </v>
   <v>       0.64518404       0.20833334       0.00000001 </v>
   <v>       0.39518389       0.20833325       0.08870412 </v>
   <v>       0.14518383       0.20833319       0.17740822 </v>
   <v>       0.89518374       0.20833313       0.26611230 </v>
   <v>       0.64518362       0.20833307       0.35481644 </v>
   <v>       0.39518350       0.20833299       0.44352055 </v>
   <v>       0.90164352       0.77361858       0.53439891 </v>
   <v>       0.65164352       0.77361858       0.68428803 </v>
   <v>       0.40164363       0.77361858       0.83417702 </v>
   <v>       0.90164352       0.44028521       0.53439891 </v>
   <v>       0.65164352       0.44028521       0.68428803 </v>
   <v>       0.40164363       0.44028521       0.83417702 </v>
   <v>       0.90164352       0.10695187       0.53439891 </v>
   <v>       0.65164352       0.10695187       0.68428803 </v>
   <v>       0.40164363       0.10695187       0.83417702 </v>
   <v>       0.40164363       0.77361858       0.53439891 </v>
   <v>       0.15164363       0.77361858       0.68428803 </v>
   <v>       0.90164363       0.77361858       0.83417702 </v>
   <v>       0.40164363       0.44028521       0.53439891 </v>
   <v>       0.15164363       0.44028521       0.68428803 </v>
   <v>       0.90164363       0.44028521       0.83417702 </v>
   <v>       0.40164363       0.10695187       0.53439891 </v>
   <v>       0.15164363       0.10695187       0.68428803 </v>
   <v>       0.90164363       0.10695187       0.83417702 </v>
   <v>       0.02664363       0.02361858       0.60934353 </v>
   <v>       0.77664363       0.02361858       0.75923264 </v>
   <v>       0.52664352       0.02361858       0.90912175 </v>
   <v>       0.02664363       0.69028532       0.60934353 </v>
   <v>       0.77664363       0.69028532       0.75923264 </v>
   <v>       0.52664352       0.69028532       0.90912175 </v>
   <v>       0.02664363       0.35695186       0.60934353 </v>
   <v>       0.77664363       0.35695186       0.75923264 </v>
   <v>       0.52664352       0.35695186       0.90912175 </v>
   <v>       0.52664352       0.02361858       0.60934353 </v>
   <v>       0.27664363       0.02361858       0.75923264 </v>
   <v>       0.02664363       0.02361858       0.90912175 </v>
   <v>       0.52664352       0.69028532       0.60934353 </v>
   <v>       0.27664363       0.69028532       0.75923264 </v>
   <v>       0.02664363       0.69028532       0.90912175 </v>
   <v>       0.52664352       0.35695186       0.60934353 </v>
   <v>       0.27664363       0.35695186       0.75923264 </v>
   <v>       0.02664363       0.35695186       0.90912175 </v>
   <v>       0.15164363       0.94028521       0.53439891 </v>
   <v>       0.90164352       0.94028521       0.68428803 </v>
   <v>       0.65164363       0.94028521       0.83417702 </v>
   <v>       0.15164363       0.60695189       0.53439891 </v>
   <v>       0.90164352       0.60695189       0.68428803 </v>
   <v>       0.65164363       0.60695189       0.83417702 </v>
   <v>       0.15164363       0.27361855       0.53439891 </v>
   <v>       0.90164352       0.27361855       0.68428803 </v>
   <v>       0.65164363       0.27361855       0.83417702 </v>
   <v>       0.65164352       0.94028521       0.53439891 </v>
   <v>       0.40164363       0.94028521       0.68428803 </v>
   <v>       0.15164363       0.94028521       0.83417702 </v>
   <v>       0.65164352       0.60695189       0.53439891 </v>
   <v>       0.40164363       0.60695189       0.68428803 </v>
   <v>       0.15164363       0.60695189       0.83417702 </v>
   <v>       0.65164352       0.27361855       0.53439891 </v>
   <v>       0.40164363       0.27361855       0.68428803 </v>
   <v>       0.15164363       0.27361855       0.83417702 </v>
   <v>       0.27664363       0.85695195       0.60934353 </v>
   <v>       0.02664363       0.85695195       0.75923264 </v>
   <v>       0.77664363       0.85695195       0.90912175 </v>
   <v>       0.27664363       0.52361858       0.60934353 </v>
   <v>       0.02664363       0.52361858       0.75923264 </v>
   <v>       0.77664363       0.52361858       0.90912175 </v>
   <v>       0.27664363       0.19028521       0.60934353 </v>
   <v>       0.02664363       0.19028521       0.75923264 </v>
   <v>       0.77664363       0.19028521       0.90912175 </v>
   <v>       0.77664352       0.85695195       0.60934353 </v>
   <v>       0.52664363       0.85695195       0.75923264 </v>
   <v>       0.27664352       0.85695195       0.90912175 </v>
   <v>       0.77664352       0.52361858       0.60934353 </v>
   <v>       0.52664363       0.52361858       0.75923264 </v>
   <v>       0.27664352       0.52361858       0.90912175 </v>
   <v>       0.77664352       0.19028521       0.60934353 </v>
   <v>       0.52664363       0.19028521       0.75923264 </v>
   <v>       0.27664352       0.19028521       0.90912175 </v>
  </varray>
 </structure>
 <calculation>
  <scstep>
   <time name="dav">   58.63   59.25</time>
   <time name="total">   61.30   61.94</time>
   <energy>
    <i name="alphaZ">    552.35164981 </i>
    <i name="ewald"> -14585.91906098 </i>
    <i name="hartreedc">  -9443.39143283 </i>
    <i name="XCdc">  -9862.31596731 </i>
    <i name="pawpsdc">  26327.73043894 </i>
    <i name="pawaedc"> -14876.82497380 </i>
    <i name="eentropy">     -0.00126947 </i>
    <i name="bandstr">   3947.53090829 </i>
    <i name="atom">  21615.78458279 </i>
    <i name="e_fr_energy">   3674.94487543 </i>
    <i name="e_wo_entrp">   3674.94614491 </i>
    <i name="e_0_energy">   3674.94551017 </i>
   </energy>
  </scstep>
  <scstep>
   <time name="dav">   66.17   66.76</time>
   <time name="total">   66.18   66.77</time>
   <energy>
    <i name="e_fr_energy">   -595.81899138 </i>
    <i name="e_wo_entrp">   -595.81623656 </i>
    <i name="e_0_energy">   -595.81761397 </i>
   </energy>
  </scstep>
  <scstep>
   <time name="dav">   70.05   70.66</time>
   <time name="total">   70.05   70.66</time>
   <energy>
    <i name="e_fr_energy">  -1006.73587947 </i>
    <i name="e_wo_entrp">  -1006.73396767 </i>
    <i name="e_0_energy">  -1006.73492357 </i>
   </energy>
  </scstep>
  <scstep>
   <time name="dav">   69.12   69.72</time>
   <time name="total">   69.12   69.72</time>
   <energy>
    <i name="e_fr_energy">  -1023.29893630 </i>
    <i name="e_wo_entrp">  -1023.29614205 </i>
    <i name="e_0_energy">  -1023.29753918 </i>
   </energy>
  </scstep>
  <scstep>
   <time name="dav">   73.09   73.73</time>
   <time name="total">   76.48   77.15</time>
   <energy>
    <i name="e_fr_energy">  -1024.01639875 </i>
    <i name="e_wo_entrp">  -1024.01351116 </i>
    <i name="e_0_energy">  -1024.01495496 </i>
   </energy>
  </scstep>
  <scstep>
   <time name="dav">   80.91   81.61</time>
   <time name="total">   86.93   87.68</time>
   <energy>
    <i name="e_fr_energy">   -997.64952733 </i>
    <i name="e_wo_entrp">   -997.64598300 </i>
    <i name="e_0_energy">   -997.64775517 </i>
   </energy>
  </scstep>
  <scstep>
   <time name="dav">   72.99   73.62</time>
   <time name="total">   79.00   79.67</time>
   <energy>
    <i name="e_fr_energy">   -996.82075712 </i>
    <i name="e_wo_entrp">   -996.81711820 </i>
    <i name="e_0_energy">   -996.81893766 </i>
   </energy>
  </scstep>
  <scstep>
   <time name="dav">   65.97   66.54</time>
   <time name="total">   71.99   72.61</time>
   <energy>
    <i name="e_fr_energy">   -995.15587022 </i>
    <i name="e_wo_entrp">   -995.15543520 </i>
    <i name="e_0_energy">   -995.15565271 </i>
   </energy>
  </scstep>
  <scstep>
   <time name="dav">   71.10   71.71</time>
   <time name="total">   77.13   77.80</time>
   <energy>
    <i name="e_fr_energy">   -995.11571898 </i>
    <i name="e_wo_entrp">   -995.11537225 </i>
    <i name="e_0_energy">   -995.11554562 </i>
   </energy>
  </scstep>
  <scstep>
   <time name="dav">   66.59   67.17</time>
   <time name="total">   72.63   73.26</time>
   <energy>
    <i name="e_fr_energy">   -995.08408783 </i>
    <i name="e_wo_entrp">   -995.08368554 </i>
    <i name="e_0_energy">   -995.08388669 </i>
   </energy>
  </scstep>
  <scstep>
   <time name="dav">   64.07   64.62</time>
   <time name="total">   70.10   70.69</time>
   <energy>
    <i name="e_fr_energy">   -995.08532232 </i>
    <i name="e_wo_entrp">   -995.08484435 </i>
    <i name="e_0_energy">   -995.08508334 </i>
   </energy>
  </scstep>
  <scstep>
   <time name="dav">   67.36   67.93</time>
   <time name="total">   73.38   74.00</time>
   <energy>
    <i name="e_fr_energy">   -995.08672981 </i>
    <i name="e_wo_entrp">   -995.08626232 </i>
    <i name="e_0_energy">   -995.08649606 </i>
   </energy>
  </scstep>
  <scstep>
   <time name="dav">   66.39   66.98</time>
   <time name="total">   72.39   73.04</time>
   <energy>
    <i name="e_fr_energy">   -995.08669854 </i>
    <i name="e_wo_entrp">   -995.08624653 </i>
    <i name="e_0_energy">   -995.08647254 </i>
   </energy>
  </scstep>
  <scstep>
   <time name="dav">   65.23   65.81</time>
   <time name="total">   71.24   71.87</time>
   <energy>
    <i name="e_fr_energy">   -995.08701097 </i>
    <i name="e_wo_entrp">   -995.08652558 </i>
    <i name="e_0_energy">   -995.08676828 </i>
   </energy>
  </scstep>
  <scstep>
   <time name="dav">   64.98   65.54</time>
   <time name="total">   71.00   71.61</time>
   <energy>
    <i name="e_fr_energy">   -995.08701233 </i>
    <i name="e_wo_entrp">   -995.08653647 </i>
    <i name="e_0_energy">   -995.08677440 </i>
   </energy>
  </scstep>
  <scstep>
   <time name="dav">   69.07   69.67</time>
   <time name="total">   75.12   75.76</time>
   <energy>
    <i name="e_fr_energy">   -995.08700762 </i>
    <i name="e_wo_entrp">   -995.08653818 </i>
    <i name="e_0_energy">   -995.08677290 </i>
   </energy>
  </scstep>
  <scstep>
   <time name="dav">   67.14   67.72</time>
   <time name="total">   73.20   73.82</time>
   <energy>
    <i name="e_fr_energy">   -995.08701616 </i>
    <i name="e_wo_entrp">   -995.08654362 </i>
    <i name="e_0_energy">   -995.08677989 </i>
   </energy>
  </scstep>
  <scstep>
   <time name="dav">   65.55   66.11</time>
   <time name="total">   71.61   72.22</time>
   <energy>
    <i name="e_fr_energy">   -995.08701645 </i>
    <i name="e_wo_entrp">   -995.08654205 </i>
    <i name="e_0_energy">   -995.08677925 </i>
   </energy>
  </scstep>
  <scstep>
   <time name="dav">   65.38   65.94</time>
   <time name="total">   71.45   72.06</time>
   <energy>
    <i name="e_fr_energy">   -995.08701682 </i>
    <i name="e_wo_entrp">   -995.08654369 </i>
    <i name="e_0_energy">   -995.08678025 </i>
   </energy>
  </scstep>
  <scstep>
   <time name="dav">   67.02   67.61</time>
   <time name="total">   73.06   73.70</time>
   <energy>
    <i name="e_fr_energy">   -995.08701691 </i>
    <i name="e_wo_entrp">   -995.08654371 </i>
    <i name="e_0_energy">   -995.08678031 </i>
   </energy>
  </scstep>
  <scstep>
   <time name="dav">   66.43   67.01</time>
   <time name="total">   72.48   73.11</time>
   <energy>
    <i name="e_fr_energy">   -995.08701806 </i>
    <i name="e_wo_entrp">   -995.08654465 </i>
    <i name="e_0_energy">   -995.08678135 </i>
   </energy>
  </scstep>
  <scstep>
   <time name="dav">   50.05   50.49</time>
   <time name="total">   56.10   56.59</time>
   <energy>
    <i name="e_fr_energy">   -995.08701855 </i>
    <i name="e_wo_entrp">   -995.08654517 </i>
    <i name="e_0_energy">   -995.08678186 </i>
   </energy>
  </scstep>
  <scstep>
   <time name="dav">   55.21   55.69</time>
   <time name="total">   61.26   61.79</time>
   <energy>
    <i name="e_fr_energy">   -995.08701924 </i>
    <i name="e_wo_entrp">   -995.08654572 </i>
    <i name="e_0_energy">   -995.08678248 </i>
   </energy>
  </scstep>
  <scstep>
   <time name="dav">   47.54   47.96</time>
   <time name="total">   53.59   54.06</time>
   <energy>
    <i name="e_fr_energy">   -995.08701948 </i>
    <i name="e_wo_entrp">   -995.08654579 </i>
    <i name="e_0_energy">   -995.08678264 </i>
   </energy>
  </scstep>
  <scstep>
   <time name="dav">   41.91   42.27</time>
   <time name="total">   44.54   44.92</time>
   <energy>
    <i name="alphaZ">    552.35164981 </i>
    <i name="ewald"> -14585.91906098 </i>
    <i name="hartreedc">  -9908.15448482 </i>
    <i name="XCdc">  -9793.72565400 </i>
    <i name="pawpsdc">  82710.92791455 </i>
    <i name="pawaedc"> -71303.51011247 </i>
    <i name="eentropy">     -0.00047372 </i>
    <i name="bandstr">   -282.84138055 </i>
    <i name="atom">  21615.78458279 </i>
    <i name="e_fr_energy">   -995.08701939 </i>
    <i name="e_wo_entrp">   -995.08654567 </i>
    <i name="e_0_energy">   -995.08678253 </i>
   </energy>
  </scstep>
  <structure>
   <crystal>
    <varray name="basis" >
     <v>      13.30317974       0.00000000       0.00000000 </v>
     <v>       0.00000000      18.81353569       0.00000000 </v>
     <v>       0.00000000       0.00000000      21.64667320 </v>
    </varray>
    <i name="volume">   5417.72605401 </i>
    <varray name="rec_basis" >
     <v>       0.07517000       0.00000000       0.00000000 </v>
     <v>       0.00000000       0.05315322       0.00000000 </v>
     <v>       0.00000000       0.00000000       0.04619648 </v>
    </varray>
   </crystal>
   <varray name="positions" >
    <v>       0.97851729       0.49999997       0.00000000 </v>
    <v>       0.72851718       0.49999994       0.08870413 </v>
    <v>       0.47851712       0.49999988       0.17740823 </v>
    <v>       0.22851706       0.49999979       0.26611230 </v>
    <v>       0.97851694       0.49999973       0.35481641 </v>
    <v>       0.72851682       0.49999970       0.44352058 </v>
    <v>       0.31185061       0.66666669       0.00000000 </v>
    <v>       0.06185051       0.66666663       0.08870412 </v>
    <v>       0.81185043       0.66666657       0.17740822 </v>
    <v>       0.56185037       0.66666651       0.26611236 </v>
    <v>       0.31185019       0.66666645       0.35481647 </v>
    <v>       0.06185007       0.66666639       0.44352058 </v>
    <v>       0.64518398       0.83333343       0.00000000 </v>
    <v>       0.39518389       0.83333337       0.08870413 </v>
    <v>       0.14518374       0.83333331       0.17740823 </v>
    <v>       0.89518368       0.83333319       0.26611230 </v>
    <v>       0.64518356       0.83333313       0.35481644 </v>
    <v>       0.39518344       0.83333307       0.44352055 </v>
    <v>       0.97851729       0.00000000       0.00000001 </v>
    <v>       0.72851718       0.99999994       0.08870412 </v>
    <v>       0.47851712       0.99999988       0.17740822 </v>
    <v>       0.22851700       0.99999982       0.26611230 </v>
    <v>       0.97851694       0.99999970       0.35481644 </v>
    <v>       0.72851682       0.99999970       0.44352055 </v>
    <v>       0.31185061       0.16666666       0.00000001 </v>
    <v>       0.06185054       0.16666661       0.08870412 </v>
    <v>       0.81185043       0.16666654       0.17740822 </v>
    <v>       0.56185043       0.16666648       0.26611236 </v>
    <v>       0.31185031       0.16666642       0.35481644 </v>
    <v>       0.06185019       0.16666634       0.44352049 </v>
    <v>       0.64518398       0.33333334       0.00000001 </v>
    <v>       0.39518383       0.33333325       0.08870412 </v>
    <v>       0.14518380       0.33333319       0.17740822 </v>
    <v>       0.89518374       0.33333316       0.26611236 </v>
    <v>       0.64518356       0.33333307       0.35481644 </v>
    <v>       0.39518350       0.33333299       0.44352049 </v>
    <v>       0.14518397       0.83333337       0.00000001 </v>
    <v>       0.89518380       0.83333325       0.08870411 </v>
    <v>       0.64518380       0.83333319       0.17740823 </v>
    <v>       0.39518374       0.83333313       0.26611230 </v>
    <v>       0.14518356       0.83333313       0.35481647 </v>
    <v>       0.89518344       0.83333307       0.44352055 </v>
    <v>       0.14518394       0.33333331       0.00000001 </v>
    <v>       0.89518386       0.33333328       0.08870412 </v>
    <v>       0.64518380       0.33333319       0.17740822 </v>
    <v>       0.39518374       0.33333313       0.26611230 </v>
    <v>       0.14518362       0.33333307       0.35481644 </v>
    <v>       0.89518344       0.33333299       0.44352049 </v>
    <v>       0.47851732       0.50000000       0.00000001 </v>
    <v>       0.22851719       0.49999991       0.08870412 </v>
    <v>       0.97851712       0.49999988       0.17740822 </v>
    <v>       0.72851706       0.49999982       0.26611230 </v>
    <v>       0.47851694       0.49999973       0.35481644 </v>
    <v>       0.22851682       0.49999967       0.44352049 </v>
    <v>       0.81185067       0.66666675       0.00000001 </v>
    <v>       0.56185061       0.66666669       0.08870411 </v>
    <v>       0.31185049       0.66666657       0.17740823 </v>
    <v>       0.06185040       0.66666651       0.26611230 </v>
    <v>       0.81185025       0.66666645       0.35481644 </v>
    <v>       0.56185013       0.66666639       0.44352058 </v>
    <v>       0.47851729       0.00000000       0.00000001 </v>
    <v>       0.22851721       0.99999994       0.08870412 </v>
    <v>       0.97851712       0.99999988       0.17740822 </v>
    <v>       0.72851706       0.99999982       0.26611230 </v>
    <v>       0.47851694       0.99999976       0.35481644 </v>
    <v>       0.22851682       0.99999964       0.44352055 </v>
    <v>       0.81185061       0.16666669       0.00000001 </v>
    <v>       0.56185049       0.16666660       0.08870412 </v>
    <v>       0.31185046       0.16666654       0.17740822 </v>
    <v>       0.06185040       0.16666648       0.26611230 </v>
    <v>       0.81185025       0.16666640       0.35481644 </v>
    <v>       0.56185019       0.16666634       0.44352055 </v>
    <v>       0.14518398       0.70833337       0.00000000 </v>
    <v>       0.89518386       0.70833331       0.08870412 </v>
    <v>       0.64518380       0.70833325       0.17740822 </v>
    <v>       0.39518368       0.70833319       0.26611236 </v>
    <v>       0.14518356       0.70833313       0.35481647 </v>
    <v>       0.89518344       0.70833307       0.44352058 </v>
    <v>       0.47851729       0.87500012       0.00000000 </v>
    <v>       0.22851716       0.87500000       0.08870413 </v>
    <v>       0.97851712       0.87500000       0.17740823 </v>
    <v>       0.72851706       0.87499988       0.26611230 </v>
    <v>       0.47851688       0.87499982       0.35481644 </v>
    <v>       0.22851682       0.87499976       0.44352055 </v>
    <v>       0.14518395       0.20833334       0.00000001 </v>
    <v>       0.89518386       0.20833328       0.08870412 </v>
    <v>       0.64518380       0.20833322       0.17740823 </v>
    <v>       0.39518368       0.20833315       0.26611230 </v>
    <v>       0.14518356       0.20833307       0.35481644 </v>
    <v>       0.89518344       0.20833303       0.44352055 </v>
    <v>       0.47851732       0.37500000       0.00000001 </v>
    <v>       0.22851721       0.37499994       0.08870412 </v>
    <v>       0.97851712       0.37499988       0.17740822 </v>
    <v>       0.72851706       0.37499982       0.26611230 </v>
    <v>       0.47851694       0.37499973       0.35481644 </v>
    <v>       0.22851682       0.37499970       0.44352055 </v>
    <v>       0.81185067       0.54166669       0.00000001 </v>
    <v>       0.56185055       0.54166663       0.08870412 </v>
    <v>       0.31185046       0.54166657       0.17740823 </v>
    <v>       0.06185041       0.54166651       0.26611230 </v>
    <v>       0.81185031       0.54166645       0.35481644 </v>
    <v>       0.56185019       0.54166639       0.44352055 </v>
    <v>       0.81185067       0.04166668       0.00000001 </v>
    <v>       0.56185055       0.04166659       0.08870412 </v>
    <v>       0.31185049       0.04166653       0.17740822 </v>
    <v>       0.06185041       0.04166647       0.26611236 </v>
    <v>       0.81185031       0.04166639       0.35481644 </v>
    <v>       0.56185019       0.04166632       0.44352055 </v>
    <v>       0.97851729       0.87500006       0.00000001 </v>
    <v>       0.72851718       0.87500000       0.08870411 </v>
    <v>       0.47851712       0.87499988       0.17740825 </v>
    <v>       0.22851706       0.87499982       0.26611230 </v>
    <v>       0.97851694       0.87499982       0.35481647 </v>
    <v>       0.72851682       0.87499970       0.44352055 </v>
    <v>       0.97851729       0.37500000       0.00000001 </v>
    <v>       0.72851718       0.37499994       0.08870412 </v>
    <v>       0.47851712       0.37499991       0.17740823 </v>
    <v>       0.22851706       0.37499979       0.26611230 </v>
    <v>       0.97851694       0.37499976       0.35481647 </v>
    <v>       0.72851682       0.37499973       0.44352058 </v>
    <v>       0.31185067       0.54166669       0.00000001 </v>
    <v>       0.06185053       0.54166663       0.08870412 </v>
    <v>       0.81185043       0.54166657       0.17740823 </v>
    <v>       0.56185043       0.54166651       0.26611230 </v>
    <v>       0.31185025       0.54166645       0.35481647 </v>
    <v>       0.06185007       0.54166639       0.44352058 </v>
    <v>       0.64518398       0.70833331       0.00000001 </v>
    <v>       0.39518386       0.70833325       0.08870412 </v>
    <v>       0.14518382       0.70833319       0.17740822 </v>
    <v>       0.89518368       0.70833313       0.26611236 </v>
    <v>       0.64518356       0.70833307       0.35481644 </v>
    <v>       0.39518350       0.70833296       0.44352055 </v>
    <v>       0.31185067       0.04166666       0.00000001 </v>
    <v>       0.06185054       0.04166659       0.08870412 </v>
    <v>       0.81185049       0.04166652       0.17740822 </v>
    <v>       0.56185043       0.04166645       0.26611230 </v>
    <v>       0.31185031       0.04166641       0.35481644 </v>
    <v>       0.06185013       0.04166633       0.44352055 </v>
    <v>       0.64518404       0.20833334       0.00000001 </v>
    <v>       0.39518389       0.20833325       0.08870412 </v>
    <v>       0.14518383       0.20833319       0.17740822 </v>
    <v>       0.89518374       0.20833313       0.26611230 </v>
    <v>       0.64518362       0.20833307       0.35481644 </v>
    <v>       0.39518350       0.20833299       0.44352055 </v>
    <v>       0.90164352       0.77361858       0.53439891 </v>
    <v>       0.65164352       0.77361858       0.68428803 </v>
    <v>       0.40164363       0.77361858       0.83417702 </v>
    <v>       0.90164352       0.44028521       0.53439891 </v>
    <v>       0.65164352       0.44028521       0.68428803 </v>
    <v>       0.40164363       0.44028521       0.83417702 </v>
    <v>       0.90164352       0.10695187       0.53439891 </v>
    <v>       0.65164352       0.10695187       0.68428803 </v>
    <v>       0.40164363       0.10695187       0.83417702 </v>
    <v>       0.40164363       0.77361858       0.53439891 </v>
    <v>       0.15164363       0.77361858       0.68428803 </v>
    <v>       0.90164363       0.77361858       0.83417702 </v>
    <v>       0.40164363       0.44028521       0.53439891 </v>
    <v>       0.15164363       0.44028521       0.68428803 </v>
    <v>       0.90164363       0.44028521       0.83417702 </v>
    <v>       0.40164363       0.10695187       0.53439891 </v>
    <v>       0.15164363       0.10695187       0.68428803 </v>
    <v>       0.90164363       0.10695187       0.83417702 </v>
    <v>       0.02664363       0.02361858       0.60934353 </v>
    <v>       0.77664363       0.02361858       0.75923264 </v>
    <v>       0.52664352       0.02361858       0.90912175 </v>
    <v>       0.02664363       0.69028532       0.60934353 </v>
    <v>       0.77664363       0.69028532       0.75923264 </v>
    <v>       0.52664352       0.69028532       0.90912175 </v>
    <v>       0.02664363       0.35695186       0.60934353 </v>
    <v>       0.77664363       0.35695186       0.75923264 </v>
    <v>       0.52664352       0.35695186       0.90912175 </v>
    <v>       0.52664352       0.02361858       0.60934353 </v>
    <v>       0.27664363       0.02361858       0.75923264 </v>
    <v>       0.02664363       0.02361858       0.90912175 </v>
    <v>       0.52664352       0.69028532       0.60934353 </v>
    <v>       0.27664363       0.69028532       0.75923264 </v>
    <v>       0.02664363       0.69028532       0.90912175 </v>
    <v>       0.52664352       0.35695186       0.60934353 </v>
    <v>       0.27664363       0.35695186       0.75923264 </v>
    <v>       0.02664363       0.35695186       0.90912175 </v>
    <v>       0.15164363       0.94028521       0.53439891 </v>
    <v>       0.90164352       0.94028521       0.68428803 </v>
    <v>       0.65164363       0.94028521       0.83417702 </v>
    <v>       0.15164363       0.60695189       0.53439891 </v>
    <v>       0.90164352       0.60695189       0.68428803 </v>
    <v>       0.65164363       0.60695189       0.83417702 </v>
    <v>       0.15164363       0.27361855       0.53439891 </v>
    <v>       0.90164352       0.27361855       0.68428803 </v>
    <v>       0.65164363       0.27361855       0.83417702 </v>
    <v>       0.65164352       0.94028521       0.53439891 </v>
    <v>       0.40164363       0.94028521       0.68428803 </v>
    <v>       0.15164363       0.94028521       0.83417702 </v>
    <v>       0.65164352       0.60695189       0.53439891 </v>
    <v>       0.40164363       0.60695189       0.68428803 </v>
    <v>       0.15164363       0.60695189       0.83417702 </v>
    <v>       0.65164352       0.27361855       0.53439891 </v>
    <v>       0.40164363       0.27361855       0.68428803 </v>
    <v>       0.15164363       0.27361855       0.83417702 </v>
    <v>       0.27664363       0.85695195       0.60934353 </v>
    <v>       0.02664363       0.85695195       0.75923264 </v>
    <v>       0.77664363       0.85695195       0.90912175 </v>
    <v>       0.27664363       0.52361858       0.60934353 </v>
    <v>       0.02664363       0.52361858       0.75923264 </v>
    <v>       0.77664363       0.52361858       0.90912175 </v>
    <v>       0.27664363       0.19028521       0.60934353 </v>
    <v>       0.02664363       0.19028521       0.75923264 </v>
    <v>       0.77664363       0.19028521       0.90912175 </v>
    <v>       0.77664352       0.85695195       0.60934353 </v>
    <v>       0.52664363       0.85695195       0.75923264 </v>
    <v>       0.27664352       0.85695195       0.90912175 </v>
    <v>       0.77664352       0.52361858       0.60934353 </v>
    <v>       0.52664363       0.52361858       0.75923264 </v>
    <v>       0.27664352       0.52361858       0.90912175 </v>
    <v>       0.77664352       0.19028521       0.60934353 </v>
    <v>       0.52664363       0.19028521       0.75923264 </v>
    <v>       0.27664352       0.19028521       0.90912175 </v>
   </varray>
  </structure>
  <varray name="forces" >
   <v>       0.42573920       0.36936223      -0.27406534 </v>
   <v>      -0.21992484      -0.06099915       0.00613776 </v>
   <v>      -0.00373455      -0.01513378       0.04236031 </v>
   <v>      -0.02744206      -0.02756049      -0.03928246 </v>
   <v>      -0.29564129      -0.14946528       0.10803375 </v>
   <v>       0.20478503       0.03355048      -0.12748639 </v>
   <v>       0.70417389      -0.03803560      -0.60668601 </v>
   <v>      -0.04516130      -0.14750630      -0.03703309 </v>
   <v>      -0.03380149      -0.03254540       0.03116095 </v>
   <v>      -0.01725949      -0.03579773       0.00152225 </v>
   <v>      -0.18544827      -0.22050663       0.21010592 </v>
   <v>       0.26974856       0.28072742      -1.09633818 </v>
   <v>       0.36157546      -0.34868530       0.00101973 </v>
   <v>       0.07004420      -0.04620389      -0.02663538 </v>
   <v>      -0.01133927      -0.01333617       0.00568817 </v>
   <v>      -0.09238793      -0.02709653       0.06241982 </v>
   <v>      -0.07421915      -0.04780803       0.17222748 </v>
   <v>       0.25616312       2.25329581      -3.78717436 </v>
   <v>      -2.51274123      -1.61626117       7.73277993 </v>
   <v>       0.06334334       0.10244723      -0.05706227 </v>
   <v>      -0.03443578      -0.00865201      -0.04422691 </v>
   <v>      -0.09787182      -0.01119380       0.06593864 </v>
   <v>       0.00329660       0.14861168       0.04526886 </v>
   <v>       1.06362416       1.16391131      -1.12689572 </v>
   <v>       2.25434454      -1.69500759       9.73661508 </v>
   <v>      -0.14172977      -0.14514232      -0.19607992 </v>
   <v>      -0.05875267      -0.07441972      -0.05694367 </v>
   <v>      -0.06106775      -0.05445828       0.01658142 </v>
   <v>      -0.08619595       0.01088629       0.01821585 </v>
   <v>       0.51816958       0.98046737       0.17689899 </v>
   <v>       1.14549204       0.15209490       1.04863541 </v>
   <v>      -0.18875027      -0.19126151      -0.16234132 </v>
   <v>      -0.07635126      -0.03704241      -0.01902681 </v>
   <v>      -0.08969885      -0.04036934      -0.01105815 </v>
   <v>      -0.15904930       0.01273890       0.05343533 </v>
   <v>      -0.31739685       0.66727725       0.31018110 </v>
   <v>       0.36157546      -0.34868530       0.00101973 </v>
   <v>       0.07004420      -0.04620389      -0.02663538 </v>
   <v>      -0.01133927      -0.01333617       0.00568817 </v>
   <v>      -0.09238793      -0.02709653       0.06241982 </v>
   <v>      -0.07421915      -0.04780803       0.17222748 </v>
   <v>       0.25616312       2.25329581      -3.78717436 </v>
   <v>       1.14549204       0.15209490       1.04863541 </v>
   <v>      -0.18875027      -0.19126151      -0.16234132 </v>
   <v>      -0.07635126      -0.03704241      -0.01902681 </v>
   <v>      -0.08969885      -0.04036934      -0.01105815 </v>
   <v>      -0.15904930       0.01273890       0.05343533 </v>
   <v>      -0.31739685       0.66727725       0.31018110 </v>
   <v>       0.42573920       0.36936223      -0.27406534 </v>
   <v>      -0.21992484      -0.06099915       0.00613776 </v>
   <v>      -0.00373455      -0.01513378       0.04236031 </v>
   <v>      -0.02744206      -0.02756049      -0.03928246 </v>
   <v>      -0.29564129      -0.14946528       0.10803375 </v>
   <v>       0.20478503       0.03355048      -0.12748639 </v>
   <v>       0.70417389      -0.03803560      -0.60668601 </v>
   <v>      -0.04516130      -0.14750630      -0.03703309 </v>
   <v>      -0.03380149      -0.03254540       0.03116095 </v>
   <v>      -0.01725949      -0.03579773       0.00152225 </v>
   <v>      -0.18544827      -0.22050663       0.21010592 </v>
   <v>       0.26974856       0.28072742      -1.09633818 </v>
   <v>      -2.51274123      -1.61626117       7.73277993 </v>
   <v>       0.06334334       0.10244723      -0.05706227 </v>
   <v>      -0.03443578      -0.00865201      -0.04422691 </v>
   <v>      -0.09787182      -0.01119380       0.06593864 </v>
   <v>       0.00329660       0.14861168       0.04526886 </v>
   <v>       1.06362416       1.16391131      -1.12689572 </v>
   <v>       2.25434454      -1.69500759       9.73661508 </v>
   <v>      -0.14172977      -0.14514232      -0.19607992 </v>
   <v>      -0.05875267      -0.07441972      -0.05694367 </v>
   <v>      -0.06106775      -0.05445828       0.01658142 </v>
   <v>      -0.08619595       0.01088629       0.01821585 </v>
[...]
       <r>     1.5980   128.1260   536.1556 </r>
       <r>     1.6503   167.3514   544.9113 </r>
       <r>     1.7026   150.6938   552.7956 </r>
       <r>     1.7550   154.3099   560.8690 </r>
       <r>     1.8073   107.4712   566.4918 </r>
       <r>     1.8596   169.7202   575.3715 </r>
       <r>     1.9119   155.6999   583.5177 </r>
       <r>     1.9642    80.8824   587.7495 </r>
       <r>     2.0166   150.7247   595.6353 </r>
       <r>     2.0689   135.1301   602.7053 </r>
       <r>     2.1212   159.0274   611.0255 </r>
       <r>     2.1735   147.0922   618.7213 </r>
       <r>     2.2258   168.7950   627.5527 </r>
       <r>     2.2782   161.1457   635.9837 </r>
       <r>     2.3305   136.5104   643.1259 </r>
       <r>     2.3828   142.7765   650.5959 </r>
       <r>     2.4351   159.9629   658.9651 </r>
       <r>     2.4874   107.3062   664.5793 </r>
       <r>     2.5398   117.3263   670.7178 </r>
       <r>     2.5921   153.4771   678.7476 </r>
       <r>     2.6444   143.0599   686.2325 </r>
       <r>     2.6967   129.8109   693.0241 </r>
       <r>     2.7490   114.9934   699.0405 </r>
       <r>     2.8014   138.4176   706.2825 </r>
       <r>     2.8537   150.4048   714.1516 </r>
       <r>     2.9060   154.5844   722.2394 </r>
       <r>     2.9583   151.6425   730.1732 </r>
       <r>     3.0106    78.6253   734.2869 </r>
       <r>     3.0629   143.7391   741.8073 </r>
       <r>     3.1153   109.6657   747.5449 </r>
       <r>     3.1676    52.8518   750.3101 </r>
       <r>     3.2199   122.5498   756.7219 </r>
       <r>     3.2722   132.4699   763.6527 </r>
       <r>     3.3245    86.7182   768.1897 </r>
       <r>     3.3769    69.8088   771.8421 </r>
       <r>     3.4292   111.5643   777.6791 </r>
       <r>     3.4815    89.6087   782.3674 </r>
       <r>     3.5338    75.0828   786.2957 </r>
       <r>     3.5861   116.7770   792.4054 </r>
       <r>     3.6385    77.7998   796.4759 </r>
       <r>     3.6908   106.5762   802.0519 </r>
       <r>     3.7431    90.6421   806.7942 </r>
       <r>     3.7954    58.6157   809.8610 </r>
       <r>     3.8477    97.2181   814.9474 </r>
       <r>     3.9001    57.7650   817.9697 </r>
       <r>     3.9524    93.6975   822.8719 </r>
       <r>     4.0047    98.5889   828.0300 </r>
       <r>     4.0570    32.9184   829.7523 </r>
       <r>     4.1093    61.2649   832.9577 </r>
       <r>     4.1617   115.5534   839.0034 </r>
       <r>     4.2140    38.3593   841.0103 </r>
       <r>     4.2663    46.9772   843.4681 </r>
       <r>     4.3186    95.6779   848.4739 </r>
       <r>     4.3709    53.9688   851.2976 </r>
       <r>     4.4233    68.2549   854.8686 </r>
       <r>     4.4756    59.6596   857.9900 </r>
       <r>     4.5279    35.9118   859.8689 </r>
       <r>     4.5802    29.9511   861.4359 </r>
       <r>     4.6325    45.4897   863.8159 </r>
       <r>     4.6849    15.5885   864.6315 </r>
       <r>     4.7372    14.5956   865.3952 </r>
       <r>     4.7895    49.7867   868.0000 </r>
       <r>     4.8418    14.2333   868.7447 </r>
       <r>     4.8941    39.7690   870.8254 </r>
       <r>     4.9465    68.3869   874.4033 </r>
       <r>     4.9988    40.7422   876.5350 </r>
       <r>     5.0511    45.6118   878.9214 </r>
       <r>     5.1034    56.9446   881.9007 </r>
       <r>     5.1557    53.1735   884.6827 </r>
       <r>     5.2080    58.6103   887.7492 </r>
       <r>     5.2604    53.3289   890.5393 </r>
       <r>     5.3127    56.8479   893.5136 </r>
       <r>     5.3650    70.8126   897.2185 </r>
       <r>     5.4173   107.6924   902.8529 </r>
       <r>     5.4696    56.5900   905.8137 </r>
       <r>     5.5220    89.6599   910.5046 </r>
       <r>     5.5743    19.0920   911.5035 </r>
       <r>     5.6266    66.1890   914.9665 </r>
       <r>     5.6789    72.1867   918.7432 </r>
       <r>     5.7312   121.6147   925.1061 </r>
       <r>     5.7836    69.9737   928.7671 </r>
       <r>     5.8359    83.0546   933.1124 </r>
       <r>     5.8882    71.8814   936.8732 </r>
       <r>     5.9405   104.9946   942.3665 </r>
       <r>     5.9928    93.0194   947.2333 </r>
       <r>     6.0452   123.9494   953.7182 </r>
       <r>     6.0975    91.6620   958.5140 </r>
       <r>     6.1498    90.1130   963.2286 </r>
       <r>     6.2021    60.2608   966.3815 </r>
       <r>     6.2544   124.0215   972.8702 </r>
       <r>     6.3068    89.4764   977.5516 </r>
       <r>     6.3591   111.3343   983.3766 </r>
       <r>     6.4114    70.3169   987.0555 </r>
       <r>     6.4637   119.6498   993.3155 </r>
       <r>     6.5160   121.6864   999.6821 </r>
       <r>     6.5684   144.1807  1007.2256 </r>
       <r>     6.6207   124.0424  1013.7154 </r>
       <r>     6.6730   152.6138  1021.7001 </r>
       <r>     6.7253   106.3197  1027.2627 </r>
       <r>     6.7776    82.6817  1031.5886 </r>
       <r>     6.8300   107.0386  1037.1888 </r>
       <r>     6.8823    44.2043  1039.5016 </r>
       <r>     6.9346     9.5266  1040.0000 </r>
       <r>     6.9869     0.0000  1040.0000 </r>
       <r>     7.0392     0.0000  1040.0000 </r>
       <r>     7.0916     0.0000  1040.0000 </r>
       <r>     7.1439     0.0000  1040.0000 </r>
       <r>     7.1962     0.0000  1040.0000 </r>
       <r>     7.2485     0.0000  1040.0000 </r>
       <r>     7.3008     0.0000  1040.0000 </r>
       <r>     7.3531     0.0000  1040.0000 </r>
       <r>     7.4055     0.0000  1040.0000 </r>
       <r>     7.4578     0.0000  1040.0000 </r>
       <r>     7.5101     0.0000  1040.0000 </r>
       <r>     7.5624     0.0000  1040.0000 </r>
       <r>     7.6147     0.0000  1040.0000 </r>
      </set>
     </set>
    </array>
   </total>
  </dos>
 </calculation>
 <structure name="finalpos" >
  <crystal>
   <varray name="basis" >
    <v>      13.30317974       0.00000000       0.00000000 </v>
    <v>       0.00000000      18.81353569       0.00000000 </v>
    <v>       0.00000000       0.00000000      21.64667320 </v>
   </varray>
   <i name="volume">   5417.72605401 </i>
   <varray name="rec_basis" >
    <v>       0.07517000       0.00000000       0.00000000 </v>
    <v>       0.00000000       0.05315322       0.00000000 </v>
    <v>       0.00000000       0.00000000       0.04619648 </v>
   </varray>
  </crystal>
  <varray name="positions" >
   <v>       0.97851729       0.49999997       0.00000000 </v>
   <v>       0.72851718       0.49999994       0.08870413 </v>
   <v>       0.47851712       0.49999988       0.17740823 </v>
   <v>       0.22851706       0.49999979       0.26611230 </v>
   <v>       0.97851694       0.49999973       0.35481641 </v>
   <v>       0.72851682       0.49999970       0.44352058 </v>
   <v>       0.31185061       0.66666669       0.00000000 </v>
   <v>       0.06185051       0.66666663       0.08870412 </v>
   <v>       0.81185043       0.66666657       0.17740822 </v>
   <v>       0.56185037       0.66666651       0.26611236 </v>
   <v>       0.31185019       0.66666645       0.35481647 </v>
   <v>       0.06185007       0.66666639       0.44352058 </v>
   <v>       0.64518398       0.83333343       0.00000000 </v>
   <v>       0.39518389       0.83333337       0.08870413 </v>
   <v>       0.14518374       0.83333331       0.17740823 </v>
   <v>       0.89518368       0.83333319       0.26611230 </v>
   <v>       0.64518356       0.83333313       0.35481644 </v>
   <v>       0.39518344       0.83333307       0.44352055 </v>
   <v>       0.97851729       0.00000000       0.00000001 </v>
   <v>       0.72851718       0.99999994       0.08870412 </v>
   <v>       0.47851712       0.99999988       0.17740822 </v>
   <v>       0.22851700       0.99999982       0.26611230 </v>
   <v>       0.97851694       0.99999970       0.35481644 </v>
   <v>       0.72851682       0.99999970       0.44352055 </v>
   <v>       0.31185061       0.16666666       0.00000001 </v>
   <v>       0.06185054       0.16666661       0.08870412 </v>
   <v>       0.81185043       0.16666654       0.17740822 </v>
   <v>       0.56185043       0.16666648       0.26611236 </v>
   <v>       0.31185031       0.16666642       0.35481644 </v>
   <v>       0.06185019       0.16666634       0.44352049 </v>
   <v>       0.64518398       0.33333334       0.00000001 </v>
   <v>       0.39518383       0.33333325       0.08870412 </v>
   <v>       0.14518380       0.33333319       0.17740822 </v>
   <v>       0.89518374       0.33333316       0.26611236 </v>
   <v>       0.64518356       0.33333307       0.35481644 </v>
   <v>       0.39518350       0.33333299       0.44352049 </v>
   <v>       0.14518397       0.83333337       0.00000001 </v>
   <v>       0.89518380       0.83333325       0.08870411 </v>
   <v>       0.64518380       0.83333319       0.17740823 </v>
   <v>       0.39518374       0.83333313       0.26611230 </v>
   <v>       0.14518356       0.83333313       0.35481647 </v>
   <v>       0.89518344       0.83333307       0.44352055 </v>
   <v>       0.14518394       0.33333331       0.00000001 </v>
   <v>       0.89518386       0.33333328       0.08870412 </v>
   <v>       0.64518380       0.33333319       0.17740822 </v>
   <v>       0.39518374       0.33333313       0.26611230 </v>
   <v>       0.14518362       0.33333307       0.35481644 </v>
   <v>       0.89518344       0.33333299       0.44352049 </v>
   <v>       0.47851732       0.50000000       0.00000001 </v>
   <v>       0.22851719       0.49999991       0.08870412 </v>
   <v>       0.97851712       0.49999988       0.17740822 </v>
   <v>       0.72851706       0.49999982       0.26611230 </v>
   <v>       0.47851694       0.49999973       0.35481644 </v>
   <v>       0.22851682       0.49999967       0.44352049 </v>
   <v>       0.81185067       0.66666675       0.00000001 </v>
   <v>       0.56185061       0.66666669       0.08870411 </v>
   <v>       0.31185049       0.66666657       0.17740823 </v>
   <v>       0.06185040       0.66666651       0.26611230 </v>
   <v>       0.81185025       0.66666645       0.35481644 </v>
   <v>       0.56185013       0.66666639       0.44352058 </v>
   <v>       0.47851729       0.00000000       0.00000001 </v>
   <v>       0.22851721       0.99999994       0.08870412 </v>
   <v>       0.97851712       0.99999988       0.17740822 </v>
   <v>       0.72851706       0.99999982       0.26611230 </v>
   <v>       0.47851694       0.99999976       0.35481644 </v>
   <v>       0.22851682       0.99999964       0.44352055 </v>
   <v>       0.81185061       0.16666669       0.00000001 </v>
   <v>       0.56185049       0.16666660       0.08870412 </v>
   <v>       0.31185046       0.16666654       0.17740822 </v>
   <v>       0.06185040       0.16666648       0.26611230 </v>
   <v>       0.81185025       0.16666640       0.35481644 </v>
   <v>       0.56185019       0.16666634       0.44352055 </v>
   <v>       0.14518398       0.70833337       0.00000000 </v>
   <v>       0.89518386       0.70833331       0.08870412 </v>
   <v>       0.64518380       0.70833325       0.17740822 </v>
   <v>       0.39518368       0.70833319       0.26611236 </v>
   <v>       0.14518356       0.70833313       0.35481647 </v>
   <v>       0.89518344       0.70833307       0.44352058 </v>
   <v>       0.47851729       0.87500012       0.00000000 </v>
   <v>       0.22851716       0.87500000       0.08870413 </v>
   <v>       0.97851712       0.87500000       0.17740823 </v>
   <v>       0.72851706       0.87499988       0.26611230 </v>
   <v>       0.47851688       0.87499982       0.35481644 </v>
   <v>       0.22851682       0.87499976       0.44352055 </v>
   <v>       0.14518395       0.20833334       0.00000001 </v>
   <v>       0.89518386       0.20833328       0.08870412 </v>
   <v>       0.64518380       0.20833322       0.17740823 </v>
   <v>       0.39518368       0.20833315       0.26611230 </v>
   <v>       0.14518356       0.20833307       0.35481644 </v>
   <v>       0.89518344       0.20833303       0.44352055 </v>
   <v>       0.47851732       0.37500000       0.00000001 </v>
   <v>       0.22851721       0.37499994       0.08870412 </v>
   <v>       0.97851712       0.37499988       0.17740822 </v>
   <v>       0.72851706       0.37499982       0.26611230 </v>
   <v>       0.47851694       0.37499973       0.35481644 </v>
   <v>       0.22851682       0.37499970       0.44352055 </v>
   <v>       0.81185067       0.54166669       0.00000001 </v>
   <v>       0.56185055       0.54166663       0.08870412 </v>
   <v>       0.31185046       0.54166657       0.17740823 </v>
   <v>       0.06185041       0.54166651       0.26611230 </v>
   <v>       0.81185031       0.54166645       0.35481644 </v>
   <v>       0.56185019       0.54166639       0.44352055 </v>
   <v>       0.81185067       0.04166668       0.00000001 </v>
   <v>       0.56185055       0.04166659       0.08870412 </v>
   <v>       0.31185049       0.04166653       0.17740822 </v>
   <v>       0.06185041       0.04166647       0.26611236 </v>
   <v>       0.81185031       0.04166639       0.35481644 </v>
   <v>       0.56185019       0.04166632       0.44352055 </v>
   <v>       0.97851729       0.87500006       0.00000001 </v>
   <v>       0.72851718       0.87500000       0.08870411 </v>
   <v>       0.47851712       0.87499988       0.17740825 </v>
   <v>       0.22851706       0.87499982       0.26611230 </v>
   <v>       0.97851694       0.87499982       0.35481647 </v>
   <v>       0.72851682       0.87499970       0.44352055 </v>
   <v>       0.97851729       0.37500000       0.00000001 </v>
   <v>       0.72851718       0.37499994       0.08870412 </v>
   <v>       0.47851712       0.37499991       0.17740823 </v>
   <v>       0.22851706       0.37499979       0.26611230 </v>
   <v>       0.97851694       0.37499976       0.35481647 </v>
   <v>       0.72851682       0.37499973       0.44352058 </v>
   <v>       0.31185067       0.54166669       0.00000001 </v>
   <v>       0.06185053       0.54166663       0.08870412 </v>
   <v>       0.81185043       0.54166657       0.17740823 </v>
   <v>       0.56185043       0.54166651       0.26611230 </v>
   <v>       0.31185025       0.54166645       0.35481647 </v>
   <v>       0.06185007       0.54166639       0.44352058 </v>
   <v>       0.64518398       0.70833331       0.00000001 </v>
   <v>       0.39518386       0.70833325       0.08870412 </v>
   <v>       0.14518382       0.70833319       0.17740822 </v>
   <v>       0.89518368       0.70833313       0.26611236 </v>
   <v>       0.64518356       0.70833307       0.35481644 </v>
   <v>       0.39518350       0.70833296       0.44352055 </v>
   <v>       0.31185067       0.04166666       0.00000001 </v>
   <v>       0.06185054       0.04166659       0.08870412 </v>
   <v>       0.81185049       0.04166652       0.17740822 </v>
   <v>       0.56185043       0.04166645       0.26611230 </v>
   <v>       0.31185031       0.04166641       0.35481644 </v>
   <v>       0.06185013       0.04166633       0.44352055 </v>
   <v>       0.64518404       0.20833334       0.00000001 </v>
   <v>       0.39518389       0.20833325       0.08870412 </v>
   <v>       0.14518383       0.20833319       0.17740822 </v>
   <v>       0.89518374       0.20833313       0.26611230 </v>
   <v>       0.64518362       0.20833307       0.35481644 </v>
   <v>       0.39518350       0.20833299       0.44352055 </v>
   <v>       0.90164352       0.77361858       0.53439891 </v>
   <v>       0.65164352       0.77361858       0.68428803 </v>
   <v>       0.40164363       0.77361858       0.83417702 </v>
   <v>       0.90164352       0.44028521       0.53439891 </v>
   <v>       0.65164352       0.44028521       0.68428803 </v>
   <v>       0.40164363       0.44028521       0.83417702 </v>
   <v>       0.90164352       0.10695187       0.53439891 </v>
   <v>       0.65164352       0.10695187       0.68428803 </v>
   <v>       0.40164363       0.10695187       0.83417702 </v>
   <v>       0.40164363       0.77361858       0.53439891 </v>
   <v>       0.15164363       0.77361858       0.68428803 </v>
   <v>       0.90164363       0.77361858       0.83417702 </v>
   <v>       0.40164363       0.44028521       0.53439891 </v>
   <v>       0.15164363       0.44028521       0.68428803 </v>
   <v>       0.90164363       0.44028521       0.83417702 </v>
   <v>       0.40164363       0.10695187       0.53439891 </v>
   <v>       0.15164363       0.10695187       0.68428803 </v>
   <v>       0.90164363       0.10695187       0.83417702 </v>
   <v>       0.02664363       0.02361858       0.60934353 </v>
   <v>       0.77664363       0.02361858       0.75923264 </v>
   <v>       0.52664352       0.02361858       0.90912175 </v>
   <v>       0.02664363       0.69028532       0.60934353 </v>
   <v>       0.77664363       0.69028532       0.75923264 </v>
   <v>       0.52664352       0.69028532       0.90912175 </v>
   <v>       0.02664363       0.35695186       0.60934353 </v>
   <v>       0.77664363       0.35695186       0.75923264 </v>
   <v>       0.52664352       0.35695186       0.90912175 </v>
   <v>       0.52664352       0.02361858       0.60934353 </v>
   <v>       0.27664363       0.02361858       0.75923264 </v>
   <v>       0.02664363       0.02361858       0.90912175 </v>
   <v>       0.52664352       0.69028532       0.60934353 </v>
   <v>       0.27664363       0.69028532       0.75923264 </v>
   <v>       0.02664363       0.69028532       0.90912175 </v>
   <v>       0.52664352       0.35695186       0.60934353 </v>
   <v>       0.27664363       0.35695186       0.75923264 </v>
   <v>       0.02664363       0.35695186       0.90912175 </v>
   <v>       0.15164363       0.94028521       0.53439891 </v>
   <v>       0.90164352       0.94028521       0.68428803 </v>
   <v>       0.65164363       0.94028521       0.83417702 </v>
   <v>       0.15164363       0.60695189       0.53439891 </v>
   <v>       0.90164352       0.60695189       0.68428803 </v>
   <v>       0.65164363       0.60695189       0.83417702 </v>
   <v>       0.15164363       0.27361855       0.53439891 </v>
   <v>       0.90164352       0.27361855       0.68428803 </v>
   <v>       0.65164363       0.27361855       0.83417702 </v>
   <v>       0.65164352       0.94028521       0.53439891 </v>
   <v>       0.40164363       0.94028521       0.68428803 </v>
   <v>       0.15164363       0.94028521       0.83417702 </v>
   <v>       0.65164352       0.60695189       0.53439891 </v>
   <v>       0.40164363       0.60695189       0.68428803 </v>
   <v>       0.15164363       0.60695189       0.83417702 </v>
   <v>       0.65164352       0.27361855       0.53439891 </v>
   <v>       0.40164363       0.27361855       0.68428803 </v>
   <v>       0.15164363       0.27361855       0.83417702 </v>
   <v>       0.27664363       0.85695195       0.60934353 </v>
   <v>       0.02664363       0.85695195       0.75923264 </v>
   <v>       0.77664363       0.85695195       0.90912175 </v>
   <v>       0.27664363       0.52361858       0.60934353 </v>
   <v>       0.02664363       0.52361858       0.75923264 </v>
   <v>       0.77664363       0.52361858       0.90912175 </v>
   <v>       0.27664363       0.19028521       0.60934353 </v>
   <v>       0.02664363       0.19028521       0.75923264 </v>
   <v>       0.77664363       0.19028521       0.90912175 </v>
   <v>       0.77664352       0.85695195       0.60934353 </v>
   <v>       0.52664363       0.85695195       0.75923264 </v>
   <v>       0.27664352       0.85695195       0.90912175 </v>
   <v>       0.77664352       0.52361858       0.60934353 </v>
   <v>       0.52664363       0.52361858       0.75923264 </v>
   <v>       0.27664352       0.52361858       0.90912175 </v>
   <v>       0.77664352       0.19028521       0.60934353 </v>
   <v>       0.52664363       0.19028521       0.75923264 </v>
   <v>       0.27664352       0.19028521       0.90912175 </v>
  </varray>
 </structure>
</modeling>
