Si and Ge interface calculation         
           1
    11.315600    0.000000    0.000000
     0.000000   16.002676    0.000000
     0.000000    0.000000   25.800940
   Ge   Sn
    96    72
Direct configuration=     1
   0.97066277  0.45599416  0.00000002
   0.72066271  0.08099414  0.07752953
   0.47066277  0.70599413  0.15505907
   0.22066289  0.33099425  0.23258853
   0.97066271  0.95599413  0.31011808
   0.72066271  0.58099413  0.38764763
   0.47066277  0.45599416  0.00000002
   0.22066276  0.08099414  0.07752953
   0.97066277  0.70599413  0.15505907
   0.72066283  0.33099425  0.23258853
   0.47066283  0.95599413  0.31011808
   0.22066277  0.58099413  0.38764763
   0.97066277  0.95599413  0.00000002
   0.72066271  0.58099413  0.07752954
   0.47066277  0.20599413  0.15505905
   0.22066289  0.83099437  0.23258853
   0.97066271  0.45599413  0.31011811
   0.72066271  0.08099413  0.38764760
   0.47066277  0.95599413  0.00000002
   0.22066276  0.58099413  0.07752954
   0.97066277  0.20599413  0.15505905
   0.72066283  0.83099437  0.23258853
   0.47066283  0.45599413  0.31011811
   0.22066277  0.08099413  0.38764760
   0.97066277  0.70599413  0.00000002
   0.72066271  0.33099413  0.07752953
   0.47066277  0.95599413  0.15505905
   0.22066289  0.58099425  0.23258856
   0.97066271  0.20599419  0.31011811
   0.72066271  0.83099413  0.38764763
   0.47066277  0.70599413  0.00000002
   0.22066276  0.33099413  0.07752953
   0.97066277  0.95599413  0.15505905
   0.72066283  0.58099425  0.23258856
   0.47066283  0.20599419  0.31011811
   0.22066277  0.83099413  0.38764763
   0.97066277  0.20599414  0.00000002
   0.72066271  0.83099413  0.07752953
   0.47066277  0.45599413  0.15505905
   0.22066289  0.08099425  0.23258856
   0.97066271  0.70599425  0.31011808
   0.72066271  0.33099413  0.38764760
   0.47066277  0.20599414  0.00000002
   0.22066276  0.83099413  0.07752953
   0.97066277  0.45599413  0.15505905
   0.72066283  0.08099425  0.23258856
   0.47066283  0.70599425  0.31011808
   0.22066277  0.33099413  0.38764760
   0.34566274  0.58099419  0.00000003
   0.09566276  0.20599416  0.07752953
   0.84566277  0.83099413  0.15505905
   0.59566283  0.45599425  0.23258853
   0.34566277  0.08099419  0.31011811
   0.09566271  0.70599413  0.38764763
   0.84566283  0.58099419  0.00000003
   0.59566277  0.20599416  0.07752953
   0.34566280  0.83099413  0.15505905
   0.09566288  0.45599425  0.23258853
   0.84566283  0.08099419  0.31011811
   0.59566277  0.70599413  0.38764763
   0.34566274  0.08099414  0.00000001
   0.09566276  0.70599413  0.07752953
   0.84566277  0.33099413  0.15505905
   0.59566283  0.95599425  0.23258856
   0.34566277  0.58099425  0.31011808
   0.09566271  0.20599401  0.38764760
   0.84566283  0.08099414  0.00000001
   0.59566277  0.70599413  0.07752953
   0.34566280  0.33099413  0.15505905
   0.09566288  0.95599425  0.23258856
   0.84566283  0.58099425  0.31011808
   0.59566277  0.20599401  0.38764760
   0.34566274  0.83099419  0.00000000
   0.09566276  0.45599419  0.07752953
   0.84566277  0.08099417  0.15505905
   0.59566283  0.70599431  0.23258853
   0.34566277  0.33099425  0.31011808
   0.09566271  0.95599413  0.38764757
   0.84566283  0.83099419  0.00000000
   0.59566277  0.45599419  0.07752953
   0.34566280  0.08099417  0.15505905
   0.09566288  0.70599431  0.23258853
   0.84566283  0.33099425  0.31011808
   0.59566277  0.95599413  0.38764757
   0.34566274  0.33099413  0.00000002
   0.09566276  0.95599413  0.07752954
   0.84566277  0.58099413  0.15505905
   0.59566283  0.20599425  0.23258856
   0.34566277  0.83099413  0.31011808
   0.09566271  0.45599413  0.38764760
   0.84566283  0.33099413  0.00000002
   0.59566277  0.95599413  0.07752954
   0.34566280  0.58099413  0.15505905
   0.09566288  0.20599425  0.23258856
   0.84566283  0.83099413  0.31011808
   0.59566277  0.45599413  0.38764760
   0.22321428  0.97573113  0.47151801
   0.22321427  0.72573113  0.56044036
   0.22321415  0.47573090  0.64936268
   0.22321415  0.22573078  0.73828494
   0.22321403  0.97573066  0.82720721
   0.22321403  0.72573066  0.91612959
   0.88988102  0.30906451  0.47151801
   0.88988096  0.05906451  0.56044036
   0.88988090  0.80906439  0.64936268
   0.88988090  0.55906415  0.73828494
   0.88988084  0.30906415  0.82720727
   0.88988078  0.05906391  0.91612959
   0.55654770  0.64239788  0.47151801
   0.55654764  0.39239788  0.56044036
   0.55654758  0.14239764  0.64936268
   0.55654752  0.89239764  0.73828494
   0.55654746  0.64239752  0.82720727
   0.55654746  0.39239740  0.91612959
   0.55654764  0.14239788  0.47151801
   0.55654758  0.89239788  0.56044036
   0.55654752  0.64239764  0.64936268
   0.55654752  0.39239740  0.73828494
   0.55654752  0.14239740  0.82720721
   0.55654746  0.89239740  0.91612959
   0.22321428  0.47573113  0.47151801
   0.22321427  0.22573113  0.56044036
   0.22321415  0.97573102  0.64936268
   0.22321415  0.72573090  0.73828494
   0.22321403  0.47573090  0.82720721
   0.22321403  0.22573066  0.91612959
   0.88988107  0.80906463  0.47151801
   0.88988102  0.55906451  0.56044042
   0.88988090  0.30906439  0.64936268
   0.88988090  0.05906427  0.73828494
   0.88988078  0.80906415  0.82720727
   0.88988078  0.55906403  0.91612959
   0.80654764  0.14239788  0.47151804
   0.80654764  0.89239788  0.56044036
   0.80654758  0.64239764  0.64936268
   0.80654746  0.39239752  0.73828494
   0.80654752  0.14239740  0.82720721
   0.80654740  0.89239740  0.91612959
   0.47321427  0.47573113  0.47151804
   0.47321421  0.22573113  0.56044036
   0.47321421  0.97573102  0.64936268
   0.47321409  0.72573090  0.73828494
   0.47321403  0.47573090  0.82720727
   0.47321400  0.22573066  0.91612959
   0.13988102  0.80906463  0.47151801
   0.13988090  0.55906451  0.56044036
   0.13988078  0.30906439  0.64936268
   0.13988078  0.05906427  0.73828494
   0.13988078  0.80906415  0.82720721
   0.13988078  0.55906391  0.91612959
   0.47321433  0.97573113  0.47151801
   0.47321427  0.72573113  0.56044042
   0.47321427  0.47573090  0.64936268
   0.47321415  0.22573090  0.73828494
   0.47321409  0.97573090  0.82720727
   0.47321397  0.72573066  0.91612959
   0.13988113  0.30906451  0.47151804
   0.13988102  0.05906451  0.56044042
   0.13988090  0.80906439  0.64936268
   0.13988090  0.55906415  0.73828494
   0.13988090  0.30906415  0.82720721
   0.13988078  0.05906415  0.91612959
   0.80654770  0.64239788  0.47151804
   0.80654758  0.39239788  0.56044042
   0.80654752  0.14239764  0.64936268
   0.80654752  0.89239764  0.73828494
   0.80654746  0.64239752  0.82720721
   0.80654746  0.39239740  0.91612959
