 264 264   0   0
  0.2770664E+02  0.1946760E-08  0.1946760E-08  0.1930025E-08  0.5000000E-15
  1.000000000000000E-004
  CAR 
 Si and Ge interface calculation         
      6.64090344     -8.87772579  301      4.06338963      1.00000000
     -8.878  0.0000E+00  0.0000E+00  0.0000E+00  0.0000E+00
     -8.826  0.0000E+00  0.0000E+00  0.0000E+00  0.0000E+00
     -8.774  0.0000E+00  0.0000E+00  0.0000E+00  0.0000E+00
     -8.723  0.0000E+00  0.0000E+00  0.0000E+00  0.0000E+00
     -8.671  0.0000E+00  0.0000E+00  0.0000E+00  0.0000E+00
     -8.619  0.0000E+00  0.0000E+00  0.0000E+00  0.0000E+00
     -8.567  0.0000E+00  0.0000E+00  0.0000E+00  0.0000E+00
     -8.516  0.0000E+00  0.0000E+00  0.0000E+00  0.0000E+00
     -8.464  0.0000E+00  0.0000E+00  0.0000E+00  0.0000E+00
     -8.412  0.0000E+00  0.0000E+00  0.0000E+00  0.0000E+00
     -8.360  0.0000E+00  0.0000E+00  0.0000E+00  0.0000E+00
     -8.309  0.0000E+00  0.0000E+00  0.0000E+00  0.0000E+00
     -8.257  0.0000E+00  0.0000E+00  0.0000E+00  0.0000E+00
     -8.205  0.1535E-04  0.4472E-05  0.7939E-06  0.2313E-06
     -8.154  0.9634E+01  0.9591E+01  0.4984E+00  0.4961E+00
     -8.102  0.1728E+02  0.1653E+02  0.1392E+01  0.1351E+01
     -8.050  0.2138E+02  0.2212E+02  0.2498E+01  0.2496E+01
     -7.998  0.1930E+02  0.1927E+02  0.3496E+01  0.3492E+01
     -7.947  0.2545E+01  0.1925E+01  0.3628E+01  0.3592E+01
     -7.895  0.1686E+02  0.1755E+02  0.4500E+01  0.4500E+01
     -7.843  0.1795E+02  0.1653E+02  0.5428E+01  0.5355E+01
     -7.791  0.3011E+02  0.2981E+02  0.6986E+01  0.6897E+01
     -7.740  0.2532E+02  0.2610E+02  0.8296E+01  0.8247E+01
     -7.688  0.3137E+02  0.3147E+02  0.9919E+01  0.9875E+01
     -7.636  0.1120E+02  0.1200E+02  0.1050E+02  0.1050E+02
     -7.585  0.3738E-01  0.7851E-01  0.1050E+02  0.1050E+02
     -7.533  0.2542E+01  0.1811E+01  0.1063E+02  0.1059E+02
     -7.481  0.1549E+02  0.1474E+02  0.1143E+02  0.1136E+02
     -7.429  0.5120E+02  0.5178E+02  0.1408E+02  0.1403E+02
     -7.378  0.1779E+02  0.1868E+02  0.1500E+02  0.1500E+02
     -7.326  0.1950E+02  0.1931E+02  0.1601E+02  0.1600E+02
     -7.274  0.2396E+02  0.2302E+02  0.1725E+02  0.1719E+02
     -7.222  0.4543E+02  0.4555E+02  0.1960E+02  0.1955E+02
     -7.171  0.7781E+01  0.8784E+01  0.2000E+02  0.2000E+02
     -7.119  0.3812E+02  0.3766E+02  0.2197E+02  0.2195E+02
     -7.067  0.3682E+02  0.3595E+02  0.2388E+02  0.2381E+02
     -7.015  0.4582E+02  0.4269E+02  0.2625E+02  0.2602E+02
     -6.964  0.3784E+02  0.4058E+02  0.2821E+02  0.2812E+02
     -6.912  0.2960E+02  0.2944E+02  0.2974E+02  0.2964E+02
     -6.860  0.3150E+02  0.3139E+02  0.3137E+02  0.3126E+02
     -6.809  0.4584E+02  0.4593E+02  0.3374E+02  0.3364E+02
     -6.757  0.3560E+02  0.3661E+02  0.3558E+02  0.3553E+02
     -6.705  0.5043E+02  0.4802E+02  0.3819E+02  0.3802E+02
     -6.653  0.6177E+02  0.6139E+02  0.4138E+02  0.4119E+02
     -6.602  0.4999E+02  0.5140E+02  0.4397E+02  0.4385E+02
     -6.550  0.4891E+02  0.5119E+02  0.4650E+02  0.4650E+02
     -6.498  0.2675E+02  0.2569E+02  0.4788E+02  0.4783E+02
     -6.446  0.3883E+02  0.3752E+02  0.4989E+02  0.4977E+02
     -6.395  0.4873E+02  0.4934E+02  0.5241E+02  0.5232E+02
     -6.343  0.4763E+02  0.4815E+02  0.5488E+02  0.5481E+02
     -6.291  0.1227E+02  0.1135E+02  0.5551E+02  0.5540E+02
     -6.240  0.4535E+02  0.4363E+02  0.5786E+02  0.5766E+02
     -6.188  0.6894E+02  0.7192E+02  0.6143E+02  0.6138E+02
     -6.136  0.5957E+02  0.5497E+02  0.6451E+02  0.6422E+02
     -6.084  0.8526E+02  0.8905E+02  0.6892E+02  0.6883E+02
     -6.033  0.8295E+02  0.8083E+02  0.7321E+02  0.7301E+02
     -5.981  0.8272E+02  0.8466E+02  0.7749E+02  0.7739E+02
     -5.929  0.3683E+02  0.3792E+02  0.7939E+02  0.7935E+02
     -5.877  0.6521E+02  0.6310E+02  0.8276E+02  0.8261E+02
     -5.826  0.6830E+02  0.6673E+02  0.8630E+02  0.8606E+02
     -5.774  0.8129E+02  0.8292E+02  0.9050E+02  0.9035E+02
     -5.722  0.6861E+02  0.6984E+02  0.9405E+02  0.9397E+02
     -5.671  0.8450E+02  0.7997E+02  0.9842E+02  0.9810E+02
     -5.619  0.7438E+02  0.7689E+02  0.1023E+03  0.1021E+03
     -5.567  0.8428E+02  0.8173E+02  0.1066E+03  0.1063E+03
     -5.515  0.8282E+02  0.8541E+02  0.1109E+03  0.1107E+03
     -5.464  0.5659E+02  0.5603E+02  0.1138E+03  0.1136E+03
     -5.412  0.7480E+02  0.7591E+02  0.1177E+03  0.1176E+03
     -5.360  0.6896E+02  0.6709E+02  0.1213E+03  0.1210E+03
     -5.308  0.9420E+02  0.9524E+02  0.1262E+03  0.1259E+03
     -5.257  0.8946E+02  0.8843E+02  0.1308E+03  0.1305E+03
     -5.205  0.5958E+02  0.6297E+02  0.1339E+03  0.1338E+03
     -5.153  0.7469E+02  0.7470E+02  0.1377E+03  0.1376E+03
     -5.102  0.5237E+02  0.5138E+02  0.1404E+03  0.1403E+03
     -5.050  0.1028E+03  0.1026E+03  0.1458E+03  0.1456E+03
     -4.998  0.6779E+02  0.6473E+02  0.1493E+03  0.1490E+03
     -4.946  0.5171E+02  0.5593E+02  0.1519E+03  0.1519E+03
     -4.895  0.6246E+02  0.5883E+02  0.1552E+03  0.1549E+03
     -4.843  0.8778E+02  0.8818E+02  0.1597E+03  0.1595E+03
     -4.791  0.1087E+03  0.1079E+03  0.1653E+03  0.1650E+03
     -4.739  0.1011E+03  0.9995E+02  0.1706E+03  0.1702E+03
     -4.688  0.1250E+03  0.1231E+03  0.1770E+03  0.1766E+03
     -4.636  0.1059E+03  0.1080E+03  0.1825E+03  0.1822E+03
     -4.584  0.1005E+03  0.1020E+03  0.1877E+03  0.1874E+03
     -4.533  0.1030E+03  0.1020E+03  0.1930E+03  0.1927E+03
     -4.481  0.1141E+03  0.1110E+03  0.1989E+03  0.1985E+03
     -4.429  0.1090E+03  0.1120E+03  0.2046E+03  0.2042E+03
     -4.377  0.7909E+02  0.8059E+02  0.2087E+03  0.2084E+03
     -4.326  0.8911E+02  0.8771E+02  0.2133E+03  0.2130E+03
     -4.274  0.7302E+02  0.7505E+02  0.2170E+03  0.2168E+03
     -4.222  0.7831E+02  0.7694E+02  0.2211E+03  0.2208E+03
     -4.170  0.9090E+02  0.8967E+02  0.2258E+03  0.2255E+03
     -4.119  0.7126E+02  0.7538E+02  0.2295E+03  0.2294E+03
     -4.067  0.5347E+02  0.5309E+02  0.2323E+03  0.2321E+03
     -4.015  0.6037E+02  0.6101E+02  0.2354E+03  0.2353E+03
     -3.963  0.5931E+02  0.5682E+02  0.2384E+03  0.2382E+03
     -3.912  0.8459E+02  0.8478E+02  0.2428E+03  0.2426E+03
     -3.860  0.6615E+02  0.6565E+02  0.2462E+03  0.2460E+03
     -3.808  0.5455E+02  0.5655E+02  0.2491E+03  0.2489E+03
     -3.757  0.5825E+02  0.5612E+02  0.2521E+03  0.2518E+03
     -3.705  0.7057E+02  0.7121E+02  0.2557E+03  0.2555E+03
     -3.653  0.5741E+02  0.6000E+02  0.2587E+03  0.2586E+03
     -3.601  0.8265E+02  0.7794E+02  0.2630E+03  0.2626E+03
     -3.550  0.4023E+02  0.4454E+02  0.2651E+03  0.2649E+03
     -3.498  0.4691E+02  0.4462E+02  0.2675E+03  0.2672E+03
     -3.446  0.9462E+02  0.9541E+02  0.2724E+03  0.2722E+03
     -3.394  0.7258E+02  0.6874E+02  0.2761E+03  0.2757E+03
     -3.343  0.8532E+02  0.9005E+02  0.2805E+03  0.2804E+03
     -3.291  0.6414E+02  0.6130E+02  0.2839E+03  0.2836E+03
     -3.239  0.8458E+02  0.8349E+02  0.2882E+03  0.2879E+03
     -3.188  0.8850E+02  0.8752E+02  0.2928E+03  0.2924E+03
     -3.136  0.7539E+02  0.7842E+02  0.2967E+03  0.2965E+03
     -3.084  0.7467E+02  0.7541E+02  0.3006E+03  0.3004E+03
     -3.032  0.6372E+02  0.6444E+02  0.3039E+03  0.3037E+03
     -2.981  0.6196E+02  0.6207E+02  0.3071E+03  0.3069E+03
     -2.929  0.9460E+02  0.9132E+02  0.3120E+03  0.3116E+03
     -2.877  0.1052E+03  0.1027E+03  0.3174E+03  0.3169E+03
     -2.825  0.7690E+02  0.8391E+02  0.3214E+03  0.3213E+03
     -2.774  0.7738E+02  0.7236E+02  0.3254E+03  0.3250E+03
     -2.722  0.1036E+03  0.1051E+03  0.3308E+03  0.3305E+03
     -2.670  0.1040E+03  0.1046E+03  0.3361E+03  0.3359E+03
     -2.619  0.8908E+02  0.8868E+02  0.3407E+03  0.3405E+03
     -2.567  0.1191E+03  0.1177E+03  0.3469E+03  0.3465E+03
     -2.515  0.1337E+03  0.1345E+03  0.3538E+03  0.3535E+03
     -2.463  0.1015E+03  0.1025E+03  0.3591E+03  0.3588E+03
     -2.412  0.8833E+02  0.8854E+02  0.3636E+03  0.3634E+03
     -2.360  0.9999E+02  0.9921E+02  0.3688E+03  0.3685E+03
     -2.308  0.9512E+02  0.9379E+02  0.3737E+03  0.3734E+03
     -2.256  0.1046E+03  0.1056E+03  0.3791E+03  0.3788E+03
     -2.205  0.6578E+02  0.6829E+02  0.3825E+03  0.3824E+03
     -2.153  0.2789E+02  0.2894E+02  0.3840E+03  0.3839E+03
     -2.101  0.5826E+02  0.5493E+02  0.3870E+03  0.3867E+03
     -2.050  0.6778E+02  0.6897E+02  0.3905E+03  0.3903E+03
     -1.998  0.7870E+02  0.7734E+02  0.3946E+03  0.3943E+03
     -1.946  0.1093E+03  0.1083E+03  0.4002E+03  0.3999E+03
     -1.894  0.1038E+03  0.1055E+03  0.4056E+03  0.4053E+03
     -1.843  0.5931E+02  0.6050E+02  0.4087E+03  0.4085E+03
     -1.791  0.8251E+02  0.8076E+02  0.4129E+03  0.4126E+03
     -1.739  0.9268E+02  0.9317E+02  0.4177E+03  0.4175E+03
     -1.687  0.1088E+03  0.1077E+03  0.4234E+03  0.4230E+03
     -1.636  0.8126E+02  0.8388E+02  0.4276E+03  0.4274E+03
     -1.584  0.6357E+02  0.6409E+02  0.4309E+03  0.4307E+03
     -1.532  0.9805E+02  0.9617E+02  0.4359E+03  0.4357E+03
     -1.481  0.6237E+02  0.6372E+02  0.4392E+03  0.4390E+03
     -1.429  0.5125E+02  0.5352E+02  0.4418E+03  0.4417E+03
     -1.377  0.5935E+02  0.5435E+02  0.4449E+03  0.4445E+03
     -1.325  0.6862E+02  0.7159E+02  0.4484E+03  0.4482E+03
     -1.274  0.5092E+02  0.5096E+02  0.4511E+03  0.4509E+03
     -1.222  0.4833E+02  0.4853E+02  0.4536E+03  0.4534E+03
     -1.170  0.5596E+02  0.5641E+02  0.4565E+03  0.4563E+03
     -1.118  0.4966E+02  0.4586E+02  0.4590E+03  0.4587E+03
     -1.067  0.5356E+02  0.5755E+02  0.4618E+03  0.4617E+03
     -1.015  0.6035E+02  0.5811E+02  0.4649E+03  0.4647E+03
     -0.963  0.3715E+02  0.4111E+02  0.4668E+03  0.4668E+03
     -0.911  0.3363E+02  0.3124E+02  0.4686E+03  0.4684E+03
     -0.860  0.6810E+02  0.6875E+02  0.4721E+03  0.4720E+03
     -0.808  0.6959E+02  0.6700E+02  0.4757E+03  0.4754E+03
     -0.756  0.6088E+02  0.6276E+02  0.4788E+03  0.4787E+03
     -0.705  0.4607E+02  0.4480E+02  0.4812E+03  0.4810E+03
     -0.653  0.7931E+02  0.7809E+02  0.4853E+03  0.4850E+03
     -0.601  0.3307E+02  0.3737E+02  0.4870E+03  0.4870E+03
     -0.549  0.3627E+02  0.3584E+02  0.4889E+03  0.4888E+03
     -0.498  0.1370E+02  0.1400E+02  0.4896E+03  0.4895E+03
     -0.446  0.3137E+02  0.3112E+02  0.4913E+03  0.4912E+03
     -0.394  0.3965E+02  0.3966E+02  0.4933E+03  0.4932E+03
     -0.342  0.4959E+02  0.4816E+02  0.4959E+03  0.4957E+03
     -0.291  0.9480E+02  0.9593E+02  0.5008E+03  0.5007E+03
     -0.239  0.6616E+02  0.6413E+02  0.5042E+03  0.5040E+03
     -0.187  0.7811E+02  0.7792E+02  0.5082E+03  0.5080E+03
     -0.136  0.1030E+03  0.1007E+03  0.5136E+03  0.5132E+03
     -0.084  0.1134E+03  0.1150E+03  0.5194E+03  0.5192E+03
     -0.032  0.1247E+03  0.1207E+03  0.5259E+03  0.5254E+03
      0.020  0.1097E+03  0.1138E+03  0.5316E+03  0.5313E+03
      0.071  0.1570E+03  0.1544E+03  0.5397E+03  0.5393E+03
      0.123  0.1410E+03  0.1445E+03  0.5470E+03  0.5468E+03
      0.175  0.7994E+02  0.8072E+02  0.5511E+03  0.5509E+03
      0.227  0.7630E+02  0.7544E+02  0.5551E+03  0.5548E+03
      0.278  0.9435E+02  0.9434E+02  0.5599E+03  0.5597E+03
      0.330  0.7989E+02  0.8102E+02  0.5641E+03  0.5639E+03
      0.382  0.8078E+02  0.7723E+02  0.5682E+03  0.5679E+03
      0.433  0.1085E+03  0.1102E+03  0.5739E+03  0.5736E+03
      0.485  0.7686E+02  0.7920E+02  0.5778E+03  0.5777E+03
      0.537  0.1129E+03  0.1097E+03  0.5837E+03  0.5834E+03
      0.589  0.1359E+03  0.1351E+03  0.5907E+03  0.5904E+03
      0.640  0.1372E+03  0.1363E+03  0.5978E+03  0.5974E+03
      0.692  0.1376E+03  0.1382E+03  0.6049E+03  0.6046E+03
      0.744  0.1254E+03  0.1276E+03  0.6114E+03  0.6112E+03
      0.796  0.1190E+03  0.1191E+03  0.6176E+03  0.6173E+03
      0.847  0.1089E+03  0.1100E+03  0.6232E+03  0.6230E+03
      0.899  0.1017E+03  0.1014E+03  0.6285E+03  0.6283E+03
      0.951  0.9138E+02  0.8856E+02  0.6332E+03  0.6328E+03
      1.002  0.1148E+03  0.1152E+03  0.6391E+03  0.6388E+03
      1.054  0.1549E+03  0.1511E+03  0.6471E+03  0.6466E+03
      1.106  0.1437E+03  0.1485E+03  0.6546E+03  0.6543E+03
      1.158  0.1529E+03  0.1502E+03  0.6625E+03  0.6621E+03
      1.209  0.1685E+03  0.1676E+03  0.6712E+03  0.6707E+03
      1.261  0.1813E+03  0.1817E+03  0.6806E+03  0.6801E+03
      1.313  0.1848E+03  0.1830E+03  0.6901E+03  0.6896E+03
      1.365  0.1973E+03  0.1988E+03  0.7003E+03  0.6999E+03
      1.416  0.1504E+03  0.1522E+03  0.7081E+03  0.7078E+03
      1.468  0.1450E+03  0.1436E+03  0.7156E+03  0.7152E+03
      1.520  0.2169E+03  0.2117E+03  0.7268E+03  0.7261E+03
      1.571  0.2028E+03  0.2033E+03  0.7373E+03  0.7367E+03
      1.623  0.1843E+03  0.1892E+03  0.7469E+03  0.7464E+03
      1.675  0.1633E+03  0.1601E+03  0.7553E+03  0.7547E+03
      1.727  0.1911E+03  0.1897E+03  0.7652E+03  0.7645E+03
      1.778  0.1767E+03  0.1815E+03  0.7743E+03  0.7739E+03
      1.830  0.1871E+03  0.1840E+03  0.7840E+03  0.7834E+03
      1.882  0.1572E+03  0.1559E+03  0.7921E+03  0.7915E+03
      1.934  0.1936E+03  0.1925E+03  0.8022E+03  0.8015E+03
      1.985  0.1937E+03  0.1971E+03  0.8122E+03  0.8117E+03
      2.037  0.1673E+03  0.1656E+03  0.8208E+03  0.8202E+03
      2.089  0.1736E+03  0.1760E+03  0.8298E+03  0.8293E+03
      2.141  0.1850E+03  0.1809E+03  0.8394E+03  0.8387E+03
      2.192  0.1805E+03  0.1845E+03  0.8487E+03  0.8482E+03
      2.244  0.1598E+03  0.1583E+03  0.8570E+03  0.8564E+03
      2.296  0.1793E+03  0.1804E+03  0.8663E+03  0.8657E+03
      2.347  0.1559E+03  0.1533E+03  0.8743E+03  0.8737E+03
      2.399  0.2063E+03  0.2079E+03  0.8850E+03  0.8844E+03
      2.451  0.1573E+03  0.1579E+03  0.8931E+03  0.8926E+03
      2.503  0.1546E+03  0.1554E+03  0.9011E+03  0.9006E+03
      2.554  0.1549E+03  0.1533E+03  0.9092E+03  0.9086E+03
      2.606  0.1399E+03  0.1412E+03  0.9164E+03  0.9159E+03
      2.658  0.1095E+03  0.1136E+03  0.9221E+03  0.9217E+03
      2.710  0.1621E+03  0.1547E+03  0.9304E+03  0.9297E+03
      2.761  0.1250E+03  0.1312E+03  0.9369E+03  0.9365E+03
      2.813  0.1554E+03  0.1503E+03  0.9450E+03  0.9443E+03
      2.865  0.1498E+03  0.1528E+03  0.9527E+03  0.9522E+03
      2.916  0.1265E+03  0.1258E+03  0.9592E+03  0.9587E+03
      2.968  0.9617E+02  0.9803E+02  0.9642E+03  0.9638E+03
      3.020  0.1327E+03  0.1299E+03  0.9711E+03  0.9705E+03
      3.072  0.1296E+03  0.1333E+03  0.9778E+03  0.9774E+03
      3.123  0.1246E+03  0.1200E+03  0.9842E+03  0.9836E+03
      3.175  0.9803E+02  0.9669E+02  0.9893E+03  0.9886E+03
      3.227  0.1108E+03  0.1156E+03  0.9950E+03  0.9946E+03
      3.279  0.1077E+03  0.1034E+03  0.1001E+04  0.9999E+03
      3.330  0.1104E+03  0.1165E+03  0.1006E+04  0.1006E+04
      3.382  0.7452E+02  0.7502E+02  0.1010E+04  0.1010E+04
      3.434  0.8622E+02  0.8425E+02  0.1015E+04  0.1014E+04
      3.485  0.8424E+02  0.8401E+02  0.1019E+04  0.1019E+04
      3.537  0.8516E+02  0.8483E+02  0.1023E+04  0.1023E+04
      3.589  0.7913E+02  0.8086E+02  0.1027E+04  0.1027E+04
      3.641  0.8120E+02  0.8323E+02  0.1032E+04  0.1031E+04
      3.692  0.3856E+02  0.3760E+02  0.1034E+04  0.1033E+04
      3.744  0.6805E+02  0.6789E+02  0.1037E+04  0.1037E+04
      3.796  0.4738E+02  0.4919E+02  0.1040E+04  0.1039E+04
      3.848  0.5549E+02  0.5515E+02  0.1043E+04  0.1042E+04
      3.899  0.3693E+02  0.3450E+02  0.1044E+04  0.1044E+04
      3.951  0.4434E+02  0.3729E+02  0.1047E+04  0.1046E+04
      4.003  0.7362E+02  0.7902E+02  0.1051E+04  0.1050E+04
      4.054  0.9386E+02  0.7540E+02  0.1055E+04  0.1054E+04
      4.106  0.8555E+02  0.9742E+02  0.1060E+04  0.1059E+04
      4.158  0.1192E+03  0.1174E+03  0.1066E+04  0.1065E+04
      4.210  0.9451E+02  0.9209E+02  0.1071E+04  0.1070E+04
      4.261  0.1061E+03  0.9990E+02  0.1076E+04  0.1075E+04
      4.313  0.7443E+02  0.8970E+02  0.1080E+04  0.1080E+04
      4.365  0.1194E+03  0.1106E+03  0.1086E+04  0.1085E+04
      4.417  0.1272E+03  0.1301E+03  0.1093E+04  0.1092E+04
      4.468  0.1062E+03  0.1071E+03  0.1098E+04  0.1098E+04
      4.520  0.1015E+03  0.1036E+03  0.1104E+04  0.1103E+04
      4.572  0.1180E+03  0.1155E+03  0.1110E+04  0.1109E+04
      4.623  0.1010E+03  0.1038E+03  0.1115E+04  0.1114E+04
      4.675  0.1121E+03  0.1119E+03  0.1121E+04  0.1120E+04
      4.727  0.1438E+03  0.1454E+03  0.1128E+04  0.1128E+04
      4.779  0.1133E+03  0.1111E+03  0.1134E+04  0.1133E+04
      4.830  0.1389E+03  0.1434E+03  0.1141E+04  0.1141E+04
      4.882  0.1068E+03  0.1067E+03  0.1147E+04  0.1146E+04
      4.934  0.1188E+03  0.1184E+03  0.1153E+04  0.1152E+04
      4.986  0.1112E+03  0.1075E+03  0.1159E+04  0.1158E+04
      5.037  0.1234E+03  0.1236E+03  0.1165E+04  0.1164E+04
      5.089  0.1313E+03  0.1293E+03  0.1172E+04  0.1171E+04
      5.141  0.1090E+03  0.1164E+03  0.1178E+04  0.1177E+04
      5.192  0.8912E+02  0.8627E+02  0.1182E+04  0.1182E+04
      5.244  0.1038E+03  0.1077E+03  0.1188E+04  0.1187E+04
      5.296  0.9347E+02  0.9228E+02  0.1192E+04  0.1192E+04
      5.348  0.1193E+03  0.1174E+03  0.1199E+04  0.1198E+04
      5.399  0.1284E+03  0.1271E+03  0.1205E+04  0.1205E+04
      5.451  0.1483E+03  0.1505E+03  0.1213E+04  0.1212E+04
      5.503  0.1431E+03  0.1417E+03  0.1220E+04  0.1220E+04
      5.555  0.1539E+03  0.1525E+03  0.1228E+04  0.1228E+04
      5.606  0.1383E+03  0.1378E+03  0.1235E+04  0.1235E+04
      5.658  0.1223E+03  0.1257E+03  0.1242E+04  0.1241E+04
      5.710  0.1206E+03  0.1207E+03  0.1248E+04  0.1247E+04
      5.762  0.1289E+03  0.1326E+03  0.1255E+04  0.1254E+04
      5.813  0.1240E+03  0.1209E+03  0.1261E+04  0.1261E+04
      5.865  0.1219E+03  0.1274E+03  0.1267E+04  0.1267E+04
      5.917  0.7896E+02  0.7762E+02  0.1271E+04  0.1271E+04
      5.968  0.1114E+02  0.1561E+02  0.1272E+04  0.1272E+04
      6.020  0.0000E+00  0.0000E+00  0.1272E+04  0.1272E+04
      6.072  0.0000E+00  0.0000E+00  0.1272E+04  0.1272E+04
      6.124  0.0000E+00  0.0000E+00  0.1272E+04  0.1272E+04
      6.175  0.0000E+00  0.0000E+00  0.1272E+04  0.1272E+04
      6.227  0.0000E+00  0.0000E+00  0.1272E+04  0.1272E+04
      6.279  0.0000E+00  0.0000E+00  0.1272E+04  0.1272E+04
      6.331  0.0000E+00  0.0000E+00  0.1272E+04  0.1272E+04
      6.382  0.0000E+00  0.0000E+00  0.1272E+04  0.1272E+04
      6.434  0.0000E+00  0.0000E+00  0.1272E+04  0.1272E+04
      6.486  0.0000E+00  0.0000E+00  0.1272E+04  0.1272E+04
      6.537  0.0000E+00  0.0000E+00  0.1272E+04  0.1272E+04
      6.589  0.0000E+00  0.0000E+00  0.1272E+04  0.1272E+04
      6.641  0.0000E+00  0.0000E+00  0.1272E+04  0.1272E+04
