Si and Ge interface calculation         
           1
    19.467600    0.000000    0.000000
     0.000000   19.467600    0.000000
     0.000000    0.000000   19.300253
   Sn   Si
   108   156
Direct configuration=     1
   0.74628931  0.71982777  0.88601178
   0.82836843  0.66666669  0.16811179
   0.61167419  0.39290458  0.53426754
   0.93859696  0.75828928  0.88601178
   0.82836843  0.33333334  0.16811179
   0.66170174  0.33333334  0.33622354
   0.34244323  0.73905861  0.81566292
   0.82836843  0.00000000  0.16811179
   0.66170174  0.00000000  0.33622354
   0.32836846  0.66666669  0.00000000
   0.59244329  0.48905852  0.88601178
   0.99503511  0.66666669  0.33622354
   0.13090470  0.79675090  0.88601178
   0.40013558  0.45059699  0.88601178
   0.99503511  0.33333334  0.33622354
   0.28475085  0.02752006  0.88601178
   0.16170174  0.00000000  0.16811179
   0.99503511  0.00000000  0.33622354
   0.66170180  0.66666669  0.00000000
   0.49503511  0.66666669  0.16811179
   0.32836846  0.66666669  0.33622354
   0.66170180  0.33333334  0.00000000
   0.16936630  0.60444313  0.88601178
   0.76552028  0.62367380  0.53426754
   0.66170180  0.00000000  0.00000000
   0.49503511  0.00000000  0.16811179
   0.32836846  0.00000000  0.33622354
   0.20782784  0.41213542  0.88601178
   0.34244341  0.73905850  0.53426754
   0.49628958  0.96982771  0.53426754
   0.07836843  0.58333343  0.08405589
   0.15013567  0.70059687  0.53426754
   0.68859720  0.00828922  0.53426754
   0.63090479  0.29675081  0.88601178
   0.91170180  0.25000000  0.25216761
   0.09244336  0.98905837  0.60461640
   0.86167407  0.64290464  0.74531406
   0.24503510  0.91666675  0.25216761
   0.07836838  0.91666675  0.42027944
   0.47705862  0.06598163  0.88601178
   0.91936642  0.85444313  0.53426754
   0.88090491  0.04675078  0.53426754
   0.41170177  0.25000000  0.08405589
   0.24503510  0.25000000  0.25216761
   0.03475106  0.27751997  0.53426754
   0.74503517  0.91666675  0.08405589
   0.57836855  0.91666675  0.25216761
   0.41170180  0.91666675  0.42027944
   0.74503517  0.58333343  0.08405589
   0.57836855  0.58333343  0.25216761
   0.41170180  0.58333343  0.42027944
   0.97705853  0.56598157  0.88601178
   0.57836855  0.25000000  0.25216761
   0.41170180  0.25000000  0.42027944
   0.16170177  0.83333331  0.00000000
   0.99503505  0.83333331  0.16811179
   0.82836843  0.83333331  0.33622354
   0.16170177  0.50000000  0.00000000
   0.99503505  0.50000000  0.16811179
   0.38090494  0.54675072  0.53426754
   0.16170177  0.16666667  0.00000000
   0.82321233  0.33521238  0.88601178
   0.95782804  0.66213542  0.53426754
   0.49503511  0.83333331  0.00000000
   0.32836843  0.83333331  0.16811179
   0.22705877  0.31598148  0.53426754
   0.49503511  0.50000000  0.00000000
   0.32836843  0.50000000  0.16811179
   0.16170175  0.50000000  0.33622354
   0.49503511  0.16666667  0.00000000
   0.32836843  0.16666667  0.16811179
   0.61167401  0.89290464  0.67496520
   0.82836855  0.83333331  0.00000000
   0.66170186  0.83333331  0.16811179
   0.49503520  0.83333331  0.33622354
   0.82836855  0.50000000  0.00000000
   0.32321242  0.83521235  0.88601178
   0.72705871  0.81598151  0.53426754
   0.90013546  0.95059699  0.88601178
   0.43859702  0.25828934  0.88601178
   0.49503520  0.16666667  0.33622354
   0.24503510  0.75000006  0.08405589
   0.07836843  0.75000006  0.25216761
   0.91170174  0.75000006  0.42027944
   0.24503510  0.41666672  0.08405589
   0.07836843  0.41666672  0.25216761
   0.91170174  0.41666672  0.42027944
   0.24503510  0.08333334  0.08405589
   0.07836843  0.08333334  0.25216761
   0.91170174  0.08333334  0.42027944
   0.57836848  0.75000006  0.08405589
   0.07321262  0.08521221  0.53426754
   0.24503513  0.75000006  0.42027944
   0.57836848  0.41666672  0.08405589
   0.18859723  0.50828922  0.53426754
   0.24503513  0.41666672  0.42027944
   0.01552010  0.37367386  0.88601178
   0.41170186  0.08333334  0.25216761
   0.24503513  0.08333334  0.42027944
   0.91170174  0.75000006  0.08405589
   0.74503505  0.75000006  0.25216761
   0.57836837  0.75000006  0.42027944
   0.86167389  0.14290464  0.88601178
   0.57321262  0.58521235  0.53426754
   0.65013564  0.20059687  0.53426754
   0.91170174  0.08333334  0.08405589
   0.74503505  0.08333334  0.25216761
   0.57836837  0.08333334  0.42027944
   0.84244347  0.23905837  0.53426754
   0.72705877  0.31598151  0.67496520
   0.61167407  0.39290467  0.81566292
   0.99628961  0.46982759  0.53426754
   0.88090491  0.54675066  0.67496520
   0.76552022  0.62367386  0.81566292
   0.45782804  0.16213530  0.53426754
   0.34244335  0.23905843  0.67496520
   0.22705865  0.31598157  0.81566292
   0.66170174  0.66666669  0.33622354
   0.49628949  0.46982771  0.67496520
   0.38090479  0.54675084  0.81566292
   0.32836846  0.33333334  0.33622354
   0.65013558  0.70059693  0.67496520
   0.53475088  0.77752006  0.81566292
   0.24503510  0.58333343  0.25216761
   0.80398172  0.93136627  0.67496520
   0.68859702  0.00828934  0.81566292
   0.41170186  0.75000006  0.25216761
   0.95782787  0.16213533  0.67496520
   0.84244317  0.23905846  0.81566292
   0.16170175  0.83333331  0.33622354
   0.11167407  0.39290461  0.67496520
   0.99628931  0.46982774  0.81566292
   0.82836843  0.50000000  0.33622354
   0.26552022  0.62367386  0.67496520
   0.15013552  0.70059699  0.81566292
   0.53475112  0.77751988  0.53426754
   0.41936642  0.85444301  0.67496520
   0.30398169  0.93136615  0.81566292
   0.74503505  0.58333343  0.42027944
   0.57321250  0.08521234  0.67496520
   0.45782784  0.16213548  0.81566292
   0.91170180  0.58333343  0.25216761
   0.03475094  0.77752000  0.67496520
   0.91936624  0.85444319  0.81566292
   0.30398187  0.93136609  0.53426754
   0.18859717  0.00828910  0.67496520
   0.07321238  0.08521234  0.81566292
   0.05398178  0.18136609  0.60461640
   0.93859708  0.25828922  0.74531406
   0.99503505  0.16666667  0.16811179
   0.66936642  0.10444307  0.60461640
   0.55398178  0.18136621  0.74531406
   0.66170186  0.16666667  0.16811179
   0.82321268  0.33521223  0.60461640
   0.70782799  0.41213539  0.74531406
   0.16170174  0.66666669  0.16811179
   0.97705877  0.56598145  0.60461640
   0.41170177  0.91666675  0.08405589
   0.99503511  0.66666669  0.00000000
   0.43859726  0.25828916  0.60461640
   0.32321256  0.33521229  0.74531406
   0.07836843  0.91666675  0.08405589
   0.59244335  0.48905846  0.60461640
   0.47705868  0.56598157  0.74531406
   0.36167395  0.64290476  0.88601178
   0.74628949  0.71982765  0.60461640
   0.63090479  0.79675078  0.74531406
   0.51552010  0.87367392  0.88601178
   0.90013564  0.95059693  0.60461640
   0.78475094  0.02752006  0.74531406
   0.66936624  0.10444319  0.88601178
   0.20782799  0.41213533  0.60461640
   0.09244330  0.48905843  0.74531406
   0.74503517  0.25000000  0.08405589
   0.36167413  0.64290464  0.60461640
   0.24628943  0.71982771  0.74531406
   0.32836846  0.33333334  0.00000000
   0.51552028  0.87367380  0.60461640
   0.40013558  0.95059693  0.74531406
   0.32836846  0.00000000  0.00000000
   0.13090490  0.79675072  0.60461640
   0.01552022  0.87367392  0.74531406
   0.82836855  0.16666667  0.00000000
   0.28475106  0.02751994  0.60461640
   0.16936633  0.10444307  0.74531406
   0.05398166  0.18136621  0.88601178
   0.07836838  0.25000000  0.42027944
   0.91936636  0.35444310  0.67496520
   0.80398166  0.43136627  0.81566292
   0.57836837  0.41666672  0.42027944
   0.53475094  0.27752000  0.67496520
   0.41936627  0.35444313  0.81566292
   0.80398190  0.43136618  0.53426754
   0.68859714  0.50828928  0.67496520
   0.57321250  0.58521247  0.81566292
   0.82836843  0.16666667  0.33622354
   0.84244329  0.73905855  0.67496520
   0.72705859  0.81598169  0.81566292
   0.26552033  0.12367377  0.53426754
   0.15013564  0.20059690  0.67496520
   0.03475094  0.27752003  0.81566292
   0.41936651  0.35444304  0.53426754
   0.30398181  0.43136618  0.67496520
   0.18859708  0.50828928  0.81566292
   0.74503505  0.41666672  0.25216761
   0.45782793  0.66213548  0.67496520
   0.99503511  0.00000000  0.00000000
   0.49503520  0.50000000  0.33622354
   0.16170175  0.16666667  0.33622354
   0.49628934  0.96982777  0.81566292
   0.07836838  0.58333343  0.42027944
   0.76552022  0.12367391  0.67496520
   0.65013552  0.20059705  0.81566292
   0.41170186  0.41666672  0.25216761
   0.07321250  0.58521235  0.67496520
   0.95782781  0.66213548  0.81566292
   0.91170180  0.91666675  0.25216761
   0.22705871  0.81598163  0.67496520
   0.11167400  0.89290476  0.81566292
   0.74503505  0.91666675  0.42027944
   0.38090485  0.04675078  0.67496520
   0.26552015  0.12367391  0.81566292
   0.11167413  0.89290458  0.53426754
   0.99628943  0.96982771  0.67496520
   0.88090467  0.04675078  0.81566292
   0.86167425  0.14290453  0.60461640
   0.74628949  0.21982768  0.74531406
   0.07836843  0.25000000  0.08405589
   0.01552022  0.37367377  0.60461640
   0.90013552  0.45059693  0.74531406
   0.78475076  0.52752006  0.88601178
   0.63090497  0.29675070  0.60461640
   0.51552028  0.37367383  0.74531406
   0.16170174  0.33333334  0.16811179
   0.78475118  0.52751994  0.60461640
   0.66936648  0.60444307  0.74531406
   0.55398178  0.68136621  0.88601178
   0.93859738  0.75828922  0.60461640
   0.82321268  0.83521235  0.74531406
   0.70782793  0.91213548  0.88601178
   0.24628955  0.21982756  0.60461640
   0.13090484  0.29675070  0.74531406
   0.57836848  0.08333334  0.08405589
   0.40013573  0.45059687  0.60461640
   0.28475103  0.52752000  0.74531406
   0.49503511  0.33333334  0.16811179
   0.55398184  0.68136609  0.60461640
   0.43859717  0.75828922  0.74531406
   0.66170186  0.50000000  0.16811179
   0.70782804  0.91213542  0.60461640
   0.59244335  0.98905855  0.74531406
   0.41170177  0.58333343  0.08405589
   0.16936642  0.60444301  0.60461640
   0.05398178  0.68136615  0.74531406
   0.99503511  0.33333334  0.00000000
   0.32321259  0.83521223  0.60461640
   0.20782790  0.91213536  0.74531406
   0.09244316  0.98905855  0.88601178
   0.47705883  0.06598151  0.60461640
   0.36167413  0.14290476  0.74531406
   0.24628940  0.21982789  0.88601178
   0.74503505  0.25000000  0.42027944
   0.97705859  0.06598151  0.74531406
   0.91170174  0.41666672  0.08405589
