 vasp.6.4.3 19Mar24 (build Oct 22 2024 11:23:12) complex                        
  
 executed on             LinuxIFC date 2025.06.08  18:24:59
 running   64 mpi-ranks, on    4 nodes
 distrk:  each k-point on   64 cores,    1 groups
 distr:  one band on NCORE=  16 cores,    4 groups


--------------------------------------------------------------------------------------------------------


 INCAR:
   SYSTEM = Si and Ge interface calculation
   ISTART = 0
   ICHARG = 2
   LWAVE = .FALSE.
   LREAL = AUTO
   ENCUT = 700
   ENAUG = 900
   ADDGRID = .TRUE.
   LMAXMIX = 6
   LASPH = .TRUE.
   LMIXTAU = .TRUE.
   NCORE = 16
   NELM = 100
   NBANDS = 375
   EDIFF = 1d-7
   AMIX = 0.6
   ISMEAR = 0
   SIGMA = 0.01
   NELECT = 624
   ISPIN = 2
   NUPDOWN = 1
   LVTOT = .FALSE.
   LVHAR = .TRUE.

 POTCAR:    PAW_PBE Ge 05Jan2001                  
 POTCAR:    PAW_PBE Si 05Jan2001                  
 -----------------------------------------------------------------------------
|                                                                             |
|           W    W    AA    RRRRR   N    N  II  N    N   GGGG   !!!           |
|           W    W   A  A   R    R  NN   N  II  NN   N  G    G  !!!           |
|           W    W  A    A  R    R  N N  N  II  N N  N  G       !!!           |
|           W WW W  AAAAAA  RRRRR   N  N N  II  N  N N  G  GGG   !            |
|           WW  WW  A    A  R   R   N   NN  II  N   NN  G    G                |
|           W    W  A    A  R    R  N    N  II  N    N   GGGG   !!!           |
|                                                                             |
|     You use a magnetic or noncollinear calculation, but did not specify     |
|     the initial magnetic moment with the MAGMOM tag. Note that a            |
|     default of 6.41e-3 will be used for all atoms. This ferromagnetic       |
|     setup may break the symmetry of the crystal, in particular it may       |
|     rule out finding an antiferromagnetic solution. Thence, we              |
|     recommend setting the initial magnetic moment manually or verifying     |
|     carefully that this magnetic setup is desired.                          |
|                                                                             |
 -----------------------------------------------------------------------------

 POTCAR:    PAW_PBE Ge 05Jan2001                  
   VRHFIN =Ge: s2p2                                                                                 
   LEXCH  = PE                                                                                      
   EATOM  =   104.9960 eV,    7.7170 Ry                                                             
                                                                                                    
   TITEL  = PAW_PBE Ge 05Jan2001                                                                    
   LULTRA =        F    use ultrasoft PP ?                                                          
   IUNSCR =        1    unscreen: 0-lin 1-nonlin 2-no                                               
   RPACOR =    2.170    partial core radius                                                         
   POMASS =   72.610; ZVAL   =    4.000    mass and valenz                                          
   RCORE  =    2.300    outmost cutoff radius                                                       
   RWIGS  =    2.300; RWIGS  =    1.217    wigner-seitz radius (au A)                               
   ENMAX  =  173.807; ENMIN  =  130.355 eV                                                          
   ICORE  =        3    local potential                                                             
   LCOR   =        T    correct aug charges                                                         
   LPAW   =        T    paw PP                                                                      
   EAUG   =  385.843                                                                                
   DEXC   =    0.000                                                                                
   RMAX   =    2.342    core radius for proj-oper                                                   
   RAUG   =    1.300    factor for augmentation sphere                                              
   RDEP   =    2.318    radius for radial grids                                                     
   RDEPT  =    2.103    core radius for aug-charge                                                  
                                                                                                    
   Atomic configuration                                                                             
   10 entries                                                                                       
     n  l   j            E        occ.                                                              
     1  0  0.50    -10959.8463   2.0000                                                             
     2  0  0.50     -1371.6056   2.0000                                                             
     2  1  1.50     -1198.4791   6.0000                                                             
     3  0  0.50      -168.4733   2.0000                                                             
     3  1  1.50      -115.6019   6.0000                                                             
     3  2  2.50       -29.3106  10.0000                                                             
     4  0  0.50       -11.7309   2.0000                                                             
     4  1  0.50        -3.8952   2.0000                                                             
     4  2  1.50        -4.0817   0.0000                                                             
     4  3  2.50        -4.0817   0.0000                                                             
   Description                                                                                      
     l       E           TYP  RCUT    TYP  RCUT                                                     
     0    -11.7309493     23  2.300                                                                 
     0     -7.4578696     23  2.300                                                                 
     1     -3.8952261     23  2.300                                                                 
     1      6.1178114     23  2.300                                                                 
     2     -4.0817478     23  2.300                                                                 
     3     -1.3605826      7  2.300                                                                 
  local pseudopotential read in
  partial core-charges read in
  partial kinetic energy density read in
  atomic valenz-charges read in
  non local Contribution for L=           0  read in
    real space projection operators read in
  non local Contribution for L=           0  read in
    real space projection operators read in
  non local Contribution for L=           1  read in
    real space projection operators read in
  non local Contribution for L=           1  read in
    real space projection operators read in
  non local Contribution for L=           2  read in
    real space projection operators read in
    PAW grid and wavefunctions read in
 
   number of l-projection  operators is LMAX  =           5
   number of lm-projection operators is LMMAX =          13
 
 POTCAR:    PAW_PBE Si 05Jan2001                  
   VRHFIN =Si: s2p2                                                                                 
   LEXCH  = PE                                                                                      
   EATOM  =   103.0669 eV,    7.5752 Ry                                                             
                                                                                                    
   TITEL  = PAW_PBE Si 05Jan2001                                                                    
   LULTRA =        F    use ultrasoft PP ?                                                          
   IUNSCR =        1    unscreen: 0-lin 1-nonlin 2-no                                               
   RPACOR =    1.500    partial core radius                                                         
   POMASS =   28.085; ZVAL   =    4.000    mass and valenz                                          
   RCORE  =    1.900    outmost cutoff radius                                                       
   RWIGS  =    2.480; RWIGS  =    1.312    wigner-seitz radius (au A)                               
   ENMAX  =  245.345; ENMIN  =  184.009 eV                                                          
   ICORE  =        2    local potential                                                             
   LCOR   =        T    correct aug charges                                                         
   LPAW   =        T    paw PP                                                                      
   EAUG   =  322.069                                                                                
   DEXC   =    0.000                                                                                
   RMAX   =    1.950    core radius for proj-oper                                                   
   RAUG   =    1.300    factor for augmentation sphere                                              
   RDEP   =    1.993    radius for radial grids                                                     
   RDEPT  =    1.837    core radius for aug-charge                                                  
                                                                                                    
   Atomic configuration                                                                             
    6 entries                                                                                       
     n  l   j            E        occ.                                                              
     1  0  0.50     -1785.8828   2.0000                                                             
     2  0  0.50      -139.4969   2.0000                                                             
     2  1  1.50       -95.5546   6.0000                                                             
     3  0  0.50       -10.8127   2.0000                                                             
     3  1  0.50        -4.0811   2.0000                                                             
     3  2  1.50        -4.0817   0.0000                                                             
   Description                                                                                      
     l       E           TYP  RCUT    TYP  RCUT                                                     
     0    -10.8127223     23  1.900                                                                 
     0     -7.6451159     23  1.900                                                                 
     1     -4.0811372     23  1.900                                                                 
     1      2.4879257     23  1.900                                                                 
     2     -4.0817478      7  1.900                                                                 
  local pseudopotential read in
  partial core-charges read in
  partial kinetic energy density read in
  atomic valenz-charges read in
  non local Contribution for L=           0  read in
    real space projection operators read in
  non local Contribution for L=           0  read in
    real space projection operators read in
  non local Contribution for L=           1  read in
    real space projection operators read in
  non local Contribution for L=           1  read in
    real space projection operators read in
    PAW grid and wavefunctions read in
 
   number of l-projection  operators is LMAX  =           4
   number of lm-projection operators is LMMAX =           8
 
 Optimization of the real space projectors (new method)

 maximal supplied QI-value         = 16.25
 optimisation between [QCUT,QGAM] = [ 13.49, 26.98] = [ 50.95,203.80] Ry 
 Optimized for a Real-space Cutoff    1.25 Angstroem

   l    n(q)    QCUT    max X(q) W(low)/X(q) W(high)/X(q)  e(spline) 
   0     10    13.489    65.336    0.91E-04    0.11E-03    0.34E-06
   0     10    13.489    52.220    0.89E-04    0.11E-03    0.34E-06
   1     10    13.489    36.409    0.22E-03    0.27E-03    0.14E-06
   1     10    13.489    21.334    0.21E-03    0.27E-03    0.14E-06
   2      9    13.489     4.673    0.11E-03    0.12E-03    0.19E-06
 Optimization of the real space projectors (new method)

 maximal supplied QI-value         = 19.84
 optimisation between [QCUT,QGAM] = [ 13.49, 26.99] = [ 50.98,203.92] Ry 
 Optimized for a Real-space Cutoff    1.07 Angstroem

   l    n(q)    QCUT    max X(q) W(low)/X(q) W(high)/X(q)  e(spline) 
   0      9    13.493   159.560    0.22E-03    0.15E-03    0.72E-07
   0      9    13.493   115.863    0.21E-03    0.15E-03    0.71E-07
   1      8    13.493    88.339    0.15E-03    0.11E-03    0.13E-06
   1      8    13.493    48.592    0.15E-03    0.10E-03    0.13E-06
  PAW_PBE Ge 05Jan2001                  :
 energy of atom  1       EATOM= -104.9960
 kinetic energy error for atom=    0.0001 (will be added to EATOM!!)
  PAW_PBE Si 05Jan2001                  :
 energy of atom  2       EATOM= -103.0669
 kinetic energy error for atom=    0.0003 (will be added to EATOM!!)
 
 
 POSCAR: Ge+Si
  positions in direct lattice
  No initial velocities read in


 exchange-correlation table for PE
   RHO(1)=    0.500       N(1)  =     2000
   RHO(2)=  100.500       N(2)  =     4000
 


--------------------------------------------------------------------------------------------------------


 ion  position               nearest neighbor table
   1  0.913  0.910  0.000-  21 2.45  33 2.45  93 2.91
   2  0.538  0.521  0.050-  19 2.45  34 2.45  22 2.45
   3  0.163  0.132  0.100-  20 2.45  35 2.45  23 2.45
   4  0.788  0.743  0.150-  36 2.45  21 2.45  31 2.45  24 2.45
   5  0.413  0.354  0.201-  22 2.45  32 2.45  61 2.76
   6  0.038  0.966  0.251-  23 2.45  33 2.45  49 2.56
   7  0.413  0.910  0.000- 132 1.63  15 2.45  27 2.45
   8  0.038  0.521  0.050- 156 2.41  16 2.45  13 2.45  28 2.45
   9  0.663  0.132  0.100-  14 2.45  29 2.45  17 2.45
  10  0.288  0.743  0.150-  15 2.45  18 2.45  25 2.45  30 2.45
  11  0.913  0.354  0.201-  16 2.45  26 2.45  64 2.75
  12  0.538  0.966  0.251-  52 1.72  17 2.45  27 2.45
  13  0.038  0.660  0.000-   8 2.45  40 2.45 156 2.49  84 2.75
  14  0.663  0.271  0.050-   9 2.45  41 2.45 144 2.76
  15  0.288  0.882  0.100-   7 2.45  10 2.45  42 2.45  37 2.45
  16  0.913  0.493  0.150-   8 2.45  11 2.45  38 2.45
  17  0.538  0.104  0.201-  12 2.45  39 2.45   9 2.45
  18  0.163  0.716  0.251-  67 2.07  40 2.45  10 2.45
  19  0.538  0.660  0.000-  81 2.00   2 2.45  46 2.45
  20  0.163  0.271  0.050-   3 2.45  47 2.45 147 2.75
  21  0.788  0.882  0.100-   1 2.45   4 2.45  43 2.45  48 2.45 135 2.99
  22  0.413  0.493  0.150-   5 2.45  44 2.45   2 2.45
  23  0.038  0.104  0.201- 109 2.41   6 2.45  45 2.45   3 2.45
  24  0.663  0.716  0.251- 124 2.18  46 2.45   4 2.45
  25  0.288  0.660  0.000-  78 2.00  44 2.45  10 2.45
  26  0.913  0.271  0.050-  45 2.45  11 2.45 102 2.99
  27  0.538  0.882  0.100-  43 2.45  46 2.45   7 2.45  12 2.45
  28  0.163  0.493  0.150-  44 2.45  47 2.45   8 2.45
  29  0.788  0.104  0.201-  48 2.45  45 2.45   9 2.45
  30  0.413  0.716  0.251-  46 2.45  10 2.45  70 2.47 121 2.55
  31  0.788  0.660  0.000-  38 2.45   4 2.45 153 2.49  84 2.75
  32  0.413  0.271  0.050- 141 2.41  39 2.45   5 2.45
  33  0.038  0.882  0.100-  37 2.45   6 2.45  40 2.45   1 2.45 138 3.00
  34  0.663  0.493  0.150-  41 2.45  38 2.45   2 2.45 115 2.95
  35  0.288  0.104  0.201- 103 2.41   3 2.45  42 2.45  39 2.45
  36  0.913  0.716  0.251-  40 2.45   4 2.45  73 2.46 127 2.56 100 2.94
  37  0.163  0.910  0.000- 138 2.11  33 2.45  15 2.45
  38  0.788  0.521  0.050- 153 2.41  31 2.45  34 2.45  16 2.45
  39  0.413  0.132  0.100-  32 2.45  17 2.45  35 2.45
  40  0.038  0.743  0.150-  18 2.45  36 2.45  33 2.45  13 2.45
  41  0.663  0.354  0.201-  34 2.45  14 2.45 115 2.99
  42  0.288  0.966  0.251-  15 2.45  35 2.45  49 2.55
  43  0.663  0.910  0.000- 135 2.11  27 2.45  21 2.45
  44  0.288  0.521  0.050-  25 2.45  22 2.45  28 2.45
  45  0.913  0.132  0.100-  26 2.45  29 2.45  23 2.45
  46  0.538  0.743  0.150-  24 2.45  30 2.45  27 2.45  19 2.45
  47  0.163  0.354  0.201-  58 2.41  20 2.45  28 2.45
  48  0.788  0.966  0.251-  55 1.72  29 2.45  21 2.45
  49  0.164  0.970  0.370-  76 2.37 154 2.37  42 2.55   6 2.56
  50  0.164  0.804  0.574- 154 2.37  77 2.37  94 2.37 155 2.37
  51  0.164  0.637  0.779- 156 2.37  95 2.37  78 2.37 155 2.37
  52  0.497  0.970  0.370-  12 1.72  79 2.37 148 2.37
  53  0.497  0.804  0.574-  80 2.37  97 2.37 148 2.37 149 2.37
  54  0.497  0.637  0.779- 150 2.37  98 2.37  81 2.37 149 2.37
  55  0.830  0.970  0.370-  48 1.72  82 2.37 151 2.37
  56  0.830  0.804  0.574-  83 2.37 100 2.37 151 2.37 152 2.37
  57  0.830  0.637  0.779- 153 2.37 101 2.37  84 2.37 152 2.37
  58  0.164  0.304  0.370-  85 2.37 136 2.37  47 2.41
  59  0.164  0.137  0.574- 136 2.37  86 2.37 137 2.37  76 2.37
  60  0.164  0.970  0.779- 138 2.37  87 2.37 137 2.37  77 2.37
  61  0.497  0.304  0.370-  88 2.37 130 2.37   5 2.76
  62  0.497  0.137  0.574-  89 2.37 130 2.37  79 2.37 131 2.37
  63  0.497  0.970  0.779-  90 2.37 132 2.37  80 2.37 131 2.37
  64  0.830  0.304  0.370-  91 2.37 133 2.37  11 2.75
  65  0.830  0.137  0.574-  92 2.37 133 2.37 134 2.37  82 2.37
  66  0.830  0.970  0.779-  93 2.37 135 2.37  83 2.37 134 2.37
  67  0.164  0.637  0.370-  18 2.07 145 2.37  94 2.37
  68  0.164  0.470  0.574- 146 2.37  95 2.37  85 2.37 145 2.37
  69  0.164  0.304  0.779- 147 2.37  96 2.37 146 2.37  86 2.37
  70  0.497  0.637  0.370- 139 2.37  97 2.37  30 2.47
  71  0.497  0.470  0.574- 140 2.37  98 2.37  88 2.37 139 2.37
  72  0.497  0.304  0.779-  99 2.37 141 2.37  89 2.37 140 2.37
  73  0.830  0.637  0.370- 142 2.37 100 2.37  36 2.46
  74  0.830  0.470  0.574- 143 2.37 101 2.37  91 2.37 142 2.37
  75  0.830  0.304  0.779- 102 2.37 144 2.37  92 2.37 143 2.37
  76  0.247  0.054  0.472-  49 2.37  59 2.37 104 2.37 103 2.37
  77  0.247  0.887  0.676-  50 2.37 104 2.37 105 2.37  60 2.37
  78  0.247  0.720  0.881-  25 2.00  51 2.37 105 2.37
  79  0.580  0.054  0.472-  52 2.37 107 2.37  62 2.37 106 2.37
  80  0.580  0.887  0.676-  53 2.37 107 2.37 108 2.37  63 2.37
  81  0.580  0.720  0.881-  19 2.00 108 2.37  54 2.37
  82  0.914  0.054  0.472-  55 2.37  65 2.37 110 2.37 109 2.37
  83  0.914  0.887  0.676-  56 2.37 110 2.37 111 2.37  66 2.37
  84  0.914  0.720  0.881-  57 2.37 111 2.37  13 2.75  31 2.75
  85  0.247  0.387  0.472- 113 2.37  58 2.37  68 2.37 112 2.37
  86  0.247  0.220  0.676-  59 2.37 113 2.37  69 2.37 114 2.37
  87  0.247  0.054  0.881- 114 2.37  60 2.37
  88  0.580  0.387  0.472- 116 2.37  61 2.37  71 2.37 115 2.37
  89  0.580  0.220  0.676-  62 2.37 116 2.37 117 2.37  72 2.37
  90  0.580  0.054  0.881- 117 2.37  63 2.37
  91  0.914  0.387  0.472-  64 2.37 119 2.37  74 2.37 118 2.37
  92  0.914  0.220  0.676-  65 2.37 119 2.37  75 2.37 120 2.37
  93  0.914  0.054  0.881- 120 2.37  66 2.37   1 2.91
  94  0.247  0.720  0.472-  50 2.37 121 2.37  67 2.37 122 2.37
  95  0.247  0.554  0.676- 122 2.37  68 2.37  51 2.37 123 2.37
  96  0.247  0.387  0.881-  69 2.37 123 2.37
  97  0.580  0.720  0.472-  53 2.37 124 2.37  70 2.37 125 2.37
  98  0.580  0.554  0.676- 125 2.37  71 2.37  54 2.37 126 2.37
  99  0.580  0.387  0.881-  72 2.37 126 2.37
 100  0.914  0.720  0.472-  56 2.37 127 2.37  73 2.37 128 2.37  36 2.94
 101  0.914  0.554  0.676- 128 2.37  74 2.37  57 2.37 129 2.37
 102  0.914  0.387  0.881-  75 2.37 129 2.37  26 2.99
 103  0.330  0.137  0.370- 130 2.37  76 2.37  35 2.41
 104  0.330  0.970  0.574- 131 2.37 148 2.37  77 2.37  76 2.37
 105  0.330  0.804  0.779- 132 2.37  77 2.37  78 2.37 149 2.37
 106  0.664  0.137  0.370- 133 2.37  79 2.37
 107  0.664  0.970  0.574-  80 2.37  79 2.37 134 2.37 151 2.37
 108  0.664  0.804  0.779- 135 2.37  80 2.37  81 2.37 152 2.37
 109  0.997  0.137  0.370- 136 2.37  82 2.37  23 2.41
 110  0.997  0.970  0.574- 137 2.37  83 2.37  82 2.37 154 2.37
 111  0.997  0.804  0.779- 138 2.37  83 2.37  84 2.37 155 2.37
 112  0.330  0.470  0.370-  85 2.37 139 2.37
 113  0.330  0.304  0.574-  85 2.37 140 2.37 130 2.37  86 2.37
 114  0.330  0.137  0.779-  87 2.37 131 2.37  86 2.37 141 2.37
 115  0.664  0.470  0.370-  88 2.37 142 2.37  34 2.95  41 2.99
 116  0.664  0.304  0.574-  88 2.37  89 2.37 143 2.37 133 2.37
 117  0.664  0.137  0.779-  90 2.37 134 2.37  89 2.37 144 2.37
 118  0.997  0.470  0.370-  91 2.37 145 2.37
 119  0.997  0.304  0.574-  91 2.37  92 2.37 146 2.37 136 2.37
 120  0.997  0.137  0.779-  93 2.37 137 2.37  92 2.37 147 2.37
 121  0.330  0.804  0.370- 148 2.37  94 2.37  30 2.55
 122  0.330  0.637  0.574- 139 2.37  95 2.37 149 2.37  94 2.37
 123  0.330  0.470  0.779- 140 2.37 150 2.37  96 2.37  95 2.37
 124  0.664  0.804  0.370-  24 2.18  97 2.37 151 2.37
 125  0.664  0.637  0.574- 142 2.37  98 2.37 152 2.37  97 2.37
 126  0.664  0.470  0.779-  99 2.37 143 2.37 153 2.37  98 2.37
 127  0.997  0.804  0.370- 100 2.37 154 2.37  36 2.56
 128  0.997  0.637  0.574- 145 2.37 101 2.37 155 2.37 100 2.37
 129  0.997  0.470  0.779- 146 2.37 156 2.37 102 2.37 101 2.37
 130  0.414  0.220  0.472- 103 2.37  62 2.37 113 2.37  61 2.37
 131  0.414  0.054  0.676- 104 2.37 114 2.37  62 2.37  63 2.37
 132  0.414  0.887  0.881-   7 1.63 105 2.37  63 2.37
 133  0.747  0.220  0.472-  65 2.37 106 2.37  64 2.37 116 2.37
 134  0.747  0.054  0.676-  65 2.37 107 2.37 117 2.37  66 2.37
 135  0.747  0.887  0.881-  43 2.11 108 2.37  66 2.37  21 2.99
 136  0.080  0.220  0.472-  59 2.37 109 2.37  58 2.37 119 2.37
 137  0.080  0.054  0.676-  59 2.37 110 2.37 120 2.37  60 2.37
 138  0.080  0.887  0.881-  37 2.11 111 2.37  60 2.37  33 3.00
 139  0.414  0.554  0.472- 122 2.37  70 2.37 112 2.37  71 2.37
 140  0.414  0.387  0.676-  71 2.37 113 2.37 123 2.37  72 2.37
 141  0.414  0.220  0.881-  72 2.37 114 2.37  32 2.41
 142  0.747  0.554  0.472- 125 2.37  73 2.37  74 2.37 115 2.37
 143  0.747  0.387  0.676-  74 2.37 116 2.37 126 2.37  75 2.37
 144  0.747  0.220  0.881-  75 2.37 117 2.37  14 2.76
 145  0.080  0.554  0.472- 128 2.37  67 2.37  68 2.37 118 2.37
 146  0.080  0.387  0.676-  68 2.37 119 2.37 129 2.37  69 2.37
 147  0.080  0.220  0.881-  69 2.37 120 2.37  20 2.75
 148  0.414  0.887  0.472- 121 2.37  53 2.37 104 2.37  52 2.37
 149  0.414  0.720  0.676- 122 2.37  53 2.37 105 2.37  54 2.37
 150  0.414  0.554  0.881-  54 2.37 123 2.37
 151  0.747  0.887  0.472-  56 2.37 124 2.37 107 2.37  55 2.37
 152  0.747  0.720  0.676-  56 2.37 125 2.37  57 2.37 108 2.37
 153  0.747  0.554  0.881-  57 2.37 126 2.37  38 2.41  31 2.49
 154  0.080  0.887  0.472-  50 2.37 127 2.37 110 2.37  49 2.37
 155  0.080  0.720  0.676-  50 2.37 128 2.37  51 2.37 111 2.37
 156  0.080  0.554  0.881-  51 2.37 129 2.37   8 2.41  13 2.49
 
  LATTYP: Found a simple orthorhombic cell.
 ALAT       =    13.2939195630
 B/A-ratio  =     1.2037590520
 C/A-ratio  =     1.2767793533
  
  Lattice vectors:
  
 A1 = (   0.0000000000,   0.0000000000,  13.2939195630)
 A2 = (  16.0026760100,   0.0000000000,   0.0000000000)
 A3 = (   0.0000000000,  16.9734020230,   0.0000000000)


Analysis of symmetry for initial positions (statically):
=====================================================================
 Subroutine PRICEL returns:
 Original cell was already a primitive cell.
 

 Routine SETGRP: Setting up the symmetry group for a 
 simple orthorhombic supercell.


 Subroutine GETGRP returns: Found  1 space group operations
 (whereof  1 operations were pure point group operations)
 out of a pool of  8 trial point group operations.


The static configuration has the point symmetry C_1 .


Analysis of symmetry for dynamics (positions and initial velocities):
=====================================================================
 Subroutine PRICEL returns:
 Original cell was already a primitive cell.
 

 Routine SETGRP: Setting up the symmetry group for a 
 simple orthorhombic supercell.


 Subroutine GETGRP returns: Found  1 space group operations
 (whereof  1 operations were pure point group operations)
 out of a pool of  8 trial point group operations.


The dynamic configuration has the point symmetry C_1 .


Analysis of structural, dynamic, and magnetic symmetry:
=====================================================================
 Subroutine PRICEL returns:
 Original cell was already a primitive cell.
 

 Routine SETGRP: Setting up the symmetry group for a 
 simple orthorhombic supercell.


 Subroutine GETGRP returns: Found  1 space group operations
 (whereof  1 operations were pure point group operations)
 out of a pool of  8 trial point group operations.


The overall configuration has the point symmetry C_1 .


 Subroutine INISYM returns: Found  1 space group operations
 (whereof  1 operations are pure point group operations),
 and found     1 'primitive' translations


----------------------------------------------------------------------------------------

                                     Primitive cell                                     

  volume of cell :    3610.8925

  direct lattice vectors                    reciprocal lattice vectors
    16.002676010  0.000000000  0.000000000     0.062489549  0.000000000  0.000000000
     0.000000000 16.973402023  0.000000000     0.000000000  0.058915708  0.000000000
     0.000000000  0.000000000 13.293919563     0.000000000  0.000000000  0.075222360

  length of vectors
    16.002676010 16.973402023 13.293919563     0.062489549  0.058915708  0.075222360

  position of ions in fractional coordinates (direct lattice)
     0.913237751  0.910024285  0.000000019
     0.538237751  0.521135390  0.050156742
     0.163237810  0.132246494  0.100313440
     0.788237810  0.743357420  0.150470227
     0.413237810  0.354468584  0.200626925
     0.038237691  0.965579510  0.250783652
     0.413237691  0.910024285  0.000000022
     0.038237717  0.521135330  0.050156742
     0.663237751  0.132246435  0.100313440
     0.288237691  0.743357420  0.150470182
     0.913237810  0.354468465  0.200626925
     0.538237810  0.965579748  0.250783741
     0.038237728  0.660024226  0.000000019
     0.663237751  0.271135300  0.050156724
     0.288237810  0.882246375  0.100313447
     0.913237810  0.493357420  0.150470182
     0.538237691  0.104468405  0.200626895
     0.163237691  0.715579629  0.250783652
     0.538237691  0.660024226  0.000000019
     0.163237706  0.271135300  0.050156724
     0.788237751  0.882246375  0.100313447
     0.413237691  0.493357480  0.150470182
     0.038237751  0.104468465  0.200626940
     0.663237691  0.715579629  0.250783682
     0.288237751  0.660024226  0.000000019
     0.913237751  0.271135300  0.050156724
     0.538237810  0.882246375  0.100313447
     0.163237810  0.493357420  0.150470182
     0.788237810  0.104468465  0.200626895
     0.413237810  0.715579510  0.250783652
     0.788237691  0.660024166  0.000000000
     0.413237721  0.271135300  0.050156724
     0.038237784  0.882246375  0.100313447
     0.663237751  0.493357420  0.150470167
     0.288237691  0.104468465  0.200626895
     0.913237810  0.715579629  0.250783682
     0.163237721  0.910024285  0.000000019
     0.788237691  0.521135330  0.050156742
     0.413237810  0.132246494  0.100313470
     0.038237751  0.743357420  0.150470227
     0.663237810  0.354468584  0.200626880
     0.288237691  0.965579510  0.250783652
     0.663237691  0.910024285  0.000000027
     0.288237751  0.521135330  0.050156724
     0.913237751  0.132246494  0.100313470
     0.538237810  0.743357420  0.150470227
     0.163237691  0.354468465  0.200626880
     0.788237810  0.965579748  0.250783652
     0.163522020  0.970399141  0.370058954
     0.163522020  0.803732395  0.574325264
     0.163522020  0.637065649  0.778591633
     0.496855378  0.970399141  0.370058954
     0.496855378  0.803732395  0.574325264
     0.496855378  0.637065649  0.778591633
     0.830188692  0.970399141  0.370058954
     0.830188692  0.803732395  0.574325264
     0.830188692  0.637065649  0.778591633
     0.163522020  0.303732395  0.370058954
     0.163522020  0.137065768  0.574325264
     0.163522020  0.970399022  0.778591633
     0.496855378  0.303732395  0.370058954
     0.496855378  0.137065768  0.574325264
     0.496855378  0.970399022  0.778591633
     0.830188692  0.303732395  0.370058954
     0.830188692  0.137065768  0.574325264
     0.830188692  0.970399022  0.778591633
     0.163522020  0.637065768  0.370058954
     0.163522020  0.470399022  0.574325264
     0.163522020  0.303732395  0.778591633
     0.496855378  0.637065768  0.370058954
     0.496855378  0.470399022  0.574325264
     0.496855378  0.303732395  0.778591633
     0.830188692  0.637065768  0.370058954
     0.830188692  0.470399022  0.574325264
     0.830188692  0.303732395  0.778591633
     0.246855348  0.053732395  0.472192138
     0.246855348  0.887065649  0.676458359
     0.246855348  0.720399022  0.880724788
     0.580188692  0.053732395  0.472192138
     0.580188692  0.887065649  0.676458359
     0.580188692  0.720399022  0.880724788
     0.913522005  0.053732395  0.472192138
     0.913522005  0.887065649  0.676458359
     0.913522005  0.720399022  0.880724788
     0.246855348  0.387065649  0.472192138
     0.246855348  0.220399022  0.676458359
     0.246855348  0.053732395  0.880724788
     0.580188692  0.387065649  0.472192138
     0.580188692  0.220399022  0.676458359
     0.580188692  0.053732395  0.880724788
     0.913522005  0.387065649  0.472192138
     0.913522005  0.220399022  0.676458359
     0.913522005  0.053732395  0.880724788
     0.246855348  0.720399141  0.472192138
     0.246855348  0.553732395  0.676458359
     0.246855348  0.387065649  0.880724788
     0.580188692  0.720399141  0.472192138
     0.580188692  0.553732395  0.676458359
     0.580188692  0.387065649  0.880724788
     0.913522005  0.720399141  0.472192138
     0.913522005  0.553732395  0.676458359
     0.913522005  0.387065649  0.880724788
     0.330188692  0.137065768  0.370058954
     0.330188692  0.970399022  0.574325264
     0.330188692  0.803732395  0.778591633
     0.663522005  0.137065768  0.370058954
     0.663522005  0.970399022  0.574325264
     0.663522005  0.803732395  0.778591633
     0.996855378  0.137065768  0.370058954
     0.996855378  0.970399022  0.574325264
     0.996855378  0.803732395  0.778591633
     0.330188692  0.470399022  0.370058954
     0.330188692  0.303732395  0.574325264
     0.330188692  0.137065649  0.778591633
     0.663522005  0.470399022  0.370058954
     0.663522005  0.303732395  0.574325264
     0.663522005  0.137065649  0.778591633
     0.996855378  0.470399022  0.370058954
     0.996855378  0.303732395  0.574325264
     0.996855378  0.137065649  0.778591633
     0.330188692  0.803732395  0.370058954
     0.330188692  0.637065649  0.574325264
     0.330188692  0.470399022  0.778591633
     0.663522005  0.803732395  0.370058954
     0.663522005  0.637065649  0.574325264
     0.663522005  0.470399022  0.778591633
     0.996855378  0.803732395  0.370058954
     0.996855378  0.637065649  0.574325264
     0.996855378  0.470399022  0.778591633
     0.413522005  0.220399022  0.472192138
     0.413522005  0.053732395  0.676458359
     0.413522005  0.887065649  0.880724788
     0.746855378  0.220399022  0.472192138
     0.746855378  0.053732395  0.676458359
     0.746855378  0.887065649  0.880724788
     0.080188751  0.220399022  0.472192138
     0.080188751  0.053732395  0.676458359
     0.080188751  0.887065649  0.880724788
     0.413522005  0.553732514  0.472192138
     0.413522005  0.387065768  0.676458359
     0.413522005  0.220399141  0.880724788
     0.746855378  0.553732514  0.472192138
     0.746855378  0.387065768  0.676458359
     0.746855378  0.220399141  0.880724788
     0.080188751  0.553732514  0.472192138
     0.080188751  0.387065768  0.676458359
     0.080188751  0.220399141  0.880724788
     0.413522005  0.887065649  0.472192138
     0.413522005  0.720399022  0.676458359
     0.413522005  0.553732395  0.880724788
     0.746855378  0.887065649  0.472192138
     0.746855378  0.720399022  0.676458359
     0.746855378  0.553732395  0.880724788
     0.080188751  0.887065649  0.472192138
     0.080188751  0.720399022  0.676458359
     0.080188751  0.553732395  0.880724788

  ion indices of the primitive-cell ions
   primitive index   ion index
                 1           1
                 2           2
                 3           3
                 4           4
                 5           5
                 6           6
                 7           7
                 8           8
                 9           9
                10          10
                11          11
                12          12
                13          13
                14          14
                15          15
                16          16
                17          17
                18          18
                19          19
                20          20
                21          21
                22          22
                23          23
                24          24
                25          25
                26          26
                27          27
                28          28
                29          29
                30          30
                31          31
                32          32
                33          33
                34          34
                35          35
                36          36
                37          37
                38          38
                39          39
                40          40
                41          41
                42          42
                43          43
                44          44
                45          45
                46          46
                47          47
                48          48
                49          49
                50          50
                51          51
                52          52
                53          53
                54          54
                55          55
                56          56
                57          57
                58          58
                59          59
                60          60
                61          61
                62          62
                63          63
                64          64
                65          65
                66          66
                67          67
                68          68
                69          69
                70          70
                71          71
                72          72
                73          73
                74          74
                75          75
                76          76
                77          77
                78          78
                79          79
                80          80
                81          81
                82          82
                83          83
                84          84
                85          85
                86          86
                87          87
                88          88
                89          89
                90          90
                91          91
                92          92
                93          93
                94          94
                95          95
                96          96
                97          97
                98          98
                99          99
               100         100
               101         101
               102         102
               103         103
               104         104
               105         105
               106         106
               107         107
               108         108
               109         109
               110         110
               111         111
               112         112
               113         113
               114         114
               115         115
               116         116
               117         117
               118         118
               119         119
               120         120
               121         121
               122         122
               123         123
               124         124
               125         125
               126         126
               127         127
               128         128
               129         129
               130         130
               131         131
               132         132
               133         133
               134         134
               135         135
               136         136
               137         137
               138         138
               139         139
               140         140
               141         141
               142         142
               143         143
               144         144
               145         145
               146         146
               147         147
               148         148
               149         149
               150         150
               151         151
               152         152
               153         153
               154         154
               155         155
               156         156

----------------------------------------------------------------------------------------

 
 
 KPOINTS: Automatic KPOINTS generated             

Automatic generation of k-mesh.
 Grid dimensions read from file:
 generate k-points for:    2    2    2

 Generating k-lattice:

  Cartesian coordinates                     Fractional coordinates (reciprocal lattice)
     0.031244774  0.000000000  0.000000000     0.500000000  0.000000000  0.000000000
     0.000000000  0.029457854  0.000000000     0.000000000  0.500000000  0.000000000
     0.000000000  0.000000000  0.037611180     0.000000000  0.000000000  0.500000000

  Length of vectors
     0.031244774  0.029457854  0.037611180

  Shift w.r.t. Gamma in fractional coordinates (k-lattice)
     0.000000000  0.000000000  0.000000000

 
 Subroutine IBZKPT returns following result:
 ===========================================
 
 Found      8 irreducible k-points:
 
 Following reciprocal coordinates:
            Coordinates               Weight
  0.000000  0.000000  0.000000      1.000000
  0.500000  0.000000  0.000000      1.000000
  0.000000  0.500000  0.000000      1.000000
  0.500000  0.500000  0.000000      1.000000
  0.000000  0.000000  0.500000      1.000000
  0.500000  0.000000  0.500000      1.000000
  0.000000  0.500000  0.500000      1.000000
  0.500000  0.500000  0.500000      1.000000
 
 Following cartesian coordinates:
            Coordinates               Weight
  0.000000  0.000000  0.000000      1.000000
  0.031245  0.000000  0.000000      1.000000
  0.000000  0.029458  0.000000      1.000000
  0.031245  0.029458  0.000000      1.000000
  0.000000  0.000000  0.037611      1.000000
  0.031245  0.000000  0.037611      1.000000
  0.000000  0.029458  0.037611      1.000000
  0.031245  0.029458  0.037611      1.000000
 
 -----------------------------------------------------------------------------
|                                                                             |
|           W    W    AA    RRRRR   N    N  II  N    N   GGGG   !!!           |
|           W    W   A  A   R    R  NN   N  II  NN   N  G    G  !!!           |
|           W    W  A    A  R    R  N N  N  II  N N  N  G       !!!           |
|           W WW W  AAAAAA  RRRRR   N  N N  II  N  N N  G  GGG   !            |
|           WW  WW  A    A  R   R   N   NN  II  N   NN  G    G                |
|           W    W  A    A  R    R  N    N  II  N    N   GGGG   !!!           |
|                                                                             |
|     The number of bands has been changed from the values supplied in        |
|     the INCAR file. This is a result of running the parallel version.       |
|     The orbitals not found in the WAVECAR file will be initialized with     |
|     random numbers, which is usually adequate. For correlated               |
|     calculations, however, you should redo the groundstate calculation.     |
|     I found NBANDS = 375. Now, NBANDS = 376.                                |
|                                                                             |
 -----------------------------------------------------------------------------



--------------------------------------------------------------------------------------------------------




 Dimension of arrays:
   k-points           NKPTS =      8   k-points in BZ     NKDIM =      8   number of bands    NBANDS=    376
   number of dos      NEDOS =    301   number of ions     NIONS =    156
   non local maximal  LDIM  =      5   non local SUM 2l+1 LMDIM =     13
   total plane-waves  NPLWV = ******
   max r-space proj   IRMAX =   2493   max aug-charges    IRDMAX= 131272
   dimension x,y,z NGX =   108 NGY =  112 NGZ =   90
   dimension x,y,z NGXF=   216 NGYF=  224 NGZF=  180
   support grid    NGXF=   432 NGYF=  448 NGZF=  360
   ions per type =              48 108
   NGX,Y,Z   is equivalent  to a cutoff of  11.22, 10.97, 11.25 a.u.
   NGXF,Y,Z  is equivalent  to a cutoff of  22.44, 21.94, 22.51 a.u.

 SYSTEM =  Si and Ge interface calculation         
 POSCAR =  Ge+Si                                   

 Startparameter for this run:
   NWRITE =      2    write-flag & timer
   PREC   = normal    normal or accurate (medium, high low for compatibility)
   ISTART =      0    job   : 0-new  1-cont  2-samecut
   ICHARG =      2    charge: 1-file 2-atom 10-const
   ISPIN  =      2    spin polarized calculation?
   LNONCOLLINEAR =      F non collinear calculations
   LSORBIT =      F    spin-orbit coupling
   INIWAV =      1    electr: 0-lowe 1-rand  2-diag
   LASPH  =      T    aspherical Exc in radial PAW
 Electronic Relaxation 1
   ENCUT  =  700.0 eV  51.45 Ry    7.17 a.u.  34.52 36.62 28.68*2*pi/ulx,y,z
   ENINI  =  700.0     initial cutoff
   ENAUG  =  900.0 eV  augmentation charge cutoff
   NELM   =    100;   NELMIN=  2; NELMDL= -5     # of ELM steps 
   EDIFF  = 0.1E-06   stopping-criterion for ELM
   LREAL  =      T    real-space projection
   NLSPLINE    = F    spline interpolate recip. space projectors
   LCOMPAT=      F    compatible to vasp.4.4
   GGA_COMPAT  = T    GGA compatible to vasp.4.4-vasp.4.6
   LMAXPAW     = -100 max onsite density
   LMAXMIX     =    6 max onsite mixed and CHGCAR
   VOSKOWN=      0    Vosko Wilk Nusair interpolation
   ROPT   =   -0.00050  -0.00050
 Ionic relaxation
   EDIFFG = 0.1E-05   stopping-criterion for IOM
   NSW    =      0    number of steps for IOM
   NBLOCK =      1;   KBLOCK =      1    inner block; outer block 
   IBRION =     -1    ionic relax: 0-MD 1-quasi-New 2-CG
   NFREE  =      0    steps in history (QN), initial steepest desc. (CG)
   ISIF   =      2    stress and relaxation
   IWAVPR =     10    prediction:  0-non 1-charg 2-wave 3-comb
   ISYM   =      2    0-nonsym 1-usesym 2-fastsym
   LCORR  =      T    Harris-Foulkes like correction to forces

   POTIM  = 0.5000    time-step for ionic-motion
   TEIN   =    0.0    initial temperature
   TEBEG  =    0.0;   TEEND  =   0.0 temperature during run
   SMASS  =  -3.00    Nose mass-parameter (am)
   estimated Nose-frequenzy (Omega)   =  0.10E-29 period in steps = 0.13E+47 mass=  -0.585E-26a.u.
   SCALEE = 1.0000    scale energy and forces
   NPACO  =    256;   APACO  = 10.0  distance and # of slots for P.C.
   PSTRESS=    0.0 pullay stress

  Mass of Ions in am
   POMASS =  72.61 28.09
  Ionic Valenz
   ZVAL   =   4.00  4.00
  Atomic Wigner-Seitz radii
   RWIGS  =  -1.00 -1.00
  virtual crystal weights 
   VCA    =   1.00  1.00
   NELECT =     624.0000    total number of electrons
   NUPDOWN=       1.0000    fix difference up-down

 DOS related values:
   EMIN   =  10.00;   EMAX   =-10.00  energy-range for DOS
   EFERMI =   0.00;   METHOD = LEGACY      
   ISMEAR =     0;   SIGMA  =   0.01  broadening in eV -4-tet -1-fermi 0-gaus

 Electronic relaxation 2 (details)
   IALGO  =     38    algorithm
   LDIAG  =      T    sub-space diagonalisation (order eigenvalues)
   LSUBROT=      F    optimize rotation matrix (better conditioning)
   TURBO    =      0    0=normal 1=particle mesh
   IRESTART =      0    0=no restart 2=restart with 2 vectors
   NREBOOT  =      0    no. of reboots
   NMIN     =      0    reboot dimension
   EREF     =   0.00    reference energy to select bands
   IMIX   =      4    mixing-type and parameters
     AMIX     =   0.60;   BMIX     =  1.00
     AMIX_MAG =   2.40;   BMIX_MAG =  1.00
     AMIN     =   0.10
     WC   =   100.;   INIMIX=   1;  MIXPRE=   1;  MAXMIX= -45

 Intra band minimization:
   WEIMIN = 0.0000     energy-eigenvalue tresh-hold
   EBREAK =  0.66E-10  absolut break condition
   DEPER  =   0.30     relativ break condition  

   TIME   =   0.40     timestep for ELM

  volume/ion in A,a.u.               =      23.15       156.20
  Fermi-wavevector in a.u.,A,eV,Ry     =   0.911867  1.723179 11.313264  0.831501
  Thomas-Fermi vector in A             =   2.036196
 
 Write flags
   LWAVE        =      F    write WAVECAR
   LDOWNSAMPLE  =      F    k-point downsampling of WAVECAR
   LCHARG       =      T    write CHGCAR
   LVTOT        =      F    write LOCPOT, total local potential
   LVHAR        =      T    write LOCPOT, Hartree potential only
   WRT_POTENTIAL=  hartree ionic  ! write potential to hdf5 file
   LELF         =      F    write electronic localiz. function (ELF)
   LORBIT       =      0    0 simple, 1 ext, 2 COOP (PROOUT), +10 PAW based schemes


 Dipole corrections
   LMONO      =      F    monopole corrections only (constant potential shift)
   LDIPOL     =      F    correct potential (dipole corrections)
   IDIPOL     =      0    1-x, 2-y, 3-z, 4-all directions 
   EPSILON    =  1.0000000 bulk dielectric constant
   LVACPOTAV  =      F  vacuum potentials using an averaging scheme for the charge density
   VACPOTFLAT =  0.1000000 required flatness to determine vacuum potential
 Exchange correlation treatment:
   GGA     = PE    functional components
   XC_C    = 1    coefficients multiplying the functional components
   LIBXC   =     F    Libxc                    
   VOSKOWN =     0    Vosko Wilk Nusair interpolation
   LHFCALC =     F    Hartree Fock is set to
   LHFONE  =     F    Hartree Fock one center treatment
   AEXX    =    0.0000 exact exchange contribution

 Parameters of functionals:
   PE:
     No parameter
 
 Van der Waals corrections
   IVDW    =     0    specifies the selected vdW correction

 Linear response parameters
   LEPSILON=     F    determine dielectric tensor
   LRPA    =     F    only Hartree local field effects (RPA)
   LNABLA  =     F    use nabla operator in PAW spheres
   LVEL    =     F    velocity operator in full k-point grid
   CSHIFT  =0.1000    complex shift for real part using Kramers Kronig
   OMEGAMAX=  -1.0    maximum frequency
   DEG_THRESHOLD= 0.2000000E-02 threshold for treating states as degnerate
   RTIME   =   -0.100 relaxation time in fs
  (WPLASMAI=    0.000 imaginary part of plasma frequency in eV, 0.658/RTIME)
   DFIELD  = 0.0000000 0.0000000 0.0000000 field for delta impulse in time
 
  Optional k-point grid parameters
   LKPOINTS_OPT  =     F    use optional k-point grid
   KPOINTS_OPT_MODE=     1    mode for optional k-point grid
 
 Orbital magnetization related:
   ORBITALMAG=     F  switch on orbital magnetization
   LCHIMAG   =     F  perturbation theory with respect to B field
   DQ        =  0.001000  dq finite difference perturbation B field
   LLRAUG    =     F  two centre corrections for induced B field
   LBONE     =     F  B-component reconstruction in AE one-centre
   LVGVCALC  =     T  calculate vGv susceptibility
   LVGVAPPL  =     F  apply vGv susceptibility instead of pGv for G=0

 Random number generation:
   RANDOM_GENERATOR = DEFAULT
   PCG_SEED         = not used


--------------------------------------------------------------------------------------------------------


 Static calculation
 charge density and potential will be updated during run
 spin polarized calculation
 Variant of blocked Davidson
 Davidson routine will perform the subspace rotation
 perform sub-space diagonalisation
    after iterative eigenvector-optimisation
 modified Broyden-mixing scheme, WC =      100.0
 initial mixing is a Kerker type mixing with AMIX =  0.6000 and BMIX =      1.0000
 Hartree-type preconditioning will be used
 using additional bands           64
 real space projection scheme for non local part
 use partial core corrections
 calculate Harris-corrections to forces 
   (improved forces if not selfconsistent)
 use gradient corrections 
 use of overlap-Matrix (Vanderbilt PP)
 Gauss-broadening in eV      SIGMA  =   0.01


--------------------------------------------------------------------------------------------------------


  energy-cutoff  :      700.00
  volume of cell :     3610.89
      direct lattice vectors                 reciprocal lattice vectors
    16.002676010  0.000000000  0.000000000     0.062489549  0.000000000  0.000000000
     0.000000000 16.973402023  0.000000000     0.000000000  0.058915708  0.000000000
     0.000000000  0.000000000 13.293919563     0.000000000  0.000000000  0.075222360

  length of vectors
    16.002676010 16.973402023 13.293919563     0.062489549  0.058915708  0.075222360


 
 k-points in units of 2pi/SCALE and weight: Automatic KPOINTS generated             
   0.00000000  0.00000000  0.00000000       0.125
   0.03124477  0.00000000  0.00000000       0.125
   0.00000000  0.02945785  0.00000000       0.125
   0.03124477  0.02945785  0.00000000       0.125
   0.00000000  0.00000000  0.03761118       0.125
   0.03124477  0.00000000  0.03761118       0.125
   0.00000000  0.02945785  0.03761118       0.125
   0.03124477  0.02945785  0.03761118       0.125
 
 k-points in reciprocal lattice and weights: Automatic KPOINTS generated             
   0.00000000  0.00000000  0.00000000       0.125
   0.50000000  0.00000000  0.00000000       0.125
   0.00000000  0.50000000  0.00000000       0.125
   0.50000000  0.50000000  0.00000000       0.125
   0.00000000  0.00000000  0.50000000       0.125
   0.50000000  0.00000000  0.50000000       0.125
   0.00000000  0.50000000  0.50000000       0.125
   0.50000000  0.50000000  0.50000000       0.125
 
 position of ions in fractional coordinates (direct lattice) 
   0.91323775  0.91002428  0.00000002
   0.53823775  0.52113539  0.05015674
   0.16323781  0.13224649  0.10031344
   0.78823781  0.74335742  0.15047023
   0.41323781  0.35446858  0.20062693
   0.03823769  0.96557951  0.25078365
   0.41323769  0.91002428  0.00000002
   0.03823772  0.52113533  0.05015674
   0.66323775  0.13224643  0.10031344
   0.28823769  0.74335742  0.15047018
   0.91323781  0.35446846  0.20062693
   0.53823781  0.96557975  0.25078374
   0.03823773  0.66002423  0.00000002
   0.66323775  0.27113530  0.05015672
   0.28823781  0.88224638  0.10031345
   0.91323781  0.49335742  0.15047018
   0.53823769  0.10446840  0.20062689
   0.16323769  0.71557963  0.25078365
   0.53823769  0.66002423  0.00000002
   0.16323771  0.27113530  0.05015672
   0.78823775  0.88224638  0.10031345
   0.41323769  0.49335748  0.15047018
   0.03823775  0.10446846  0.20062694
   0.66323769  0.71557963  0.25078368
   0.28823775  0.66002423  0.00000002
   0.91323775  0.27113530  0.05015672
   0.53823781  0.88224638  0.10031345
   0.16323781  0.49335742  0.15047018
   0.78823781  0.10446846  0.20062689
   0.41323781  0.71557951  0.25078365
   0.78823769  0.66002417  0.00000000
   0.41323772  0.27113530  0.05015672
   0.03823778  0.88224638  0.10031345
   0.66323775  0.49335742  0.15047017
   0.28823769  0.10446846  0.20062689
   0.91323781  0.71557963  0.25078368
   0.16323772  0.91002428  0.00000002
   0.78823769  0.52113533  0.05015674
   0.41323781  0.13224649  0.10031347
   0.03823775  0.74335742  0.15047023
   0.66323781  0.35446858  0.20062688
   0.28823769  0.96557951  0.25078365
   0.66323769  0.91002428  0.00000003
   0.28823775  0.52113533  0.05015672
   0.91323775  0.13224649  0.10031347
   0.53823781  0.74335742  0.15047023
   0.16323769  0.35446846  0.20062688
   0.78823781  0.96557975  0.25078365
   0.16352202  0.97039914  0.37005895
   0.16352202  0.80373239  0.57432526
   0.16352202  0.63706565  0.77859163
   0.49685538  0.97039914  0.37005895
   0.49685538  0.80373239  0.57432526
   0.49685538  0.63706565  0.77859163
   0.83018869  0.97039914  0.37005895
   0.83018869  0.80373239  0.57432526
   0.83018869  0.63706565  0.77859163
   0.16352202  0.30373239  0.37005895
   0.16352202  0.13706577  0.57432526
   0.16352202  0.97039902  0.77859163
   0.49685538  0.30373239  0.37005895
   0.49685538  0.13706577  0.57432526
   0.49685538  0.97039902  0.77859163
   0.83018869  0.30373239  0.37005895
   0.83018869  0.13706577  0.57432526
   0.83018869  0.97039902  0.77859163
   0.16352202  0.63706577  0.37005895
   0.16352202  0.47039902  0.57432526
   0.16352202  0.30373239  0.77859163
   0.49685538  0.63706577  0.37005895
   0.49685538  0.47039902  0.57432526
   0.49685538  0.30373239  0.77859163
   0.83018869  0.63706577  0.37005895
   0.83018869  0.47039902  0.57432526
   0.83018869  0.30373239  0.77859163
   0.24685535  0.05373239  0.47219214
   0.24685535  0.88706565  0.67645836
   0.24685535  0.72039902  0.88072479
   0.58018869  0.05373239  0.47219214
   0.58018869  0.88706565  0.67645836
   0.58018869  0.72039902  0.88072479
   0.91352200  0.05373239  0.47219214
   0.91352200  0.88706565  0.67645836
   0.91352200  0.72039902  0.88072479
   0.24685535  0.38706565  0.47219214
   0.24685535  0.22039902  0.67645836
   0.24685535  0.05373239  0.88072479
   0.58018869  0.38706565  0.47219214
   0.58018869  0.22039902  0.67645836
   0.58018869  0.05373239  0.88072479
   0.91352200  0.38706565  0.47219214
   0.91352200  0.22039902  0.67645836
   0.91352200  0.05373239  0.88072479
   0.24685535  0.72039914  0.47219214
   0.24685535  0.55373239  0.67645836
   0.24685535  0.38706565  0.88072479
   0.58018869  0.72039914  0.47219214
   0.58018869  0.55373239  0.67645836
   0.58018869  0.38706565  0.88072479
   0.91352200  0.72039914  0.47219214
   0.91352200  0.55373239  0.67645836
   0.91352200  0.38706565  0.88072479
   0.33018869  0.13706577  0.37005895
   0.33018869  0.97039902  0.57432526
   0.33018869  0.80373239  0.77859163
   0.66352200  0.13706577  0.37005895
   0.66352200  0.97039902  0.57432526
   0.66352200  0.80373239  0.77859163
   0.99685538  0.13706577  0.37005895
   0.99685538  0.97039902  0.57432526
   0.99685538  0.80373239  0.77859163
   0.33018869  0.47039902  0.37005895
   0.33018869  0.30373239  0.57432526
   0.33018869  0.13706565  0.77859163
   0.66352200  0.47039902  0.37005895
   0.66352200  0.30373239  0.57432526
   0.66352200  0.13706565  0.77859163
   0.99685538  0.47039902  0.37005895
   0.99685538  0.30373239  0.57432526
   0.99685538  0.13706565  0.77859163
   0.33018869  0.80373239  0.37005895
   0.33018869  0.63706565  0.57432526
   0.33018869  0.47039902  0.77859163
   0.66352200  0.80373239  0.37005895
   0.66352200  0.63706565  0.57432526
   0.66352200  0.47039902  0.77859163
   0.99685538  0.80373239  0.37005895
   0.99685538  0.63706565  0.57432526
   0.99685538  0.47039902  0.77859163
   0.41352200  0.22039902  0.47219214
   0.41352200  0.05373239  0.67645836
   0.41352200  0.88706565  0.88072479
   0.74685538  0.22039902  0.47219214
   0.74685538  0.05373239  0.67645836
   0.74685538  0.88706565  0.88072479
   0.08018875  0.22039902  0.47219214
   0.08018875  0.05373239  0.67645836
   0.08018875  0.88706565  0.88072479
   0.41352200  0.55373251  0.47219214
   0.41352200  0.38706577  0.67645836
   0.41352200  0.22039914  0.88072479
   0.74685538  0.55373251  0.47219214
   0.74685538  0.38706577  0.67645836
   0.74685538  0.22039914  0.88072479
   0.08018875  0.55373251  0.47219214
   0.08018875  0.38706577  0.67645836
   0.08018875  0.22039914  0.88072479
   0.41352200  0.88706565  0.47219214
   0.41352200  0.72039902  0.67645836
   0.41352200  0.55373239  0.88072479
   0.74685538  0.88706565  0.47219214
   0.74685538  0.72039902  0.67645836
   0.74685538  0.55373239  0.88072479
   0.08018875  0.88706565  0.47219214
   0.08018875  0.72039902  0.67645836
   0.08018875  0.55373239  0.88072479
 
 position of ions in cartesian coordinates  (Angst):
  14.61424785 15.44620804  0.00000025
   8.61324435  8.84544048  0.66677969
   2.61224179  2.24467291  1.33355880
  12.61391429 12.61730434  2.00033909
   6.61291079  6.01653778  2.66711820
   0.61190538 16.38916921  3.33389770
   6.61290888 15.44620804  0.00000029
   0.61190580  8.84543946  0.66677969
  10.61357885  2.24467191  1.33355880
   4.61257438 12.61730434  2.00033850
  14.61424879  6.01653576  2.66711820
   8.61324529 16.38917325  3.33389888
   0.61190597 11.20285653  0.00000025
  10.61357885  4.60208845  0.66677945
   4.61257629 14.97472241  1.33355890
  14.61424879  8.37395383  2.00033850
   8.61324339  1.77318424  2.66711780
   2.61223988 12.14582072  3.33389770
   8.61324339 11.20285653  0.00000025
   2.61224012  4.60208845  0.66677945
  12.61391335 14.97472241  1.33355890
   6.61290888  8.37395485  2.00033850
   0.61190634  1.77318526  2.66711840
  10.61357789 12.14582072  3.33389810
   4.61257534 11.20285653  0.00000025
  14.61424785  4.60208845  0.66677945
   8.61324529 14.97472241  1.33355890
   2.61224179  8.37395383  2.00033850
  12.61391429  1.77318526  2.66711780
   6.61291079 12.14581870  3.33389770
  12.61391239 11.20285551  0.00000000
   6.61290936  4.60208845  0.66677945
   0.61190687 14.97472241  1.33355890
  10.61357885  8.37395383  2.00033830
   4.61257438  1.77318526  2.66711780
  14.61424879 12.14582072  3.33389810
   2.61224036 15.44620804  0.00000025
  12.61391239  8.84543946  0.66677969
   6.61291079  2.24467291  1.33355920
   0.61190634 12.61730434  2.00033909
  10.61357979  6.01653778  2.66711760
   4.61257438 16.38916921  3.33389770
  10.61357789 15.44620804  0.00000036
   4.61257534  8.84543946  0.66677945
  14.61424785  2.24467291  1.33355920
   8.61324529 12.61730434  2.00033909
   2.61223988  6.01653576  2.66711760
  12.61391429 16.38917325  3.33389770
   2.61678991 16.47097474  4.91953397
   2.61678991 13.64207306  7.63503386
   2.61678991 10.81317138 10.35053454
   7.95101564 16.47097474  4.91953397
   7.95101564 13.64207306  7.63503386
   7.95101564 10.81317138 10.35053454
  13.28524067 16.47097474  4.91953397
  13.28524067 13.64207306  7.63503386
  13.28524067 10.81317138 10.35053454
   2.61678991  5.15537205  4.91953397
   2.61678991  2.32647238  7.63503386
   2.61678991 16.47097272 10.35053454
   7.95101564  5.15537205  4.91953397
   7.95101564  2.32647238  7.63503386
   7.95101564 16.47097272 10.35053454
  13.28524067  5.15537205  4.91953397
  13.28524067  2.32647238  7.63503386
  13.28524067 16.47097272 10.35053454
   2.61678991 10.81317340  4.91953397
   2.61678991  7.98427171  7.63503386
   2.61678991  5.15537205 10.35053454
   7.95101564 10.81317340  4.91953397
   7.95101564  7.98427171  7.63503386
   7.95101564  5.15537205 10.35053454
  13.28524067 10.81317340  4.91953397
  13.28524067  7.98427171  7.63503386
  13.28524067  5.15537205 10.35053454
   3.95034616  0.91202154  6.27728430
   3.95034616 15.05652188  8.99278301
   3.95034616 12.22762222 11.70828449
   9.28457166  0.91202154  6.27728430
   9.28457166 15.05652188  8.99278301
   9.28457166 12.22762222 11.70828449
  14.61879667  0.91202154  6.27728430
  14.61879667 15.05652188  8.99278301
  14.61879667 12.22762222 11.70828449
   3.95034616  6.56982087  6.27728430
   3.95034616  3.74092121  8.99278301
   3.95034616  0.91202154 11.70828449
   9.28457166  6.56982087  6.27728430
   9.28457166  3.74092121  8.99278301
   9.28457166  0.91202154 11.70828449
  14.61879667  6.56982087  6.27728430
  14.61879667  3.74092121  8.99278301
  14.61879667  0.91202154 11.70828449
   3.95034616 12.22762424  6.27728430
   3.95034616  9.39872255  8.99278301
   3.95034616  6.56982087 11.70828449
   9.28457166 12.22762424  6.27728430
   9.28457166  9.39872255  8.99278301
   9.28457166  6.56982087 11.70828449
  14.61879667 12.22762424  6.27728430
  14.61879667  9.39872255  8.99278301
  14.61879667  6.56982087 11.70828449
   5.28390266  2.32647238  4.91953397
   5.28390266 16.47097272  7.63503386
   5.28390266 13.64207306 10.35053454
  10.61812767  2.32647238  4.91953397
  10.61812767 16.47097272  7.63503386
  10.61812767 13.64207306 10.35053454
  15.95235364  2.32647238  4.91953397
  15.95235364 16.47097272  7.63503386
  15.95235364 13.64207306 10.35053454
   5.28390266  7.98427171  4.91953397
   5.28390266  5.15537205  7.63503386
   5.28390266  2.32647036 10.35053454
  10.61812767  7.98427171  4.91953397
  10.61812767  5.15537205  7.63503386
  10.61812767  2.32647036 10.35053454
  15.95235364  7.98427171  4.91953397
  15.95235364  5.15537205  7.63503386
  15.95235364  2.32647036 10.35053454
   5.28390266 13.64207306  4.91953397
   5.28390266 10.81317138  7.63503386
   5.28390266  7.98427171 10.35053454
  10.61812767 13.64207306  4.91953397
  10.61812767 10.81317138  7.63503386
  10.61812767  7.98427171 10.35053454
  15.95235364 13.64207306  4.91953397
  15.95235364 10.81317138  7.63503386
  15.95235364  7.98427171 10.35053454
   6.61745867  3.74092121  6.27728430
   6.61745867  0.91202154  8.99278301
   6.61745867 15.05652188 11.70828449
  11.95168464  3.74092121  6.27728430
  11.95168464  0.91202154  8.99278301
  11.95168464 15.05652188 11.70828449
   1.28323460  3.74092121  6.27728430
   1.28323460  0.91202154  8.99278301
   1.28323460 15.05652188 11.70828449
   6.61745867  9.39872457  6.27728430
   6.61745867  6.56982289  8.99278301
   6.61745867  3.74092323 11.70828449
  11.95168464  9.39872457  6.27728430
  11.95168464  6.56982289  8.99278301
  11.95168464  3.74092323 11.70828449
   1.28323460  9.39872457  6.27728430
   1.28323460  6.56982289  8.99278301
   1.28323460  3.74092323 11.70828449
   6.61745867 15.05652188  6.27728430
   6.61745867 12.22762222  8.99278301
   6.61745867  9.39872255 11.70828449
  11.95168464 15.05652188  6.27728430
  11.95168464 12.22762222  8.99278301
  11.95168464  9.39872255 11.70828449
   1.28323460 15.05652188  6.27728430
   1.28323460 12.22762222  8.99278301
   1.28323460  9.39872255 11.70828449
 


--------------------------------------------------------------------------------------------------------


 k-point     1 :   0.0000 0.0000 0.0000  plane waves:  151937
 k-point     2 :   0.5000 0.0000 0.0000  plane waves:  151898
 k-point     3 :   0.0000 0.5000 0.0000  plane waves:  151754
 k-point     4 :   0.5000 0.5000 0.0000  plane waves:  151852
 k-point     5 :   0.0000 0.0000 0.5000  plane waves:  151862
 k-point     6 :   0.5000 0.0000 0.5000  plane waves:  151748
 k-point     7 :   0.0000 0.5000 0.5000  plane waves:  151892
 k-point     8 :   0.5000 0.5000 0.5000  plane waves:  151872

 maximum and minimum number of plane-waves per node :      9543     9424

 maximum number of plane-waves:    151937
 maximum index in each direction: 
   IXMAX=   34   IYMAX=   36   IZMAX=   28
   IXMIN=  -35   IYMIN=  -37   IZMIN=  -29


 real space projection operators:
  total allocation   :      21830.94 KBytes
  max/ min on nodes  :       1454.35       1205.73


 parallel 3D FFT for wavefunctions:
    minimum data exchange during FFTs selected (reduces bandwidth)
 parallel 3D FFT for charge:
    minimum data exchange during FFTs selected (reduces bandwidth)


 total amount of memory used by VASP MPI-rank0   310534. kBytes
=======================================================================

   base      :      30000. kBytes
   nonlr-proj:       8248. kBytes
   fftplans  :      22809. kBytes
   grid      :      18686. kBytes
   one-center:        162. kBytes
   wavefun   :     230629. kBytes
 
     INWAV:  cpu time      0.0000: real time      0.0001
 Broyden mixing: mesh for mixing (old mesh)
   NGX = 69   NGY = 73   NGZ = 57
  (NGX  =216   NGY  =224   NGZ  =180)
  gives a total of 287109 points

 initial charge density was supplied:
 charge density of overlapping atoms calculated
 number of electron     624.0000000 magnetization       1.0000000
 keeping initial charge density in first step


--------------------------------------------------------------------------------------------------------


 Maximum index for non-local projection operator          215
 Maximum index for augmentation-charges         3005 (set IRDMAX)


--------------------------------------------------------------------------------------------------------


 First call to EWALD:  gamma=   0.116
 Maximum number of real-space cells 3x 3x 3
 Maximum number of reciprocal cells 3x 3x 2

    FEWALD:  cpu time      0.0042: real time      0.0042


--------------------------------------- Ionic step        1  -------------------------------------------




--------------------------------------- Iteration      1(   1)  ---------------------------------------


    POTLOK:  cpu time      0.3090: real time      0.3111
    SETDIJ:  cpu time      1.3718: real time      1.3778
     EDDAV:  cpu time     47.4036: real time     47.7922
       DOS:  cpu time      0.0039: real time      0.0039
    --------------------------------------------
      LOOP:  cpu time     49.0883: real time     49.4850

 eigenvalue-minimisations  : 12032
 total energy-change (2. order) : 0.2487142E+04  (-0.2750833E+05)
 number of electron     624.0000000 magnetization       1.0000000
 augmentation part      624.0000000 magnetization       1.0000000

 Free energy of the ion-electron system (eV)
  ---------------------------------------------------
  alpha Z        PSCENC =       553.42417968
  Ewald energy   TEWEN  =    -16031.53775434
  -Hartree energ DENC   =     -1834.34530057
  -exchange      EXHF   =         0.00000000
  -V(xc)+E(xc)   XCENC  =     -1389.01036024
  PAW double counting   =     13748.33917439   -11152.86130582
  entropy T*S    EENTRO =        -0.00236430
  eigenvalues    EBANDS =      2422.13648880
  atomic energy  EATOM  =     16170.99902962
  Solvation  Ediel_sol  =         0.00000000
  ---------------------------------------------------
  free energy    TOTEN  =      2487.14178722 eV

  energy without entropy =     2487.14415151  energy(sigma->0) =     2487.14296937


--------------------------------------------------------------------------------------------------------




--------------------------------------- Iteration      1(   2)  ---------------------------------------


     EDDAV:  cpu time     53.3001: real time     53.8011
       DOS:  cpu time      0.0023: real time      0.0023
    --------------------------------------------
      LOOP:  cpu time     53.3024: real time     53.8034

 eigenvalue-minimisations  : 14104
 total energy-change (2. order) :-0.2934494E+04  (-0.2833298E+04)
 number of electron     624.0000000 magnetization       1.0000000
 augmentation part      624.0000000 magnetization       1.0000000

 Free energy of the ion-electron system (eV)
  ---------------------------------------------------
  alpha Z        PSCENC =       553.42417968
  Ewald energy   TEWEN  =    -16031.53775434
  -Hartree energ DENC   =     -1834.34530057
  -exchange      EXHF   =         0.00000000
  -V(xc)+E(xc)   XCENC  =     -1389.01036024
  PAW double counting   =     13748.33917439   -11152.86130582
  entropy T*S    EENTRO =        -0.00328054
  eigenvalues    EBANDS =      -512.35625344
  atomic energy  EATOM  =     16170.99902962
  Solvation  Ediel_sol  =         0.00000000
  ---------------------------------------------------
  free energy    TOTEN  =      -447.35187126 eV

  energy without entropy =     -447.34859072  energy(sigma->0) =     -447.35023099


--------------------------------------------------------------------------------------------------------




--------------------------------------- Iteration      1(   3)  ---------------------------------------


     EDDAV:  cpu time     56.2402: real time     56.7717
       DOS:  cpu time      0.0027: real time      0.0028
    --------------------------------------------
      LOOP:  cpu time     56.2430: real time     56.7745

 eigenvalue-minimisations  : 15096
 total energy-change (2. order) :-0.2740970E+03  (-0.2638539E+03)
 number of electron     624.0000000 magnetization       1.0000000
 augmentation part      624.0000000 magnetization       1.0000000

 Free energy of the ion-electron system (eV)
  ---------------------------------------------------
  alpha Z        PSCENC =       553.42417968
  Ewald energy   TEWEN  =    -16031.53775434
  -Hartree energ DENC   =     -1834.34530057
  -exchange      EXHF   =         0.00000000
  -V(xc)+E(xc)   XCENC  =     -1389.01036024
  PAW double counting   =     13748.33917439   -11152.86130582
  entropy T*S    EENTRO =        -0.00281606
  eigenvalues    EBANDS =      -786.45369464
  atomic energy  EATOM  =     16170.99902962
  Solvation  Ediel_sol  =         0.00000000
  ---------------------------------------------------
  free energy    TOTEN  =      -721.44884799 eV

  energy without entropy =     -721.44603193  energy(sigma->0) =     -721.44743996


--------------------------------------------------------------------------------------------------------




--------------------------------------- Iteration      1(   4)  ---------------------------------------


     EDDAV:  cpu time     54.1658: real time     54.6053
       DOS:  cpu time      0.0024: real time      0.0024
    --------------------------------------------
      LOOP:  cpu time     54.1683: real time     54.6077

 eigenvalue-minimisations  : 14368
 total energy-change (2. order) :-0.1096484E+02  (-0.1071034E+02)
 number of electron     624.0000000 magnetization       1.0000000
 augmentation part      624.0000000 magnetization       1.0000000

 Free energy of the ion-electron system (eV)
  ---------------------------------------------------
  alpha Z        PSCENC =       553.42417968
  Ewald energy   TEWEN  =    -16031.53775434
  -Hartree energ DENC   =     -1834.34530057
  -exchange      EXHF   =         0.00000000
  -V(xc)+E(xc)   XCENC  =     -1389.01036024
  PAW double counting   =     13748.33917439   -11152.86130582
  entropy T*S    EENTRO =        -0.00293169
  eigenvalues    EBANDS =      -797.41842150
  atomic energy  EATOM  =     16170.99902962
  Solvation  Ediel_sol  =         0.00000000
  ---------------------------------------------------
  free energy    TOTEN  =      -732.41369048 eV

  energy without entropy =     -732.41075879  energy(sigma->0) =     -732.41222463


--------------------------------------------------------------------------------------------------------




--------------------------------------- Iteration      1(   5)  ---------------------------------------


     EDDAV:  cpu time     59.9020: real time     60.4650
       DOS:  cpu time      0.0022: real time      0.0022
    CHARGE:  cpu time      2.3433: real time      2.3652
    MIXING:  cpu time      0.0095: real time      0.0096
    --------------------------------------------
      LOOP:  cpu time     62.2571: real time     62.8420

 eigenvalue-minimisations  : 16312
 total energy-change (2. order) :-0.4396980E+00  (-0.4360025E+00)
 number of electron     623.9999997 magnetization       1.0000000
 augmentation part      -58.2073745 magnetization      -0.0606213

 Broyden mixing:
  rms(total) = 0.36091E+01    rms(broyden)= 0.36091E+01
  rms(prec ) = 0.39075E+01
  weight for this iteration     100.00

 Free energy of the ion-electron system (eV)
  ---------------------------------------------------
  alpha Z        PSCENC =       553.42417968
  Ewald energy   TEWEN  =    -16031.53775434
  -Hartree energ DENC   =     -1834.34530057
  -exchange      EXHF   =         0.00000000
  -V(xc)+E(xc)   XCENC  =     -1389.01036024
  PAW double counting   =     13748.33917439   -11152.86130582
  entropy T*S    EENTRO =        -0.00306845
  eigenvalues    EBANDS =      -797.85798278
  atomic energy  EATOM  =     16170.99902962
  Solvation  Ediel_sol  =         0.00000000
  ---------------------------------------------------
  free energy    TOTEN  =      -732.85338851 eV

  energy without entropy =     -732.85032006  energy(sigma->0) =     -732.85185429


--------------------------------------------------------------------------------------------------------




--------------------------------------- Iteration      1(   6)  ---------------------------------------


    POTLOK:  cpu time      0.2912: real time      0.2940
    SETDIJ:  cpu time      1.3590: real time      1.3689
     EDDAV:  cpu time     53.7262: real time     54.1685
       DOS:  cpu time      0.0023: real time      0.0024
    CHARGE:  cpu time      2.3067: real time      2.3240
    MIXING:  cpu time      0.0105: real time      0.0107
    --------------------------------------------
      LOOP:  cpu time     57.6959: real time     58.1685

 eigenvalue-minimisations  : 14184
 total energy-change (2. order) : 0.1396975E+02  (-0.3698572E+01)
 number of electron     623.9999997 magnetization       1.0000000
 augmentation part      -57.7064044 magnetization      -0.0485295

 Broyden mixing:
  rms(total) = 0.16282E+01    rms(broyden)= 0.16282E+01
  rms(prec ) = 0.18638E+01
  weight for this iteration     100.00

 eigenvalues of (default mixing * dielectric matrix)
  average eigenvalue GAMMA=   1.6236
  1.6236

 Free energy of the ion-electron system (eV)
  ---------------------------------------------------
  alpha Z        PSCENC =       553.42417968
  Ewald energy   TEWEN  =    -16031.53775434
  -Hartree energ DENC   =     -2013.69130441
  -exchange      EXHF   =         0.00000000
  -V(xc)+E(xc)   XCENC  =     -1366.37015886
  PAW double counting   =     28723.91991568   -26138.60582329
  entropy T*S    EENTRO =        -0.00266609
  eigenvalues    EBANDS =      -617.01905771
  atomic energy  EATOM  =     16170.99902962
  Solvation  Ediel_sol  =         0.00000000
  ---------------------------------------------------
  free energy    TOTEN  =      -718.88363972 eV

  energy without entropy =     -718.88097363  energy(sigma->0) =     -718.88230668


--------------------------------------------------------------------------------------------------------




--------------------------------------- Iteration      1(   7)  ---------------------------------------


    POTLOK:  cpu time      0.2932: real time      0.2963
    SETDIJ:  cpu time      1.3606: real time      1.3663
     EDDAV:  cpu time     56.4936: real time     56.9526
       DOS:  cpu time      0.0036: real time      0.0036
    CHARGE:  cpu time      2.3123: real time      2.3295
    MIXING:  cpu time      0.0093: real time      0.0094
    --------------------------------------------
      LOOP:  cpu time     60.4725: real time     60.9577

 eigenvalue-minimisations  : 15112
 total energy-change (2. order) :-0.1538744E+01  (-0.2761898E+01)
 number of electron     623.9999997 magnetization       1.0000000
 augmentation part      -57.5791407 magnetization      -0.0541903

 Broyden mixing:
  rms(total) = 0.92621E+00    rms(broyden)= 0.92621E+00
  rms(prec ) = 0.16618E+01
  weight for this iteration     100.00

 eigenvalues of (default mixing * dielectric matrix)
  average eigenvalue GAMMA=   1.1340
  1.7770  0.4911

 Free energy of the ion-electron system (eV)
  ---------------------------------------------------
  alpha Z        PSCENC =       553.42417968
  Ewald energy   TEWEN  =    -16031.53775434
  -Hartree energ DENC   =     -2061.10500215
  -exchange      EXHF   =         0.00000000
  -V(xc)+E(xc)   XCENC  =     -1354.34085166
  PAW double counting   =     40874.58864792   -38294.14473315
  entropy T*S    EENTRO =        -0.00332490
  eigenvalues    EBANDS =      -578.30257496
  atomic energy  EATOM  =     16170.99902962
  Solvation  Ediel_sol  =         0.00000000
  ---------------------------------------------------
  free energy    TOTEN  =      -720.42238394 eV

  energy without entropy =     -720.41905904  energy(sigma->0) =     -720.42072149


--------------------------------------------------------------------------------------------------------




--------------------------------------- Iteration      1(   8)  ---------------------------------------


    POTLOK:  cpu time      0.2914: real time      0.2934
    SETDIJ:  cpu time      1.3621: real time      1.3679
     EDDAV:  cpu time     57.9217: real time     58.4022
       DOS:  cpu time      0.0031: real time      0.0031
    CHARGE:  cpu time      2.3139: real time      2.3393
    MIXING:  cpu time      0.0093: real time      0.0093
    --------------------------------------------
      LOOP:  cpu time     61.9015: real time     62.4152

 eigenvalue-minimisations  : 15568
 total energy-change (2. order) : 0.2647959E+01  (-0.1034586E+01)
 number of electron     623.9999997 magnetization       1.0000000
 augmentation part      -57.4947073 magnetization      -0.0516602

 Broyden mixing:
  rms(total) = 0.35662E+00    rms(broyden)= 0.35662E+00
  rms(prec ) = 0.45417E+00
  weight for this iteration     100.00

 eigenvalues of (default mixing * dielectric matrix)
  average eigenvalue GAMMA=   1.0149
  1.8456  0.7042  0.4948

 Free energy of the ion-electron system (eV)
  ---------------------------------------------------
  alpha Z        PSCENC =       553.42417968
  Ewald energy   TEWEN  =    -16031.53775434
  -Hartree energ DENC   =     -2093.74758429
  -exchange      EXHF   =         0.00000000
  -V(xc)+E(xc)   XCENC  =     -1350.12172080
  PAW double counting   =     46966.95851159   -44388.27623281
  entropy T*S    EENTRO =        -0.00273732
  eigenvalues    EBANDS =      -545.47011611
  atomic energy  EATOM  =     16170.99902962
  Solvation  Ediel_sol  =         0.00000000
  ---------------------------------------------------
  free energy    TOTEN  =      -717.77442479 eV

  energy without entropy =     -717.77168747  energy(sigma->0) =     -717.77305613


--------------------------------------------------------------------------------------------------------




--------------------------------------- Iteration      1(   9)  ---------------------------------------


    POTLOK:  cpu time      0.2916: real time      0.2937
    SETDIJ:  cpu time      1.3638: real time      1.3695
     EDDAV:  cpu time     53.5688: real time     54.0089
       DOS:  cpu time      0.0030: real time      0.0030
    CHARGE:  cpu time      2.2971: real time      2.3142
    MIXING:  cpu time      0.0111: real time      0.0112
    --------------------------------------------
      LOOP:  cpu time     57.5355: real time     58.0004

 eigenvalue-minimisations  : 14104
 total energy-change (2. order) : 0.8184629E-01  (-0.2066736E+00)
 number of electron     623.9999997 magnetization       1.0000000
 augmentation part      -57.5302573 magnetization      -0.0548552

 Broyden mixing:
  rms(total) = 0.18831E+00    rms(broyden)= 0.18831E+00
  rms(prec ) = 0.21103E+00
  weight for this iteration     100.00

 eigenvalues of (default mixing * dielectric matrix)
  average eigenvalue GAMMA=   1.0141
  1.7610  1.0219  0.8706  0.4030

 Free energy of the ion-electron system (eV)
  ---------------------------------------------------
  alpha Z        PSCENC =       553.42417968
  Ewald energy   TEWEN  =    -16031.53775434
  -Hartree energ DENC   =     -2094.21185375
  -exchange      EXHF   =         0.00000000
  -V(xc)+E(xc)   XCENC  =     -1349.52023749
  PAW double counting   =     49412.77219292   -46834.37403965
  entropy T*S    EENTRO =        -0.00339225
[...]
   -.592E+00 0.165E+02 -.314E+02   0.502E+00 -.167E+02 0.316E+02   0.151E+00 -.105E-01 -.126E+00   0.396E-04 0.896E-05 -.181E-05
   -.679E+00 -.193E+02 0.252E+02   0.372E-01 0.168E+02 -.262E+02   0.384E+00 0.385E+01 0.308E+01   -.345E-04 -.326E-04 -.137E-05
   -.238E+00 0.125E+02 0.134E+02   0.763E-03 -.124E+02 -.129E+02   0.253E+00 0.355E-01 -.584E+00   -.175E-04 -.239E-04 -.206E-04
   -.455E+00 0.158E+02 -.326E+02   -.409E-02 -.162E+02 0.324E+02   0.230E+00 0.310E+00 0.254E+00   -.180E-04 -.194E-04 0.169E-04
   -.334E+01 -.654E+01 0.331E+02   0.342E+01 0.603E+01 -.321E+02   -.104E+00 0.585E+00 -.119E+01   0.568E-05 -.444E-04 -.785E-05
   -.561E+00 0.128E+02 0.133E+02   0.965E-01 -.124E+02 -.132E+02   0.395E+00 -.371E+00 0.543E-02   -.105E-04 0.589E-05 0.231E-04
   0.345E+00 0.168E+02 -.317E+02   -.498E+00 -.167E+02 0.316E+02   0.100E+00 0.948E-02 0.224E+00   -.213E-04 0.420E-04 0.222E-04
   0.188E+00 -.981E+01 0.373E+02   -.195E-03 0.105E+02 -.369E+02   -.259E+00 -.636E+00 -.864E+00   0.284E-04 -.238E-05 -.193E-04
   -.145E+00 -.131E+02 -.157E+02   0.505E-03 0.132E+02 0.153E+02   0.112E+00 -.599E-01 0.406E+00   0.119E-04 -.795E-05 0.511E-04
   0.329E+00 0.401E+01 0.169E+02   0.170E+00 -.463E+01 -.180E+02   -.340E+00 -.623E+01 -.283E+02   0.321E-05 0.732E-04 0.655E-04
   -.473E+00 -.114E+02 0.373E+02   -.283E-01 0.110E+02 -.369E+02   0.344E+00 0.323E+00 -.745E+00   -.708E-04 0.312E-04 0.447E-04
   0.135E+00 -.131E+02 -.152E+02   0.542E-01 0.132E+02 0.155E+02   -.224E+00 -.364E-01 -.402E+00   -.271E-04 -.109E-04 0.438E-04
   -.160E+02 -.615E+01 -.182E+02   0.138E+02 0.581E+01 0.179E+02   0.413E+01 -.844E+00 -.285E+01   -.256E-05 0.877E-06 0.140E-04
   -.365E+00 -.115E+02 0.373E+02   0.285E-01 0.110E+02 -.369E+02   0.255E+00 0.405E+00 -.884E+00   0.577E-04 -.395E-05 0.531E-04
   0.704E+00 -.136E+02 -.154E+02   -.547E-01 0.132E+02 0.155E+02   -.530E+00 0.452E+00 -.206E+00   0.344E-04 -.182E-04 0.514E-04
   0.165E+02 -.521E+01 -.183E+02   -.140E+02 0.574E+01 0.177E+02   -.450E+01 -.949E+00 -.268E+01   0.220E-04 0.943E-05 0.145E-04
   -.128E+00 0.161E+02 0.367E+02   0.358E-02 -.162E+02 -.370E+02   0.165E+00 0.425E-01 0.202E+00   0.551E-04 0.364E-04 -.211E-04
   0.102E-01 0.638E+01 -.125E+02   0.142E-03 -.624E+01 0.125E+02   0.677E-01 -.692E-01 -.651E-01   0.371E-04 -.116E-04 0.290E-05
   0.108E+01 -.329E+00 -.465E+02   0.472E-01 0.599E+00 0.453E+02   -.806E+00 -.328E-01 0.964E+00   0.362E-04 -.355E-04 0.583E-04
   -.966E+00 0.151E+02 0.385E+02   0.423E+00 -.160E+02 -.376E+02   0.554E+00 0.578E+00 -.114E+01   -.392E-04 0.873E-05 -.720E-05
   0.382E+00 0.635E+01 -.128E+02   0.140E-01 -.629E+01 0.125E+02   -.345E+00 0.660E-01 0.239E+00   -.413E-04 0.280E-04 0.154E-04
   -.464E+01 -.330E+01 -.560E+02   0.523E+01 0.303E+01 0.553E+02   -.491E+00 0.582E+00 0.144E+01   -.547E-04 0.181E-04 0.122E-04
   -.763E+00 0.151E+02 0.382E+02   -.426E+00 -.160E+02 -.376E+02   0.950E+00 0.865E+00 -.850E+00   0.297E-04 0.613E-04 0.406E-04
   0.140E+00 0.606E+01 -.127E+02   -.142E-01 -.629E+01 0.125E+02   -.483E-01 0.265E+00 0.170E+00   0.459E-05 0.236E-04 0.239E-04
   0.563E+01 -.240E+01 -.567E+02   -.528E+01 0.301E+01 0.552E+02   -.528E-01 -.178E-01 0.205E+01   0.316E-04 -.367E-04 0.575E-05
   -.120E+00 -.366E+01 0.213E+02   -.793E-02 0.303E+01 -.216E+02   0.144E+00 0.390E+00 0.289E+00   0.495E-06 -.128E-05 -.896E-05
   0.347E+00 0.551E+01 -.754E+01   -.955E-03 -.568E+01 0.688E+01   -.277E+00 0.198E+00 0.608E+00   0.278E-05 0.143E-04 -.716E-05
   0.311E+00 0.251E+02 -.411E+02   -.711E-01 -.257E+02 0.406E+02   -.116E+00 0.624E+00 0.114E+01   0.159E-04 -.229E-04 0.263E-04
   0.211E+01 -.148E+01 0.200E+02   -.994E+00 0.191E+01 -.198E+02   -.717E+00 -.653E+00 -.204E+00   -.371E-04 -.359E-04 0.116E-04
   0.324E-01 0.584E+01 -.690E+01   -.119E+00 -.559E+01 0.660E+01   -.241E-01 -.426E+00 0.265E+00   -.370E-05 -.102E-04 0.121E-04
   0.100E+02 0.297E+02 -.271E+02   -.959E+01 -.301E+02 0.262E+02   -.542E+00 0.160E-01 0.361E+00   -.690E-05 -.782E-05 0.239E-04
   -.127E+00 -.186E+01 0.204E+02   0.100E+01 0.192E+01 -.199E+02   -.491E+00 -.315E+00 -.511E+00   0.420E-04 -.122E-04 0.122E-04
   -.175E+00 0.539E+01 -.704E+01   0.120E+00 -.559E+01 0.661E+01   0.831E-01 0.974E-01 0.411E+00   -.866E-06 -.138E-04 0.232E-04
   -.930E+01 0.294E+02 -.276E+02   0.966E+01 -.301E+02 0.263E+02   0.168E-01 0.345E+00 0.545E+00   -.296E-04 0.412E-04 0.226E-04
 -----------------------------------------------------------------------------------------------
   0.290E+01 -.289E+01 0.122E+01   -.156E-12 -.163E-12 -.963E-12   -.308E+01 0.267E+01 -.107E+01   0.366E-04 -.875E-04 0.331E-03
 
 
 POSITION                                       TOTAL-FORCE (eV/Angst)
 -----------------------------------------------------------------------------------
     14.61425     15.44621      0.00000         0.351831      0.712785     -1.375861
      8.61324      8.84544      0.66678        -0.457130     -0.558592     -1.284745
      2.61224      2.24467      1.33356         0.273405     -0.359231     -0.814111
     12.61391     12.61730      2.00034        -0.216858      0.274011     -0.260794
      6.61291      6.01654      2.66712        -0.027015      0.031804      1.515484
      0.61191     16.38917      3.33390         0.080436     -0.016952      0.921821
      6.61291     15.44621      0.00000        -0.330371      7.018665     28.736780
      0.61191      8.84544      0.66678         0.138976     -0.572202      0.359018
     10.61358      2.24467      1.33356        -0.492711     -0.408183     -0.426570
      4.61257     12.61730      2.00034         0.238958     -0.361077      0.076802
     14.61425      6.01654      2.66712        -0.377305     -0.592258      1.024438
      8.61325     16.38917      3.33390         8.216651     -1.200787    -19.259055
      0.61191     11.20286      0.00000        -0.805871      0.786839     -0.998750
     10.61358      4.60209      0.66678         0.297003     -0.040258     -2.035749
      4.61258     14.97472      1.33356         0.175018     -0.076559      0.319494
     14.61425      8.37395      2.00034         0.169088      0.101935      1.011818
      8.61324      1.77318      2.66712         0.629975      0.482068      0.535665
      2.61224     12.14582      3.33390        -0.665744      2.665402     -3.050650
      8.61324     11.20286      0.00000        -1.798033     -2.248167      4.748694
      2.61224      4.60209      0.66678        -0.037410      0.171869     -1.110476
     12.61391     14.97472      1.33356        -0.412245      0.458851      0.646183
      6.61291      8.37395      2.00034        -0.208370      0.351109      0.791033
      0.61191      1.77319      2.66712        -0.258941      0.026772      0.329053
     10.61358     12.14582      3.33390         0.647963     -1.744436     -1.104881
      4.61258     11.20286      0.00000         2.418939     -3.363116      4.521732
     14.61425      4.60209      0.66678         0.112437      0.600444     -1.283990
      8.61325     14.97472      1.33356        -0.231299      0.301806      0.112332
      2.61224      8.37395      2.00034         0.173089      0.352413      0.771993
     12.61391      1.77319      2.66712        -0.398316      0.285013      0.567567
      6.61291     12.14582      3.33390         0.049879      0.054624      0.962499
     12.61391     11.20286      0.00000         0.439265      1.543776     -0.314950
      6.61291      4.60209      0.66678         0.097997     -0.389187     -0.626887
      0.61191     14.97472      1.33356        -0.033027     -0.145449      0.435184
     10.61358      8.37395      2.00034         0.046072      0.123582      1.071377
      4.61257      1.77319      2.66712         0.355960      0.314285      0.409623
     14.61425     12.14582      3.33390        -0.201039     -0.178702     -0.035624
      2.61224     15.44621      0.00000         2.296699      0.717345      2.380771
     12.61391      8.84544      0.66678         0.356282     -0.640243     -0.409368
      6.61291      2.24467      1.33356         0.090380     -0.399422     -0.344608
      0.61191     12.61730      2.00034         0.465569     -0.215859     -0.153753
     10.61358      6.01654      2.66712         0.143407     -0.148592      1.185442
      4.61257     16.38917      3.33390        -0.402291     -1.015846      0.988663
     10.61358     15.44621      0.00000        -2.059802      1.783541      2.155899
      4.61258      8.84544      0.66678        -0.195317     -0.436987     -0.679589
     14.61425      2.24467      1.33356        -0.126196     -0.387009     -1.161034
      8.61325     12.61730      2.00034        -0.266329      0.121767     -0.008797
      2.61224      6.01654      2.66712        -0.300087     -0.085687      0.509884
     12.61391     16.38917      3.33390        -7.912206     -0.810339    -18.991639
      2.61679     16.47097      4.91953        -0.001133     -0.205218     -0.577592
      2.61679     13.64207      7.63503        -0.110814     -0.042336      0.084503
      2.61679     10.81317     10.35053         0.279167     -0.107063      0.055805
      7.95102     16.47097      4.91953        -8.207378      0.734997     19.655799
      7.95102     13.64207      7.63503        -0.080329     -0.055149      0.150491
      7.95102     10.81317     10.35053         0.131496      0.029076     -0.237538
     13.28524     16.47097      4.91953         8.032108      0.529777     19.509126
     13.28524     13.64207      7.63503        -0.051663     -0.044279      0.254237
     13.28524     10.81317     10.35053         0.427641     -0.269058     -0.180169
      2.61679      5.15537      4.91953         0.260566      0.238824      0.194786
      2.61679      2.32647      7.63503         0.083756     -0.024260      0.078173
      2.61679     16.47097     10.35053        -0.235443      0.303382     -0.359179
      7.95102      5.15537      4.91953        -0.054250      0.143026     -0.887950
      7.95102      2.32647      7.63503         0.110516      0.009536     -0.024179
      7.95102     16.47097     10.35053         0.396376     -0.246563      0.031393
     13.28524      5.15537      4.91953         0.522529      0.558638     -0.828075
     13.28524      2.32647      7.63503         0.111698     -0.086840     -0.055315
     13.28524     16.47097     10.35053        -0.121797      0.444650      0.234422
      2.61679     10.81317      4.91953         0.505675     -2.950850      3.546096
      2.61679      7.98427      7.63503         0.147278      0.071388     -0.039686
      2.61679      5.15537     10.35053        -0.049436      0.015738      0.083046
      7.95102     10.81317      4.91953        -0.033118     -0.440337     -0.042008
      7.95102      7.98427      7.63503         0.046735      0.085418      0.051241
      7.95102      5.15537     10.35053        -0.182863      0.095387      0.193931
     13.28524     10.81317      4.91953         0.238096      0.179583      0.112262
     13.28524      7.98427      7.63503         0.151848     -0.003299      0.026395
     13.28524      5.15537     10.35053        -0.064164      0.136678      0.162979
      3.95035      0.91202      6.27728        -0.150718      0.337795     -0.042523
      3.95035     15.05652      8.99278        -0.015973     -0.070213     -0.098459
      3.95035     12.22762     11.70828        -2.435170      3.044254     -5.237977
      9.28457      0.91202      6.27728         0.050082      0.080721     -0.038924
      9.28457     15.05652      8.99278        -0.077722      0.000538     -0.100685
      9.28457     12.22762     11.70828         1.810755      2.532269     -5.022965
     14.61880      0.91202      6.27728         0.021055      0.136992     -0.317643
     14.61880     15.05652      8.99278        -0.032389     -0.067488      0.032159
     14.61880     12.22762     11.70828         0.062011     -0.644784      1.045831
      3.95035      6.56982      6.27728         0.006548     -0.037477     -0.338718
      3.95035      3.74092      8.99278        -0.037856      0.014625     -0.050015
      3.95035      0.91202     11.70828        -0.437124     -0.036450      0.753292
      9.28457      6.56982      6.27728        -0.146513      0.212379     -0.356437
      9.28457      3.74092      8.99278        -0.024841     -0.004456     -0.032862
      9.28457      0.91202     11.70828         0.239412      0.173562      0.919993
     14.61880      6.56982      6.27728        -0.093176      0.140103     -0.069637
     14.61880      3.74092      8.99278        -0.100514     -0.024184      0.029308
     14.61880      0.91202     11.70828        -0.403731     -0.307736      1.186276
      3.95035     12.22762      6.27728         0.155529     -0.258411     -0.062007
      3.95035      9.39872      8.99278        -0.046175      0.048649     -0.086331
      3.95035      6.56982     11.70828        -0.066253     -0.018853      0.637193
      9.28457     12.22762      6.27728        -0.303388      0.428527     -0.008453
      9.28457      9.39872      8.99278        -0.087620     -0.167632     -0.078962
      9.28457      6.56982     11.70828         0.112969      0.111752      0.908922
     14.61880     12.22762      6.27728        -0.091857     -0.124033      0.488156
     14.61880      9.39872      8.99278        -0.147932     -0.091794     -0.198569
     14.61880      6.56982     11.70828        -0.284915     -0.558769      0.793906
      5.28390      2.32647      4.91953        -0.435476      0.042343      0.250532
      5.28390     16.47097      7.63503        -0.010672     -0.088935      0.031651
      5.28390     13.64207     10.35053        -0.251276      0.207760      0.171622
     10.61813      2.32647      4.91953        -0.232098      0.121782     -0.937796
     10.61813     16.47097      7.63503        -0.139652     -0.119725      0.063121
     10.61813     13.64207     10.35053         0.201665      0.083747      0.036194
     15.95235      2.32647      4.91953        -0.264837      0.480358      0.263043
     15.95235     16.47097      7.63503        -0.092226      0.098611      0.033684
     15.95235     13.64207     10.35053        -0.100468     -0.022797      0.204890
      5.28390      7.98427      4.91953         0.122418      0.147293     -0.617143
      5.28390      5.15537      7.63503        -0.061743      0.014150      0.025314
      5.28390      2.32647     10.35053        -0.214692      0.003092      0.305996
     10.61813      7.98427      4.91953        -0.050766      0.099989     -0.765277
     10.61813      5.15537      7.63503         0.005882      0.038857     -0.010864
     10.61813      2.32647     10.35053        -0.010666     -0.171764      0.167557
     15.95235      7.98427      4.91953        -0.317731     -0.190451     -0.646894
     15.95235      5.15537      7.63503        -0.044369      0.116346      0.021922
     15.95235      2.32647     10.35053         0.144131     -0.222544      0.298450
      5.28390     13.64207      4.91953         0.586878      0.378304     -0.282594
      5.28390     10.81317      7.63503         0.049447      0.047039      0.136819
      5.28390      7.98427     10.35053         0.062753     -0.253039      0.035109
     10.61813     13.64207      4.91953        -0.256984      1.376143      2.090746
     10.61813     10.81317      7.63503         0.017157      0.092569     -0.063696
     10.61813      7.98427     10.35053        -0.228038     -0.125552      0.106819
     15.95235     13.64207      4.91953        -0.021068      0.073121     -0.205881
     15.95235     10.81317      7.63503        -0.068656      0.001096      0.153987
     15.95235      7.98427     10.35053        -0.051704      0.087333      0.100647
      6.61746      3.74092      6.27728        -0.069932      0.095667     -0.465353
      6.61746      0.91202      8.99278        -0.031190      0.009503      0.022973
      6.61746     15.05652     11.70828         0.160222     -6.860154    -29.395347
     11.95168      3.74092      6.27728        -0.155846     -0.053683     -0.311917
     11.95168      0.91202      8.99278        -0.033899      0.032194     -0.125622
     11.95168     15.05652     11.70828         1.966812     -1.187988     -3.229116
      1.28323      3.74092      6.27728        -0.080337     -0.099115     -0.513831
      1.28323      0.91202      8.99278         0.120724      0.047435     -0.168341
      1.28323     15.05652     11.70828        -1.946263     -0.414867     -3.264651
      6.61746      9.39872      6.27728         0.041512     -0.094608     -0.144158
      6.61746      6.56982      8.99278         0.079313      0.071926     -0.101550
      6.61746      3.74092     11.70828         0.318763      0.238978     -0.250946
     11.95168      9.39872      6.27728         0.011983     -0.346667     -0.259659
     11.95168      6.56982      8.99278         0.052550      0.122274     -0.032129
     11.95168      3.74092     11.70828         0.103447      0.310075      0.745218
      1.28323      9.39872      6.27728        -0.239031     -0.015497     -0.335114
      1.28323      6.56982      8.99278         0.078279      0.037850     -0.039526
      1.28323      3.74092     11.70828         0.299829      0.592141      0.554651
      6.61746     15.05652      6.27728         0.017309     -0.238686     -0.003743
      6.61746     12.22762      8.99278         0.070137      0.024445     -0.052579
      6.61746      9.39872     11.70828         0.125436      0.021568      0.640064
     11.95168     15.05652      6.27728         0.405003     -0.224648     -0.046722
     11.95168     12.22762      8.99278        -0.109449     -0.170836     -0.035269
     11.95168      9.39872     11.70828        -0.098915     -0.361049     -0.570544
      1.28323     15.05652      6.27728         0.384548     -0.256971     -0.014645
      1.28323     12.22762      8.99278         0.029547     -0.104250     -0.026132
      1.28323      9.39872     11.70828         0.383284     -0.326465     -0.748207
 -----------------------------------------------------------------------------------
    total drift:                               -0.183843     -0.219849      0.155480


--------------------------------------------------------------------------------------------------------



  FREE ENERGIE OF THE ION-ELECTRON SYSTEM (eV)
  ---------------------------------------------------
  free  energy   TOTEN  =      -717.66451631 eV

  energy  without entropy=     -717.66143754  energy(sigma->0) =     -717.66297692
 


--------------------------------------------------------------------------------------------------------


    POTLOK:  cpu time      1.6393: real time      1.6468


--------------------------------------------------------------------------------------------------------


     LOOP+:  cpu time   1322.4621: real time   1334.0595
    4ORBIT:  cpu time      0.0000: real time      0.0000

 total amount of memory used by VASP MPI-rank0   310534. kBytes
=======================================================================

   base      :      30000. kBytes
   nonlr-proj:       8248. kBytes
   fftplans  :      22809. kBytes
   grid      :      18686. kBytes
   one-center:        162. kBytes
   wavefun   :     230629. kBytes
 
  
  
 General timing and accounting informations for this job:
 ========================================================
  
                  Total CPU time used (sec):     1428.420
                            User time (sec):     1347.885
                          System time (sec):       80.535
                         Elapsed time (sec):     1442.747
  
                   Maximum memory used (kb):      578672.
                   Average memory used (kb):          N/A
  
                          Minor page faults:       280090
                          Major page faults:           37
                 Voluntary context switches:         2054
