 156 156   0   0
  0.2363382E+02  0.1629300E-08  0.1629300E-08  0.1388853E-08  0.5000000E-15
  1.000000000000000E-004
  CAR 
 Si and Ge interface calculation         
      6.70519644     -8.75935735  301      3.96438697      1.00000000
     -8.759  0.0000E+00  0.0000E+00  0.0000E+00  0.0000E+00
     -8.708  0.0000E+00  0.0000E+00  0.0000E+00  0.0000E+00
     -8.656  0.0000E+00  0.0000E+00  0.0000E+00  0.0000E+00
     -8.605  0.0000E+00  0.0000E+00  0.0000E+00  0.0000E+00
     -8.553  0.0000E+00  0.0000E+00  0.0000E+00  0.0000E+00
     -8.502  0.0000E+00  0.0000E+00  0.0000E+00  0.0000E+00
     -8.450  0.0000E+00  0.0000E+00  0.0000E+00  0.0000E+00
     -8.399  0.0000E+00  0.0000E+00  0.0000E+00  0.0000E+00
     -8.347  0.0000E+00  0.0000E+00  0.0000E+00  0.0000E+00
     -8.295  0.0000E+00  0.0000E+00  0.0000E+00  0.0000E+00
     -8.244  0.0000E+00  0.0000E+00  0.0000E+00  0.0000E+00
     -8.192  0.0000E+00  0.0000E+00  0.0000E+00  0.0000E+00
     -8.141  0.0000E+00  0.0000E+00  0.0000E+00  0.0000E+00
     -8.089  0.8484E-05  0.2935E-06  0.4374E-06  0.1513E-07
     -8.038  0.8545E+01  0.7310E+01  0.4405E+00  0.3768E+00
     -7.986  0.1133E+02  0.9076E+01  0.1025E+01  0.8446E+00
     -7.935  0.1353E+02  0.1500E+02  0.1722E+01  0.1618E+01
     -7.883  0.1371E+02  0.1430E+02  0.2429E+01  0.2355E+01
     -7.831  0.4128E+01  0.3767E+01  0.2642E+01  0.2549E+01
     -7.780  0.1180E+02  0.1360E+02  0.3250E+01  0.3250E+01
     -7.728  0.4799E+01  0.4656E+01  0.3497E+01  0.3490E+01
     -7.677  0.1760E+02  0.1670E+02  0.4405E+01  0.4351E+01
     -7.625  0.2148E+02  0.2184E+02  0.5512E+01  0.5477E+01
     -7.574  0.3594E+02  0.3404E+02  0.7365E+01  0.7232E+01
     -7.522  0.2444E+02  0.2518E+02  0.8625E+01  0.8530E+01
     -7.471  0.1072E+02  0.1124E+02  0.9177E+01  0.9109E+01
     -7.419  0.1707E+02  0.1694E+02  0.1006E+02  0.9982E+01
     -7.368  0.1868E+02  0.1878E+02  0.1102E+02  0.1095E+02
     -7.316  0.3190E+02  0.3004E+02  0.1266E+02  0.1250E+02
     -7.264  0.3496E+02  0.3507E+02  0.1447E+02  0.1431E+02
     -7.213  0.3056E+02  0.2940E+02  0.1604E+02  0.1582E+02
     -7.161  0.4817E+02  0.4934E+02  0.1853E+02  0.1837E+02
     -7.110  0.2647E+02  0.2739E+02  0.1989E+02  0.1978E+02
     -7.058  0.3563E+02  0.3377E+02  0.2173E+02  0.2152E+02
     -7.007  0.3688E+02  0.3750E+02  0.2363E+02  0.2345E+02
     -6.955  0.3273E+02  0.3275E+02  0.2531E+02  0.2514E+02
     -6.904  0.4062E+02  0.4104E+02  0.2741E+02  0.2726E+02
     -6.852  0.3696E+02  0.3838E+02  0.2931E+02  0.2923E+02
     -6.801  0.2344E+02  0.2158E+02  0.3052E+02  0.3035E+02
     -6.749  0.2660E+02  0.2813E+02  0.3189E+02  0.3180E+02
     -6.697  0.2955E+02  0.2623E+02  0.3342E+02  0.3315E+02
     -6.646  0.6314E+02  0.6303E+02  0.3667E+02  0.3640E+02
     -6.594  0.3590E+02  0.3738E+02  0.3852E+02  0.3832E+02
     -6.543  0.5282E+02  0.5432E+02  0.4124E+02  0.4112E+02
     -6.491  0.4172E+02  0.4013E+02  0.4340E+02  0.4319E+02
     -6.440  0.3889E+02  0.3695E+02  0.4540E+02  0.4510E+02
     -6.388  0.5502E+02  0.5472E+02  0.4824E+02  0.4792E+02
     -6.337  0.3278E+02  0.3520E+02  0.4993E+02  0.4973E+02
     -6.285  0.6369E+02  0.5979E+02  0.5321E+02  0.5282E+02
     -6.233  0.4661E+02  0.5115E+02  0.5561E+02  0.5545E+02
     -6.182  0.4720E+02  0.4814E+02  0.5804E+02  0.5793E+02
     -6.130  0.4722E+02  0.4362E+02  0.6048E+02  0.6018E+02
     -6.079  0.3504E+02  0.3540E+02  0.6228E+02  0.6201E+02
     -6.027  0.4550E+02  0.4717E+02  0.6463E+02  0.6444E+02
     -5.976  0.4505E+02  0.4510E+02  0.6695E+02  0.6676E+02
     -5.924  0.4412E+02  0.4191E+02  0.6923E+02  0.6892E+02
     -5.873  0.5303E+02  0.5158E+02  0.7196E+02  0.7158E+02
     -5.821  0.8061E+02  0.8503E+02  0.7612E+02  0.7597E+02
     -5.770  0.5103E+02  0.5078E+02  0.7875E+02  0.7858E+02
     -5.718  0.2992E+02  0.2902E+02  0.8029E+02  0.8008E+02
     -5.666  0.8984E+02  0.8644E+02  0.8492E+02  0.8454E+02
     -5.615  0.8092E+02  0.8369E+02  0.8909E+02  0.8885E+02
     -5.563  0.4556E+02  0.4412E+02  0.9144E+02  0.9112E+02
     -5.512  0.5339E+02  0.5685E+02  0.9419E+02  0.9405E+02
     -5.460  0.3379E+02  0.2976E+02  0.9593E+02  0.9559E+02
     -5.409  0.2689E+02  0.3268E+02  0.9732E+02  0.9727E+02
     -5.357  0.2148E+02  0.1765E+02  0.9843E+02  0.9818E+02
     -5.306  0.4310E+02  0.4503E+02  0.1006E+03  0.1005E+03
     -5.254  0.3471E+02  0.3263E+02  0.1024E+03  0.1022E+03
     -5.203  0.4071E+02  0.4107E+02  0.1045E+03  0.1043E+03
     -5.151  0.4306E+02  0.4507E+02  0.1068E+03  0.1066E+03
     -5.099  0.5714E+02  0.5284E+02  0.1097E+03  0.1093E+03
     -5.048  0.6013E+02  0.6218E+02  0.1128E+03  0.1126E+03
     -4.996  0.5566E+02  0.5633E+02  0.1157E+03  0.1155E+03
     -4.945  0.8922E+02  0.8503E+02  0.1203E+03  0.1198E+03
     -4.893  0.5788E+02  0.6418E+02  0.1233E+03  0.1232E+03
     -4.842  0.2791E+02  0.2387E+02  0.1247E+03  0.1244E+03
     -4.790  0.2701E+02  0.3188E+02  0.1261E+03  0.1260E+03
     -4.739  0.4239E+02  0.4001E+02  0.1283E+03  0.1281E+03
     -4.687  0.4078E+02  0.4128E+02  0.1304E+03  0.1302E+03
     -4.635  0.3285E+02  0.3168E+02  0.1321E+03  0.1318E+03
     -4.584  0.3205E+02  0.3366E+02  0.1337E+03  0.1336E+03
     -4.532  0.2454E+02  0.2347E+02  0.1350E+03  0.1348E+03
     -4.481  0.3085E+02  0.3132E+02  0.1366E+03  0.1364E+03
     -4.429  0.2388E+02  0.2472E+02  0.1378E+03  0.1377E+03
     -4.378  0.4509E+02  0.4498E+02  0.1401E+03  0.1400E+03
     -4.326  0.3218E+02  0.3289E+02  0.1418E+03  0.1417E+03
     -4.275  0.4031E+02  0.3682E+02  0.1439E+03  0.1436E+03
     -4.223  0.2695E+02  0.3161E+02  0.1453E+03  0.1452E+03
     -4.172  0.2888E+02  0.2633E+02  0.1467E+03  0.1466E+03
     -4.120  0.2847E+02  0.2993E+02  0.1482E+03  0.1481E+03
     -4.068  0.2112E+02  0.1969E+02  0.1493E+03  0.1491E+03
     -4.017  0.3584E+02  0.3617E+02  0.1511E+03  0.1510E+03
     -3.965  0.5541E+02  0.5163E+02  0.1540E+03  0.1537E+03
     -3.914  0.5975E+02  0.5547E+02  0.1571E+03  0.1565E+03
     -3.862  0.5646E+02  0.6267E+02  0.1600E+03  0.1598E+03
     -3.811  0.5272E+02  0.5361E+02  0.1627E+03  0.1625E+03
     -3.759  0.3812E+02  0.3856E+02  0.1647E+03  0.1645E+03
     -3.708  0.2159E+02  0.2401E+02  0.1658E+03  0.1657E+03
     -3.656  0.3721E+02  0.3516E+02  0.1677E+03  0.1676E+03
     -3.605  0.4131E+02  0.3455E+02  0.1698E+03  0.1693E+03
     -3.553  0.4226E+02  0.5024E+02  0.1720E+03  0.1719E+03
     -3.501  0.2710E+02  0.2501E+02  0.1734E+03  0.1732E+03
     -3.450  0.3753E+02  0.3585E+02  0.1753E+03  0.1751E+03
     -3.398  0.4033E+02  0.4421E+02  0.1774E+03  0.1773E+03
     -3.347  0.2898E+02  0.2606E+02  0.1789E+03  0.1787E+03
     -3.295  0.4535E+02  0.4863E+02  0.1813E+03  0.1812E+03
     -3.244  0.4442E+02  0.4307E+02  0.1835E+03  0.1834E+03
     -3.192  0.3902E+02  0.3639E+02  0.1856E+03  0.1853E+03
     -3.141  0.2785E+02  0.3236E+02  0.1870E+03  0.1870E+03
     -3.089  0.1695E+02  0.1359E+02  0.1879E+03  0.1877E+03
     -3.037  0.3199E+02  0.3088E+02  0.1895E+03  0.1892E+03
     -2.986  0.5620E+02  0.5306E+02  0.1924E+03  0.1920E+03
     -2.934  0.4483E+02  0.4864E+02  0.1947E+03  0.1945E+03
     -2.883  0.3426E+02  0.3577E+02  0.1965E+03  0.1963E+03
     -2.831  0.4228E+02  0.3951E+02  0.1987E+03  0.1984E+03
     -2.780  0.4742E+02  0.4930E+02  0.2011E+03  0.2009E+03
     -2.728  0.4922E+02  0.4714E+02  0.2037E+03  0.2033E+03
     -2.677  0.4592E+02  0.4758E+02  0.2060E+03  0.2058E+03
     -2.625  0.4566E+02  0.4407E+02  0.2084E+03  0.2081E+03
     -2.574  0.7627E+02  0.7548E+02  0.2123E+03  0.2120E+03
     -2.522  0.7333E+02  0.7005E+02  0.2161E+03  0.2156E+03
     -2.470  0.6678E+02  0.7152E+02  0.2195E+03  0.2193E+03
     -2.419  0.5724E+02  0.5770E+02  0.2225E+03  0.2222E+03
     -2.367  0.5858E+02  0.5910E+02  0.2255E+03  0.2253E+03
     -2.316  0.4671E+02  0.4584E+02  0.2279E+03  0.2276E+03
     -2.264  0.4140E+02  0.4014E+02  0.2300E+03  0.2297E+03
     -2.213  0.4483E+02  0.4289E+02  0.2324E+03  0.2319E+03
     -2.161  0.4938E+02  0.5163E+02  0.2349E+03  0.2346E+03
     -2.110  0.6035E+02  0.5705E+02  0.2380E+03  0.2375E+03
     -2.058  0.5029E+02  0.5319E+02  0.2406E+03  0.2403E+03
     -2.007  0.5529E+02  0.6002E+02  0.2435E+03  0.2434E+03
     -1.955  0.2473E+02  0.2426E+02  0.2447E+03  0.2446E+03
     -1.903  0.1906E+02  0.1915E+02  0.2457E+03  0.2456E+03
     -1.852  0.4128E+02  0.3978E+02  0.2478E+03  0.2476E+03
     -1.800  0.4315E+02  0.4054E+02  0.2501E+03  0.2497E+03
     -1.749  0.4323E+02  0.4291E+02  0.2523E+03  0.2519E+03
     -1.697  0.3713E+02  0.4029E+02  0.2542E+03  0.2540E+03
     -1.646  0.5291E+02  0.5325E+02  0.2569E+03  0.2568E+03
     -1.594  0.3223E+02  0.2921E+02  0.2586E+03  0.2583E+03
     -1.543  0.3697E+02  0.3902E+02  0.2605E+03  0.2603E+03
     -1.491  0.4248E+02  0.4408E+02  0.2627E+03  0.2626E+03
     -1.439  0.3026E+02  0.2888E+02  0.2642E+03  0.2640E+03
     -1.388  0.4665E+02  0.4622E+02  0.2667E+03  0.2664E+03
     -1.336  0.3711E+02  0.3769E+02  0.2686E+03  0.2684E+03
     -1.285  0.3245E+02  0.3416E+02  0.2702E+03  0.2701E+03
     -1.233  0.4356E+02  0.4408E+02  0.2725E+03  0.2724E+03
     -1.182  0.3092E+02  0.2650E+02  0.2741E+03  0.2738E+03
     -1.130  0.1839E+02  0.2283E+02  0.2750E+03  0.2749E+03
     -1.079  0.2712E+02  0.2485E+02  0.2764E+03  0.2762E+03
     -1.027  0.1084E+02  0.1370E+02  0.2770E+03  0.2769E+03
     -0.976  0.3925E+02  0.3279E+02  0.2790E+03  0.2786E+03
     -0.924  0.3135E+02  0.3581E+02  0.2806E+03  0.2805E+03
     -0.872  0.2304E+02  0.2378E+02  0.2818E+03  0.2817E+03
     -0.821  0.2728E+02  0.2618E+02  0.2832E+03  0.2830E+03
     -0.769  0.3980E+02  0.4048E+02  0.2853E+03  0.2851E+03
     -0.718  0.2882E+02  0.2590E+02  0.2868E+03  0.2865E+03
     -0.666  0.5241E+02  0.5241E+02  0.2895E+03  0.2892E+03
     -0.615  0.3980E+02  0.4101E+02  0.2915E+03  0.2913E+03
     -0.563  0.3370E+02  0.3706E+02  0.2932E+03  0.2932E+03
     -0.512  0.1783E+02  0.1650E+02  0.2942E+03  0.2940E+03
     -0.460  0.1242E+02  0.1388E+02  0.2948E+03  0.2948E+03
     -0.408  0.2285E+02  0.2187E+02  0.2960E+03  0.2959E+03
     -0.357  0.2953E+02  0.3125E+02  0.2975E+03  0.2975E+03
     -0.305  0.2869E+02  0.2374E+02  0.2990E+03  0.2987E+03
     -0.254  0.3027E+02  0.3306E+02  0.3005E+03  0.3004E+03
     -0.202  0.2269E+02  0.2323E+02  0.3017E+03  0.3016E+03
     -0.151  0.4249E+02  0.3881E+02  0.3039E+03  0.3036E+03
     -0.099  0.3746E+02  0.3949E+02  0.3058E+03  0.3057E+03
     -0.048  0.5069E+02  0.5185E+02  0.3084E+03  0.3083E+03
      0.004  0.4154E+02  0.3813E+02  0.3106E+03  0.3103E+03
      0.055  0.7884E+02  0.7589E+02  0.3146E+03  0.3142E+03
      0.107  0.9537E+02  0.9332E+02  0.3196E+03  0.3190E+03
      0.159  0.8034E+02  0.8411E+02  0.3237E+03  0.3234E+03
      0.210  0.7544E+02  0.7643E+02  0.3276E+03  0.3273E+03
      0.262  0.9774E+02  0.9277E+02  0.3326E+03  0.3321E+03
      0.313  0.7420E+02  0.8096E+02  0.3365E+03  0.3363E+03
      0.365  0.7445E+02  0.6734E+02  0.3403E+03  0.3397E+03
      0.416  0.1074E+03  0.1085E+03  0.3458E+03  0.3453E+03
      0.468  0.8305E+02  0.8649E+02  0.3501E+03  0.3498E+03
      0.519  0.6954E+02  0.6876E+02  0.3537E+03  0.3533E+03
      0.571  0.8132E+02  0.7826E+02  0.3579E+03  0.3574E+03
      0.622  0.8197E+02  0.8775E+02  0.3621E+03  0.3619E+03
      0.674  0.7114E+02  0.7172E+02  0.3658E+03  0.3656E+03
      0.726  0.7995E+02  0.7511E+02  0.3699E+03  0.3694E+03
      0.777  0.9340E+02  0.9471E+02  0.3747E+03  0.3743E+03
      0.829  0.9576E+02  0.9386E+02  0.3797E+03  0.3792E+03
      0.880  0.9028E+02  0.9450E+02  0.3843E+03  0.3840E+03
      0.932  0.8896E+02  0.8668E+02  0.3889E+03  0.3885E+03
      0.983  0.8944E+02  0.8877E+02  0.3935E+03  0.3931E+03
      1.035  0.1045E+03  0.1027E+03  0.3989E+03  0.3984E+03
      1.086  0.1160E+03  0.1156E+03  0.4049E+03  0.4043E+03
      1.138  0.8663E+02  0.8972E+02  0.4093E+03  0.4090E+03
      1.190  0.9779E+02  0.9312E+02  0.4144E+03  0.4138E+03
      1.241  0.6669E+02  0.7019E+02  0.4178E+03  0.4174E+03
      1.293  0.9541E+02  0.9809E+02  0.4227E+03  0.4224E+03
      1.344  0.9065E+02  0.8583E+02  0.4274E+03  0.4269E+03
      1.396  0.1057E+03  0.1079E+03  0.4329E+03  0.4324E+03
      1.447  0.7468E+02  0.7572E+02  0.4367E+03  0.4363E+03
      1.499  0.9847E+02  0.9940E+02  0.4418E+03  0.4414E+03
      1.550  0.1076E+03  0.1042E+03  0.4473E+03  0.4468E+03
      1.602  0.8928E+02  0.8979E+02  0.4519E+03  0.4514E+03
      1.653  0.7999E+02  0.7809E+02  0.4561E+03  0.4555E+03
      1.705  0.8501E+02  0.8679E+02  0.4604E+03  0.4599E+03
      1.757  0.8181E+02  0.8287E+02  0.4647E+03  0.4642E+03
      1.808  0.6258E+02  0.6039E+02  0.4679E+03  0.4673E+03
      1.860  0.9018E+02  0.9315E+02  0.4725E+03  0.4721E+03
      1.911  0.7882E+02  0.7730E+02  0.4766E+03  0.4761E+03
      1.963  0.1006E+03  0.1010E+03  0.4818E+03  0.4813E+03
      2.014  0.9127E+02  0.8765E+02  0.4865E+03  0.4858E+03
      2.066  0.8656E+02  0.8945E+02  0.4909E+03  0.4905E+03
      2.117  0.1001E+03  0.9547E+02  0.4961E+03  0.4954E+03
      2.169  0.8532E+02  0.8887E+02  0.5005E+03  0.5000E+03
      2.220  0.1004E+03  0.9729E+02  0.5057E+03  0.5050E+03
      2.272  0.8359E+02  0.8990E+02  0.5100E+03  0.5096E+03
      2.324  0.9745E+02  0.9492E+02  0.5150E+03  0.5145E+03
      2.375  0.8329E+02  0.8368E+02  0.5193E+03  0.5188E+03
      2.427  0.9407E+02  0.9251E+02  0.5242E+03  0.5236E+03
      2.478  0.8904E+02  0.8787E+02  0.5287E+03  0.5281E+03
      2.530  0.6605E+02  0.6626E+02  0.5322E+03  0.5315E+03
      2.581  0.1243E+03  0.1292E+03  0.5386E+03  0.5382E+03
      2.633  0.7694E+02  0.7428E+02  0.5425E+03  0.5420E+03
      2.684  0.9358E+02  0.9552E+02  0.5474E+03  0.5469E+03
      2.736  0.8246E+02  0.7607E+02  0.5516E+03  0.5509E+03
      2.788  0.7132E+02  0.7500E+02  0.5553E+03  0.5547E+03
      2.839  0.6224E+02  0.6348E+02  0.5585E+03  0.5580E+03
      2.891  0.7756E+02  0.7690E+02  0.5625E+03  0.5620E+03
      2.942  0.6871E+02  0.6670E+02  0.5660E+03  0.5654E+03
      2.994  0.5700E+02  0.6135E+02  0.5690E+03  0.5686E+03
      3.045  0.6116E+02  0.6156E+02  0.5721E+03  0.5717E+03
      3.097  0.6453E+02  0.5990E+02  0.5754E+03  0.5748E+03
      3.148  0.7540E+02  0.7764E+02  0.5793E+03  0.5788E+03
      3.200  0.6608E+02  0.6545E+02  0.5827E+03  0.5822E+03
      3.251  0.5018E+02  0.5396E+02  0.5853E+03  0.5850E+03
      3.303  0.6350E+02  0.6019E+02  0.5886E+03  0.5881E+03
      3.355  0.3933E+02  0.4018E+02  0.5906E+03  0.5902E+03
      3.406  0.5178E+02  0.4873E+02  0.5933E+03  0.5927E+03
      3.458  0.4070E+02  0.4607E+02  0.5954E+03  0.5950E+03
      3.509  0.4665E+02  0.5016E+02  0.5978E+03  0.5976E+03
      3.561  0.5485E+02  0.4644E+02  0.6006E+03  0.6000E+03
      3.612  0.4945E+02  0.5409E+02  0.6032E+03  0.6028E+03
      3.664  0.5169E+02  0.4670E+02  0.6058E+03  0.6052E+03
      3.715  0.6205E+02  0.6066E+02  0.6090E+03  0.6083E+03
      3.767  0.5402E+02  0.5507E+02  0.6118E+03  0.6112E+03
      3.818  0.5726E+02  0.5032E+02  0.6148E+03  0.6138E+03
      3.870  0.5994E+02  0.6929E+02  0.6179E+03  0.6173E+03
      3.922  0.5239E+02  0.4631E+02  0.6206E+03  0.6197E+03
      3.973  0.6294E+02  0.7280E+02  0.6238E+03  0.6235E+03
      4.025  0.7101E+02  0.5526E+02  0.6275E+03  0.6263E+03
      4.076  0.4566E+02  0.5792E+02  0.6298E+03  0.6293E+03
      4.128  0.5314E+02  0.4621E+02  0.6326E+03  0.6317E+03
      4.179  0.7674E+02  0.7044E+02  0.6365E+03  0.6353E+03
      4.231  0.5069E+02  0.6487E+02  0.6391E+03  0.6387E+03
      4.282  0.6744E+02  0.6227E+02  0.6426E+03  0.6419E+03
      4.334  0.6220E+02  0.6118E+02  0.6458E+03  0.6450E+03
      4.386  0.6098E+02  0.5797E+02  0.6490E+03  0.6480E+03
      4.437  0.5496E+02  0.6563E+02  0.6518E+03  0.6514E+03
      4.489  0.5151E+02  0.5204E+02  0.6544E+03  0.6541E+03
      4.540  0.5538E+02  0.5151E+02  0.6573E+03  0.6567E+03
      4.592  0.5920E+02  0.5835E+02  0.6604E+03  0.6598E+03
      4.643  0.4976E+02  0.4676E+02  0.6629E+03  0.6622E+03
      4.695  0.6284E+02  0.6540E+02  0.6662E+03  0.6655E+03
      4.746  0.4750E+02  0.5113E+02  0.6686E+03  0.6682E+03
      4.798  0.4603E+02  0.4020E+02  0.6710E+03  0.6702E+03
      4.849  0.7683E+02  0.8168E+02  0.6749E+03  0.6745E+03
      4.901  0.5426E+02  0.5696E+02  0.6777E+03  0.6774E+03
      4.953  0.5990E+02  0.5322E+02  0.6808E+03  0.6801E+03
      5.004  0.6721E+02  0.7011E+02  0.6843E+03  0.6838E+03
      5.056  0.5431E+02  0.5589E+02  0.6871E+03  0.6866E+03
      5.107  0.7175E+02  0.7186E+02  0.6908E+03  0.6903E+03
      5.159  0.5568E+02  0.4711E+02  0.6937E+03  0.6928E+03
      5.210  0.7313E+02  0.7866E+02  0.6974E+03  0.6968E+03
      5.262  0.6951E+02  0.6636E+02  0.7010E+03  0.7002E+03
      5.313  0.8075E+02  0.8519E+02  0.7052E+03  0.7046E+03
      5.365  0.6780E+02  0.6837E+02  0.7087E+03  0.7082E+03
      5.416  0.6390E+02  0.5974E+02  0.7120E+03  0.7112E+03
      5.468  0.7394E+02  0.7767E+02  0.7158E+03  0.7152E+03
      5.520  0.9158E+02  0.8540E+02  0.7205E+03  0.7196E+03
      5.571  0.6837E+02  0.7739E+02  0.7240E+03  0.7236E+03
      5.623  0.6808E+02  0.6804E+02  0.7275E+03  0.7271E+03
      5.674  0.6884E+02  0.6676E+02  0.7311E+03  0.7306E+03
      5.726  0.6986E+02  0.6720E+02  0.7347E+03  0.7340E+03
      5.777  0.6844E+02  0.6744E+02  0.7382E+03  0.7375E+03
      5.829  0.8836E+02  0.9023E+02  0.7428E+03  0.7422E+03
      5.880  0.7441E+02  0.7821E+02  0.7466E+03  0.7462E+03
      5.932  0.6289E+02  0.6707E+02  0.7498E+03  0.7497E+03
      5.984  0.3451E+02  0.3341E+02  0.7516E+03  0.7514E+03
      6.035  0.7430E+01  0.1197E+02  0.7520E+03  0.7520E+03
      6.087  0.0000E+00  0.0000E+00  0.7520E+03  0.7520E+03
      6.138  0.0000E+00  0.0000E+00  0.7520E+03  0.7520E+03
      6.190  0.0000E+00  0.0000E+00  0.7520E+03  0.7520E+03
      6.241  0.0000E+00  0.0000E+00  0.7520E+03  0.7520E+03
      6.293  0.0000E+00  0.0000E+00  0.7520E+03  0.7520E+03
      6.344  0.0000E+00  0.0000E+00  0.7520E+03  0.7520E+03
      6.396  0.0000E+00  0.0000E+00  0.7520E+03  0.7520E+03
      6.447  0.0000E+00  0.0000E+00  0.7520E+03  0.7520E+03
      6.499  0.0000E+00  0.0000E+00  0.7520E+03  0.7520E+03
      6.551  0.0000E+00  0.0000E+00  0.7520E+03  0.7520E+03
      6.602  0.0000E+00  0.0000E+00  0.7520E+03  0.7520E+03
      6.654  0.0000E+00  0.0000E+00  0.7520E+03  0.7520E+03
      6.705  0.0000E+00  0.0000E+00  0.7520E+03  0.7520E+03
