Si and Ge interface calculation         
           1
    16.293001    0.000000    0.000000
     0.000000   16.293001    0.000000
     0.000000    0.000000   13.888530
   Si   Ge
   108    48
Direct configuration=     1
   0.00000000  0.99406773  0.00000000
   0.00000000  0.82740104  0.19552107
   0.00000000  0.66073430  0.39104217
   0.33333334  0.99406773  0.00000000
   0.33333334  0.82740104  0.19552107
   0.33333334  0.66073430  0.39104217
   0.66666669  0.99406773  0.00000000
   0.66666669  0.82740104  0.19552107
   0.66666669  0.66073430  0.39104217
   0.00000000  0.32740104  0.00000000
   0.00000000  0.16073437  0.19552107
   0.00000000  0.99406767  0.39104217
   0.33333334  0.32740104  0.00000000
   0.33333334  0.16073437  0.19552107
   0.33333334  0.99406767  0.39104217
   0.66666669  0.32740104  0.00000000
   0.66666669  0.16073437  0.19552107
   0.66666669  0.99406767  0.39104217
   0.00000000  0.66073442  0.00000000
   0.00000000  0.49406770  0.19552107
   0.00000000  0.32740104  0.39104217
   0.33333334  0.66073442  0.00000000
   0.33333334  0.49406770  0.19552107
   0.33333334  0.32740104  0.39104217
   0.66666669  0.66073442  0.00000000
   0.66666669  0.49406770  0.19552107
   0.66666669  0.32740104  0.39104217
   0.08333334  0.07740105  0.09776054
   0.08333334  0.91073436  0.29328156
   0.08333334  0.74406767  0.48880270
   0.41666669  0.07740105  0.09776054
   0.41666669  0.91073436  0.29328156
   0.41666669  0.74406767  0.48880270
   0.75000000  0.07740105  0.09776054
   0.75000000  0.91073436  0.29328156
   0.75000000  0.74406767  0.48880270
   0.08333334  0.41073436  0.09776054
   0.08333334  0.24406767  0.29328156
   0.08333334  0.07740098  0.48880270
   0.41666669  0.41073436  0.09776054
   0.41666669  0.24406767  0.29328156
   0.41666669  0.07740098  0.48880270
   0.75000000  0.41073436  0.09776054
   0.75000000  0.24406767  0.29328156
   0.75000000  0.07740098  0.48880270
   0.08333334  0.74406773  0.09776054
   0.08333334  0.57740104  0.29328156
   0.08333334  0.41073436  0.48880270
   0.41666669  0.74406773  0.09776054
   0.41666669  0.57740104  0.29328156
   0.41666669  0.41073436  0.48880270
   0.75000000  0.74406773  0.09776054
   0.75000000  0.57740104  0.29328156
   0.75000000  0.41073436  0.48880270
   0.16666667  0.16073438  0.00000000
   0.16666667  0.99406767  0.19552107
   0.16666667  0.82740098  0.39104217
   0.50000000  0.16073438  0.00000000
   0.50000000  0.99406767  0.19552107
   0.50000000  0.82740098  0.39104217
   0.83333337  0.16073438  0.00000000
   0.83333337  0.99406767  0.19552107
   0.83333337  0.82740098  0.39104217
   0.16666667  0.49406770  0.00000000
   0.16666667  0.32740104  0.19552107
   0.16666667  0.16073431  0.39104217
   0.50000000  0.49406770  0.00000000
   0.50000000  0.32740104  0.19552107
   0.50000000  0.16073431  0.39104217
   0.83333337  0.49406770  0.00000000
   0.83333337  0.32740104  0.19552107
   0.83333337  0.16073431  0.39104217
   0.16666667  0.82740104  0.00000000
   0.16666667  0.66073436  0.19552107
   0.16666667  0.49406764  0.39104217
   0.50000000  0.82740104  0.00000000
   0.50000000  0.66073436  0.19552107
   0.50000000  0.49406764  0.39104217
   0.83333337  0.82740104  0.00000000
   0.83333337  0.66073436  0.19552107
   0.83333337  0.49406764  0.39104217
   0.25000000  0.24406771  0.09776054
   0.25000000  0.07740103  0.29328156
   0.25000000  0.91073436  0.48880270
   0.58333337  0.24406771  0.09776054
   0.58333337  0.07740103  0.29328156
   0.58333337  0.91073436  0.48880270
   0.91666669  0.24406771  0.09776054
   0.91666669  0.07740103  0.29328156
   0.91666669  0.91073436  0.48880270
   0.25000000  0.57740116  0.09776054
   0.25000000  0.41073445  0.29328156
   0.25000000  0.24406774  0.48880270
   0.58333337  0.57740116  0.09776054
   0.58333337  0.41073445  0.29328156
   0.58333337  0.24406774  0.48880270
   0.91666669  0.57740116  0.09776054
   0.91666669  0.41073445  0.29328156
   0.91666669  0.24406774  0.48880270
   0.25000000  0.91073436  0.09776054
   0.25000000  0.74406767  0.29328156
   0.25000000  0.57740104  0.48880270
   0.58333337  0.91073436  0.09776054
   0.58333337  0.74406767  0.29328156
   0.58333337  0.57740104  0.48880270
   0.91666669  0.91073436  0.09776054
   0.91666669  0.74406767  0.29328156
   0.91666669  0.57740104  0.48880270
   0.74953043  0.49965751  0.62437797
   0.36064148  0.12465739  0.67238736
   0.97175252  0.74965751  0.72039670
   0.58286345  0.37465763  0.76840609
   0.19397461  0.99965757  0.81641537
   0.80508566  0.62465745  0.86442477
   0.74953043  0.99965739  0.62437797
   0.36064148  0.62465739  0.67238736
   0.97175252  0.24965739  0.72039676
   0.58286345  0.87465745  0.76840609
   0.19397461  0.49965763  0.81641537
   0.80508566  0.12465739  0.86442471
   0.49953032  0.62465745  0.62437797
   0.11064136  0.24965739  0.67238736
   0.72175240  0.87465751  0.72039670
   0.33286357  0.49965763  0.76840603
   0.94397455  0.12465763  0.81641543
   0.55508542  0.74965757  0.86442471
   0.49953032  0.12465739  0.62437797
   0.11064136  0.74965739  0.67238736
   0.72175240  0.37465739  0.72039670
   0.33286357  0.99965739  0.76840603
   0.94397455  0.62465751  0.81641543
   0.55508554  0.24965739  0.86442471
   0.49953032  0.87465751  0.62437803
   0.11064136  0.49965739  0.67238736
   0.72175240  0.12465751  0.72039670
   0.33286345  0.74965751  0.76840603
   0.94397461  0.37465763  0.81641543
   0.55508554  0.99965757  0.86442477
   0.49953032  0.37465739  0.62437797
   0.11064136  0.99965739  0.67238736
   0.72175240  0.62465739  0.72039670
   0.33286357  0.24965739  0.76840603
   0.94397461  0.87465751  0.81641543
   0.55508542  0.49965739  0.86442471
   0.74953043  0.74965745  0.62437797
   0.36064148  0.37465739  0.67238736
   0.97175252  0.99965757  0.72039676
   0.58286345  0.62465751  0.76840609
   0.19397485  0.24965763  0.81641543
   0.80508566  0.87465745  0.86442477
   0.74953043  0.24965739  0.62437797
   0.36064148  0.87465739  0.67238736
   0.97175252  0.49965751  0.72039676
   0.58286357  0.12465751  0.76840609
   0.19397473  0.74965757  0.81641537
   0.80508542  0.37465739  0.86442471
