Si and Ge interface calculation         
           1
     7.680594    0.000000    0.000000
     0.000000   16.292999    0.000000
     0.000000    0.000000   13.463778
   Si   Ge
    24    48
Direct configuration=     1
   0.94351405  0.91213298  0.00000001
   0.69351399  0.52324402  0.04753866
   0.44351399  0.13435513  0.09507734
   0.19351393  0.74546611  0.14261596
   0.94351387  0.35657716  0.19015467
   0.69351375  0.96768785  0.23769326
   0.19351408  0.66213304  0.00000000
   0.94351405  0.27324402  0.04753866
   0.69351405  0.88435513  0.09507731
   0.44351387  0.49546605  0.14261597
   0.19351381  0.10657704  0.19015463
   0.94351375  0.71768796  0.23769335
   0.69351417  0.66213304  0.00000000
   0.44351405  0.27324399  0.04753865
   0.19351403  0.88435507  0.09507731
   0.94351399  0.49546605  0.14261597
   0.69351387  0.10657704  0.19015463
   0.44351381  0.71768796  0.23769331
   0.44351408  0.91213298  0.00000000
   0.19351399  0.52324402  0.04753868
   0.94351399  0.13435513  0.09507734
   0.69351399  0.74546611  0.14261596
   0.44351393  0.35657704  0.19015467
   0.19351369  0.96768808  0.23769335
   0.07040572  0.11918592  0.35620677
   0.82040566  0.99418592  0.56631863
   0.57040566  0.86918592  0.77643055
   0.07040560  0.61918586  0.35620677
   0.82040566  0.49418592  0.56631863
   0.57040566  0.36918592  0.77643055
   0.57040560  0.36918592  0.35620677
   0.32040563  0.24418592  0.56631863
   0.07040572  0.11918592  0.77643055
   0.57040560  0.86918586  0.35620677
   0.32040566  0.74418586  0.56631863
   0.07040560  0.61918586  0.77643055
   0.32040566  0.11918592  0.46126270
   0.07040572  0.99418592  0.67137456
   0.82040566  0.86918592  0.88148654
   0.32040560  0.61918586  0.46126270
   0.07040560  0.49418586  0.67137456
   0.82040560  0.36918586  0.88148654
   0.82040566  0.36918592  0.46126270
   0.57040566  0.24418594  0.67137456
   0.32040566  0.11918592  0.88148654
   0.82040566  0.86918586  0.46126270
   0.57040560  0.74418586  0.67137456
   0.32040563  0.61918592  0.88148654
   0.07040572  0.36918592  0.35620677
   0.82040566  0.24418592  0.56631863
   0.57040566  0.11918592  0.77643055
   0.57040560  0.11918592  0.35620677
   0.32040563  0.99418592  0.56631863
   0.07040572  0.86918592  0.77643055
   0.07040560  0.86918592  0.35620677
   0.82040566  0.74418592  0.56631863
   0.57040566  0.61918592  0.77643055
   0.57040560  0.61918592  0.35620677
   0.32040566  0.49418592  0.56631863
   0.07040572  0.36918592  0.77643055
   0.32040566  0.36918592  0.46126270
   0.07040572  0.24418592  0.67137456
   0.82040566  0.11918592  0.88148654
   0.82040560  0.11918592  0.46126270
   0.57040560  0.99418592  0.67137456
   0.32040560  0.86918586  0.88148654
   0.32040566  0.86918586  0.46126270
   0.07040572  0.74418586  0.67137456
   0.82040566  0.61918586  0.88148654
   0.82040560  0.61918586  0.46126270
   0.57040560  0.49418592  0.67137456
   0.32040560  0.36918586  0.88148654
