  48  48   0   0
  0.2323126E+02  0.8001338E-09  0.1265123E-08  0.1161174E-08  0.5000000E-15
  1.000000000000000E-004
  CAR 
 Si and Ge interface calculation         
      6.59602844    -11.11714172  301      3.32947980      1.00000000
    -11.117  0.0000E+00  0.0000E+00  0.0000E+00  0.0000E+00
    -11.058  0.0000E+00  0.0000E+00  0.0000E+00  0.0000E+00
    -10.999  0.0000E+00  0.0000E+00  0.0000E+00  0.0000E+00
    -10.940  0.0000E+00  0.0000E+00  0.0000E+00  0.0000E+00
    -10.881  0.0000E+00  0.0000E+00  0.0000E+00  0.0000E+00
    -10.822  0.0000E+00  0.0000E+00  0.0000E+00  0.0000E+00
    -10.763  0.0000E+00  0.0000E+00  0.0000E+00  0.0000E+00
    -10.704  0.0000E+00  0.0000E+00  0.0000E+00  0.0000E+00
    -10.645  0.0000E+00  0.0000E+00  0.0000E+00  0.0000E+00
    -10.586  0.0000E+00  0.0000E+00  0.0000E+00  0.0000E+00
    -10.527  0.0000E+00  0.0000E+00  0.0000E+00  0.0000E+00
    -10.468  0.0000E+00  0.0000E+00  0.0000E+00  0.0000E+00
    -10.409  0.0000E+00  0.0000E+00  0.0000E+00  0.0000E+00
    -10.350  0.5153E-07  0.1619E-14  0.3042E-08  0.9560E-16
    -10.291  0.7718E+01  0.1815E+01  0.4557E+00  0.1072E+00
    -10.231  0.7492E+00  0.6653E+01  0.5000E+00  0.5000E+00
    -10.172  0.1298E+01  0.3024E-02  0.5766E+00  0.5002E+00
    -10.113  0.1564E+02  0.1693E+02  0.1500E+01  0.1500E+01
    -10.054  0.5005E+00  0.2452E-03  0.1530E+01  0.1500E+01
     -9.995  0.7968E+01  0.8466E+01  0.2000E+01  0.2000E+01
     -9.936  0.1693E-04  0.2243E-02  0.2000E+01  0.2000E+01
     -9.877  0.1690E+02  0.1248E+02  0.2998E+01  0.2737E+01
     -9.818  0.3725E-01  0.4459E+01  0.3000E+01  0.3000E+01
     -9.759  0.6669E-01  0.7402E-05  0.3004E+01  0.3000E+01
     -9.700  0.1687E+02  0.1656E+02  0.4000E+01  0.3978E+01
     -9.641  0.0000E+00  0.3788E+00  0.4000E+01  0.4000E+01
     -9.582  0.0000E+00  0.0000E+00  0.4000E+01  0.4000E+01
     -9.523  0.2562E-07  0.3134E-15  0.4000E+01  0.4000E+01
     -9.464  0.1616E+02  0.5593E+01  0.4954E+01  0.4330E+01
     -9.405  0.7748E+00  0.1134E+02  0.5000E+01  0.5000E+01
     -9.346  0.0000E+00  0.0000E+00  0.5000E+01  0.5000E+01
     -9.287  0.0000E+00  0.0000E+00  0.5000E+01  0.5000E+01
     -9.228  0.0000E+00  0.0000E+00  0.5000E+01  0.5000E+01
     -9.169  0.0000E+00  0.0000E+00  0.5000E+01  0.5000E+01
     -9.110  0.7312E-15  0.0000E+00  0.5000E+01  0.5000E+01
     -9.051  0.2475E+01  0.2963E-01  0.5146E+01  0.5002E+01
     -8.992  0.1446E+02  0.1691E+02  0.6000E+01  0.6000E+01
     -8.933  0.0000E+00  0.0000E+00  0.6000E+01  0.6000E+01
     -8.873  0.0000E+00  0.0000E+00  0.6000E+01  0.6000E+01
     -8.814  0.1144E+00  0.1200E-04  0.6007E+01  0.6000E+01
     -8.755  0.1890E+02  0.1864E+02  0.7123E+01  0.7101E+01
     -8.696  0.4508E+01  0.4698E+01  0.7389E+01  0.7378E+01
     -8.637  0.7617E+01  0.5481E+01  0.7839E+01  0.7702E+01
     -8.578  0.5808E+01  0.7037E+01  0.8182E+01  0.8117E+01
     -8.519  0.7496E+01  0.7891E+01  0.8624E+01  0.8583E+01
     -8.460  0.6361E+01  0.6110E+01  0.9000E+01  0.8944E+01
     -8.401  0.2825E+01  0.3686E+01  0.9167E+01  0.9162E+01
     -8.342  0.2094E-04  0.8324E-01  0.9167E+01  0.9167E+01
     -8.283  0.1607E+02  0.7442E+01  0.1012E+02  0.9606E+01
     -8.224  0.1321E+02  0.1736E+02  0.1090E+02  0.1063E+02
     -8.165  0.7186E+01  0.1095E+02  0.1132E+02  0.1128E+02
     -8.106  0.1653E+02  0.1588E+02  0.1230E+02  0.1222E+02
     -8.047  0.3039E+01  0.2726E+01  0.1248E+02  0.1238E+02
     -7.988  0.3312E+01  0.3990E+01  0.1267E+02  0.1261E+02
     -7.929  0.9390E+01  0.1020E+02  0.1323E+02  0.1321E+02
     -7.870  0.1033E+02  0.9510E+01  0.1383E+02  0.1378E+02
     -7.811  0.4371E+01  0.3316E+01  0.1409E+02  0.1397E+02
     -7.752  0.1780E+02  0.9101E+01  0.1514E+02  0.1451E+02
     -7.693  0.1611E+02  0.2214E+02  0.1610E+02  0.1582E+02
     -7.634  0.7894E+01  0.1022E+02  0.1656E+02  0.1642E+02
     -7.575  0.8919E+01  0.7052E+01  0.1709E+02  0.1684E+02
     -7.515  0.2080E+02  0.1787E+02  0.1832E+02  0.1789E+02
     -7.456  0.1810E+02  0.1818E+02  0.1938E+02  0.1896E+02
     -7.397  0.1094E+02  0.1543E+02  0.2003E+02  0.1988E+02
     -7.338  0.1504E+02  0.1245E+02  0.2092E+02  0.2061E+02
     -7.279  0.1405E+02  0.1336E+02  0.2175E+02  0.2140E+02
     -7.220  0.2040E+02  0.2248E+02  0.2295E+02  0.2273E+02
     -7.161  0.1539E+02  0.1408E+02  0.2386E+02  0.2356E+02
     -7.102  0.1392E+02  0.1107E+02  0.2468E+02  0.2421E+02
     -7.043  0.1735E+02  0.2047E+02  0.2571E+02  0.2542E+02
     -6.984  0.2606E+02  0.2150E+02  0.2725E+02  0.2669E+02
     -6.925  0.2557E+02  0.2970E+02  0.2876E+02  0.2844E+02
     -6.866  0.2179E+02  0.1933E+02  0.3004E+02  0.2959E+02
     -6.807  0.1592E+02  0.1926E+02  0.3098E+02  0.3072E+02
     -6.748  0.1991E+02  0.1774E+02  0.3216E+02  0.3177E+02
     -6.689  0.1089E+02  0.1417E+02  0.3280E+02  0.3261E+02
     -6.630  0.2079E+02  0.1973E+02  0.3403E+02  0.3377E+02
     -6.571  0.1201E+02  0.1344E+02  0.3474E+02  0.3457E+02
     -6.512  0.1070E+02  0.1087E+02  0.3537E+02  0.3521E+02
     -6.453  0.1579E+02  0.1509E+02  0.3630E+02  0.3610E+02
     -6.394  0.1304E+02  0.1451E+02  0.3707E+02  0.3695E+02
     -6.335  0.8210E+01  0.8711E+01  0.3756E+02  0.3747E+02
     -6.276  0.6794E+01  0.6080E+01  0.3796E+02  0.3783E+02
     -6.216  0.1335E+02  0.1170E+02  0.3875E+02  0.3852E+02
     -6.157  0.1976E+02  0.1497E+02  0.3991E+02  0.3940E+02
     -6.098  0.8078E+01  0.1655E+02  0.4039E+02  0.4038E+02
     -6.039  0.5375E+01  0.2503E+01  0.4071E+02  0.4053E+02
     -5.980  0.1082E+02  0.1005E+02  0.4135E+02  0.4112E+02
     -5.921  0.5337E+01  0.6498E+01  0.4166E+02  0.4151E+02
     -5.862  0.6738E+01  0.8960E+01  0.4206E+02  0.4203E+02
     -5.803  0.1585E+02  0.9695E+01  0.4300E+02  0.4261E+02
     -5.744  0.6758E+01  0.9541E+01  0.4339E+02  0.4317E+02
     -5.685  0.1319E+02  0.1379E+02  0.4417E+02  0.4398E+02
     -5.626  0.1762E+02  0.1557E+02  0.4521E+02  0.4490E+02
     -5.567  0.6718E+01  0.1084E+02  0.4561E+02  0.4554E+02
     -5.508  0.9428E+01  0.7803E+01  0.4617E+02  0.4600E+02
     -5.449  0.8418E+01  0.8828E+01  0.4666E+02  0.4653E+02
     -5.390  0.1372E+02  0.1099E+02  0.4747E+02  0.4718E+02
     -5.331  0.7740E+01  0.9654E+01  0.4793E+02  0.4775E+02
     -5.272  0.2042E+02  0.1062E+02  0.4914E+02  0.4837E+02
     -5.213  0.7262E+01  0.1910E+02  0.4957E+02  0.4950E+02
     -5.154  0.1915E+01  0.1880E+01  0.4968E+02  0.4961E+02
     -5.095  0.1784E+02  0.8132E+01  0.5073E+02  0.5009E+02
     -5.036  0.7581E+01  0.1455E+02  0.5118E+02  0.5095E+02
     -4.977  0.1242E+02  0.1126E+02  0.5191E+02  0.5162E+02
     -4.918  0.5416E+01  0.8449E+01  0.5223E+02  0.5211E+02
     -4.858  0.7422E+01  0.7141E+01  0.5267E+02  0.5254E+02
     -4.799  0.5862E+01  0.4881E+01  0.5302E+02  0.5282E+02
     -4.740  0.6397E+01  0.8053E+01  0.5339E+02  0.5330E+02
     -4.681  0.1609E+02  0.1378E+02  0.5434E+02  0.5411E+02
     -4.622  0.1120E+02  0.1360E+02  0.5501E+02  0.5492E+02
     -4.563  0.1049E+02  0.7078E+01  0.5563E+02  0.5533E+02
     -4.504  0.2565E+02  0.2535E+02  0.5714E+02  0.5683E+02
     -4.445  0.1328E+02  0.1472E+02  0.5792E+02  0.5770E+02
     -4.386  0.9623E+01  0.9402E+01  0.5849E+02  0.5826E+02
     -4.327  0.2991E+01  0.6862E+01  0.5867E+02  0.5866E+02
     -4.268  0.2121E+02  0.1444E+02  0.5992E+02  0.5951E+02
     -4.209  0.2566E+02  0.2468E+02  0.6144E+02  0.6097E+02
     -4.150  0.2388E+02  0.2787E+02  0.6285E+02  0.6262E+02
     -4.091  0.1601E+02  0.1777E+02  0.6379E+02  0.6367E+02
     -4.032  0.2383E+02  0.1607E+02  0.6520E+02  0.6461E+02
     -3.973  0.1386E+02  0.1952E+02  0.6602E+02  0.6577E+02
     -3.914  0.1648E+02  0.1219E+02  0.6699E+02  0.6649E+02
     -3.855  0.1654E+02  0.2420E+02  0.6797E+02  0.6792E+02
     -3.796  0.1791E+02  0.1525E+02  0.6902E+02  0.6882E+02
     -3.737  0.7027E+01  0.9673E+01  0.6944E+02  0.6939E+02
     -3.678  0.1442E+02  0.1201E+02  0.7029E+02  0.7010E+02
     -3.619  0.1454E+02  0.1003E+02  0.7115E+02  0.7069E+02
     -3.560  0.1887E+02  0.2133E+02  0.7226E+02  0.7195E+02
     -3.500  0.1103E+02  0.1252E+02  0.7291E+02  0.7269E+02
     -3.441  0.1710E+02  0.1567E+02  0.7392E+02  0.7361E+02
     -3.382  0.1402E+02  0.1547E+02  0.7475E+02  0.7453E+02
     -3.323  0.2218E+02  0.1604E+02  0.7606E+02  0.7547E+02
     -3.264  0.1587E+02  0.2210E+02  0.7700E+02  0.7678E+02
     -3.205  0.1226E+02  0.1427E+02  0.7772E+02  0.7762E+02
     -3.146  0.3678E+01  0.3738E+01  0.7794E+02  0.7784E+02
     -3.087  0.9495E+01  0.1105E+02  0.7850E+02  0.7849E+02
     -3.028  0.2988E+01  0.9023E+00  0.7868E+02  0.7855E+02
     -2.969  0.9661E+01  0.7782E+01  0.7925E+02  0.7901E+02
     -2.910  0.1364E+02  0.1196E+02  0.8005E+02  0.7971E+02
     -2.851  0.7899E+01  0.1243E+02  0.8052E+02  0.8045E+02
     -2.792  0.9014E+01  0.6553E+01  0.8105E+02  0.8083E+02
     -2.733  0.9458E+01  0.1213E+02  0.8161E+02  0.8155E+02
     -2.674  0.2895E+01  0.2654E+01  0.8178E+02  0.8171E+02
     -2.615  0.9403E+01  0.7561E+01  0.8234E+02  0.8215E+02
     -2.556  0.1083E+02  0.9085E+01  0.8298E+02  0.8269E+02
     -2.497  0.1188E+02  0.1440E+02  0.8368E+02  0.8354E+02
     -2.438  0.1352E+02  0.1206E+02  0.8447E+02  0.8425E+02
     -2.379  0.9749E+01  0.1250E+02  0.8505E+02  0.8499E+02
     -2.320  0.3016E+01  0.3205E+01  0.8523E+02  0.8518E+02
     -2.261  0.6055E+01  0.4535E+01  0.8559E+02  0.8545E+02
     -2.202  0.7491E+01  0.5513E+01  0.8603E+02  0.8577E+02
     -2.142  0.1788E+02  0.1411E+02  0.8708E+02  0.8661E+02
     -2.083  0.6110E+01  0.1421E+02  0.8745E+02  0.8744E+02
     -2.024  0.1154E+02  0.9734E+01  0.8813E+02  0.8802E+02
     -1.965  0.7309E+01  0.8229E+01  0.8856E+02  0.8851E+02
     -1.906  0.4139E+01  0.3783E+01  0.8880E+02  0.8873E+02
     -1.847  0.7391E+01  0.5587E+01  0.8924E+02  0.8906E+02
     -1.788  0.5623E+01  0.7120E+01  0.8957E+02  0.8948E+02
     -1.729  0.5177E+01  0.3735E+01  0.8988E+02  0.8970E+02
     -1.670  0.8594E+01  0.8774E+01  0.9038E+02  0.9022E+02
     -1.611  0.4979E+01  0.5882E+01  0.9068E+02  0.9056E+02
     -1.552  0.5435E+01  0.6153E+01  0.9100E+02  0.9093E+02
     -1.493  0.1866E+01  0.1821E+01  0.9111E+02  0.9104E+02
     -1.434  0.1916E+01  0.3103E+01  0.9122E+02  0.9122E+02
     -1.375  0.6943E+01  0.3328E+01  0.9163E+02  0.9142E+02
     -1.316  0.7182E+01  0.1063E+02  0.9206E+02  0.9204E+02
     -1.257  0.5463E+01  0.4412E+01  0.9238E+02  0.9230E+02
     -1.198  0.4564E+01  0.3426E+01  0.9265E+02  0.9251E+02
     -1.139  0.1336E+02  0.9014E+01  0.9344E+02  0.9304E+02
     -1.080  0.1033E+02  0.1396E+02  0.9405E+02  0.9386E+02
     -1.021  0.2294E+02  0.2022E+02  0.9540E+02  0.9506E+02
     -0.962  0.2066E+02  0.2351E+02  0.9662E+02  0.9644E+02
     -0.903  0.1582E+02  0.1383E+02  0.9756E+02  0.9726E+02
     -0.844  0.1384E+02  0.1222E+02  0.9837E+02  0.9798E+02
     -0.784  0.1825E+02  0.1745E+02  0.9945E+02  0.9901E+02
     -0.725  0.2345E+02  0.2239E+02  0.1008E+03  0.1003E+03
     -0.666  0.1837E+02  0.2328E+02  0.1019E+03  0.1017E+03
     -0.607  0.2658E+02  0.2353E+02  0.1035E+03  0.1031E+03
     -0.548  0.1246E+02  0.1270E+02  0.1042E+03  0.1038E+03
     -0.489  0.2190E+02  0.2394E+02  0.1055E+03  0.1053E+03
     -0.430  0.2536E+02  0.2316E+02  0.1070E+03  0.1066E+03
     -0.371  0.3280E+02  0.2900E+02  0.1090E+03  0.1083E+03
     -0.312  0.3073E+02  0.3832E+02  0.1108E+03  0.1106E+03
     -0.253  0.2648E+02  0.1942E+02  0.1123E+03  0.1118E+03
     -0.194  0.1977E+02  0.2571E+02  0.1135E+03  0.1133E+03
     -0.135  0.2706E+02  0.2686E+02  0.1151E+03  0.1149E+03
     -0.076  0.2233E+02  0.1880E+02  0.1164E+03  0.1160E+03
     -0.017  0.2147E+02  0.2210E+02  0.1177E+03  0.1173E+03
      0.042  0.2274E+02  0.2465E+02  0.1190E+03  0.1187E+03
      0.101  0.3178E+02  0.2731E+02  0.1209E+03  0.1203E+03
      0.160  0.2180E+02  0.2878E+02  0.1222E+03  0.1220E+03
      0.219  0.2071E+02  0.1546E+02  0.1234E+03  0.1230E+03
      0.278  0.2147E+02  0.2613E+02  0.1247E+03  0.1245E+03
      0.337  0.2131E+02  0.1621E+02  0.1259E+03  0.1255E+03
      0.396  0.2740E+02  0.2766E+02  0.1276E+03  0.1271E+03
      0.455  0.2254E+02  0.2629E+02  0.1289E+03  0.1286E+03
      0.515  0.2423E+02  0.1908E+02  0.1303E+03  0.1298E+03
      0.574  0.3175E+02  0.3093E+02  0.1322E+03  0.1316E+03
      0.633  0.2780E+02  0.3045E+02  0.1338E+03  0.1334E+03
      0.692  0.2420E+02  0.2357E+02  0.1353E+03  0.1348E+03
      0.751  0.3162E+02  0.3154E+02  0.1371E+03  0.1366E+03
      0.810  0.2509E+02  0.2674E+02  0.1386E+03  0.1382E+03
      0.869  0.3366E+02  0.3209E+02  0.1406E+03  0.1401E+03
      0.928  0.2155E+02  0.2074E+02  0.1419E+03  0.1413E+03
      0.987  0.4385E+02  0.3813E+02  0.1445E+03  0.1436E+03
      1.046  0.2594E+02  0.3097E+02  0.1460E+03  0.1454E+03
      1.105  0.2861E+02  0.2678E+02  0.1477E+03  0.1470E+03
      1.164  0.2676E+02  0.3125E+02  0.1493E+03  0.1488E+03
      1.223  0.1834E+02  0.1988E+02  0.1503E+03  0.1500E+03
      1.282  0.2272E+02  0.2539E+02  0.1517E+03  0.1515E+03
      1.341  0.1713E+02  0.1501E+02  0.1527E+03  0.1524E+03
      1.400  0.2519E+02  0.1932E+02  0.1542E+03  0.1535E+03
      1.459  0.2185E+02  0.2627E+02  0.1555E+03  0.1551E+03
      1.518  0.2116E+02  0.1853E+02  0.1567E+03  0.1562E+03
      1.577  0.2035E+02  0.2354E+02  0.1579E+03  0.1576E+03
      1.636  0.1587E+02  0.1892E+02  0.1589E+03  0.1587E+03
      1.695  0.2487E+02  0.1550E+02  0.1603E+03  0.1596E+03
      1.754  0.2784E+02  0.3529E+02  0.1620E+03  0.1617E+03
      1.813  0.2504E+02  0.1914E+02  0.1635E+03  0.1628E+03
      1.873  0.2068E+02  0.2523E+02  0.1647E+03  0.1643E+03
      1.932  0.1865E+02  0.1790E+02  0.1658E+03  0.1654E+03
      1.991  0.2689E+02  0.2511E+02  0.1674E+03  0.1669E+03
      2.050  0.2361E+02  0.2169E+02  0.1688E+03  0.1681E+03
      2.109  0.2582E+02  0.2684E+02  0.1703E+03  0.1697E+03
      2.168  0.3031E+02  0.2150E+02  0.1721E+03  0.1710E+03
      2.227  0.1812E+02  0.3103E+02  0.1731E+03  0.1728E+03
      2.286  0.2147E+02  0.2021E+02  0.1744E+03  0.1740E+03
      2.345  0.1664E+02  0.1663E+02  0.1754E+03  0.1750E+03
      2.404  0.1567E+02  0.1459E+02  0.1763E+03  0.1759E+03
      2.463  0.1333E+02  0.1499E+02  0.1771E+03  0.1767E+03
      2.522  0.2219E+02  0.1521E+02  0.1784E+03  0.1776E+03
      2.581  0.2943E+02  0.3158E+02  0.1802E+03  0.1795E+03
      2.640  0.2281E+02  0.2096E+02  0.1815E+03  0.1807E+03
      2.699  0.1687E+02  0.2027E+02  0.1825E+03  0.1819E+03
      2.758  0.8698E+01  0.1209E+02  0.1830E+03  0.1827E+03
      2.817  0.1385E+02  0.1049E+02  0.1838E+03  0.1833E+03
      2.876  0.1718E+02  0.1874E+02  0.1848E+03  0.1844E+03
      2.935  0.8580E+01  0.1246E+02  0.1853E+03  0.1851E+03
      2.994  0.7983E+01  0.7716E+01  0.1858E+03  0.1856E+03
      3.053  0.1920E+02  0.1183E+02  0.1870E+03  0.1863E+03
      3.112  0.1284E+02  0.1770E+02  0.1877E+03  0.1873E+03
      3.171  0.2639E+02  0.1465E+02  0.1893E+03  0.1882E+03
      3.231  0.1301E+02  0.2524E+02  0.1900E+03  0.1897E+03
      3.290  0.1615E+02  0.8022E+01  0.1910E+03  0.1902E+03
      3.349  0.1316E+02  0.1961E+02  0.1918E+03  0.1913E+03
      3.408  0.1778E+02  0.1540E+02  0.1928E+03  0.1922E+03
      3.467  0.1412E+02  0.1226E+02  0.1937E+03  0.1929E+03
      3.526  0.7498E+01  0.1322E+02  0.1941E+03  0.1937E+03
      3.585  0.1714E+02  0.8693E+01  0.1951E+03  0.1942E+03
      3.644  0.1201E+02  0.1902E+02  0.1958E+03  0.1954E+03
      3.703  0.1801E+02  0.1376E+02  0.1969E+03  0.1962E+03
      3.762  0.1907E+02  0.2152E+02  0.1980E+03  0.1974E+03
      3.821  0.1551E+02  0.1580E+02  0.1989E+03  0.1984E+03
      3.880  0.7851E+01  0.1441E+02  0.1994E+03  0.1992E+03
      3.939  0.1130E+02  0.7099E+01  0.2001E+03  0.1996E+03
      3.998  0.1457E+02  0.1741E+02  0.2009E+03  0.2007E+03
      4.057  0.1730E+02  0.1609E+02  0.2019E+03  0.2016E+03
      4.116  0.1856E+02  0.1569E+02  0.2030E+03  0.2025E+03
      4.175  0.1468E+02  0.1382E+02  0.2039E+03  0.2034E+03
      4.234  0.1333E+02  0.1585E+02  0.2047E+03  0.2043E+03
      4.293  0.1041E+02  0.9796E+01  0.2053E+03  0.2049E+03
      4.352  0.1146E+02  0.1245E+02  0.2060E+03  0.2056E+03
      4.411  0.1606E+02  0.1474E+02  0.2069E+03  0.2065E+03
      4.470  0.1361E+02  0.1839E+02  0.2077E+03  0.2076E+03
      4.529  0.1276E+02  0.7930E+01  0.2085E+03  0.2080E+03
      4.589  0.1335E+02  0.1595E+02  0.2093E+03  0.2090E+03
      4.648  0.1803E+02  0.1373E+02  0.2103E+03  0.2098E+03
      4.707  0.2460E+02  0.2579E+02  0.2118E+03  0.2113E+03
      4.766  0.1731E+02  0.1975E+02  0.2128E+03  0.2125E+03
      4.825  0.1346E+02  0.1706E+02  0.2136E+03  0.2135E+03
      4.884  0.2158E+02  0.1430E+02  0.2149E+03  0.2143E+03
      4.943  0.3010E+02  0.3061E+02  0.2167E+03  0.2161E+03
      5.002  0.1103E+02  0.1772E+02  0.2173E+03  0.2172E+03
      5.061  0.1506E+02  0.1332E+02  0.2182E+03  0.2180E+03
      5.120  0.2162E+02  0.2201E+02  0.2195E+03  0.2193E+03
      5.179  0.2500E+02  0.2351E+02  0.2209E+03  0.2207E+03
      5.238  0.2688E+02  0.2385E+02  0.2225E+03  0.2221E+03
      5.297  0.2870E+02  0.3064E+02  0.2242E+03  0.2239E+03
      5.356  0.2553E+02  0.2402E+02  0.2257E+03  0.2253E+03
      5.415  0.2088E+02  0.1904E+02  0.2270E+03  0.2264E+03
      5.474  0.1647E+02  0.1777E+02  0.2279E+03  0.2275E+03
      5.533  0.2383E+02  0.2274E+02  0.2293E+03  0.2288E+03
      5.592  0.2235E+02  0.2388E+02  0.2307E+03  0.2302E+03
      5.651  0.1107E+02  0.1474E+02  0.2313E+03  0.2311E+03
      5.710  0.6736E+01  0.9723E+01  0.2317E+03  0.2317E+03
      5.769  0.3265E+01  0.3399E+01  0.2319E+03  0.2319E+03
      5.828  0.1469E+01  0.2234E+01  0.2320E+03  0.2320E+03
      5.888  0.0000E+00  0.0000E+00  0.2320E+03  0.2320E+03
      5.947  0.0000E+00  0.0000E+00  0.2320E+03  0.2320E+03
      6.006  0.0000E+00  0.0000E+00  0.2320E+03  0.2320E+03
      6.065  0.0000E+00  0.0000E+00  0.2320E+03  0.2320E+03
      6.124  0.0000E+00  0.0000E+00  0.2320E+03  0.2320E+03
      6.183  0.0000E+00  0.0000E+00  0.2320E+03  0.2320E+03
      6.242  0.0000E+00  0.0000E+00  0.2320E+03  0.2320E+03
      6.301  0.0000E+00  0.0000E+00  0.2320E+03  0.2320E+03
      6.360  0.0000E+00  0.0000E+00  0.2320E+03  0.2320E+03
      6.419  0.0000E+00  0.0000E+00  0.2320E+03  0.2320E+03
      6.478  0.0000E+00  0.0000E+00  0.2320E+03  0.2320E+03
      6.537  0.0000E+00  0.0000E+00  0.2320E+03  0.2320E+03
      6.596  0.0000E+00  0.0000E+00  0.2320E+03  0.2320E+03
