Si and Ge interface calculation         
           1
    14.510292    0.000000    0.000000
     0.000000   19.467602    0.000000
     0.000000    0.000000   17.404436
   Sn   Ge
    36   144
Direct configuration=     1
   0.98290563  0.65242130  0.00000001
   0.78290558  0.48575461  0.08337129
   0.58290541  0.31908789  0.16674255
   0.98290563  0.31908801  0.00000001
   0.78290558  0.15242132  0.08337129
   0.58290541  0.98575461  0.16674255
   0.98290563  0.98575473  0.00000001
   0.78290558  0.81908804  0.08337129
   0.58290541  0.65242130  0.16674255
   0.63290560  0.90242141  0.04168557
   0.43290553  0.73575473  0.12505685
   0.23290543  0.56908804  0.20842809
   0.63290560  0.56908798  0.04168557
   0.43290553  0.40242130  0.12505685
   0.23290543  0.23575461  0.20842809
   0.63290560  0.23575476  0.04168557
   0.43290553  0.06908806  0.12505685
   0.23290543  0.90242136  0.20842809
   0.48290560  0.81908792  0.00000000
   0.28290546  0.65242124  0.08337127
   0.08290535  0.48575458  0.16674258
   0.48290560  0.48575467  0.00000000
   0.28290546  0.31908798  0.08337127
   0.08290535  0.15242128  0.16674258
   0.48290560  0.15242136  0.00000000
   0.28290546  0.98575467  0.08337127
   0.08290535  0.81908798  0.16674258
   0.13290565  0.73575467  0.04168556
   0.93290555  0.56908798  0.12505682
   0.73290551  0.40242130  0.20842809
   0.13290565  0.40242138  0.04168556
   0.93290555  0.23575471  0.12505682
   0.73290551  0.06908801  0.20842809
   0.13290565  0.06908801  0.04168556
   0.93290555  0.90242136  0.12505682
   0.73290551  0.73575461  0.20842809
   0.48632288  0.13917525  0.31688291
   0.23632276  0.13917518  0.43181536
   0.98632270  0.13917518  0.54674774
   0.73632264  0.13917506  0.66168022
   0.48632276  0.13917494  0.77661264
   0.23632252  0.13917494  0.89154518
   0.15298951  0.30584189  0.31688291
   0.90298945  0.30584186  0.43181536
   0.65298939  0.30584177  0.54674774
   0.40298939  0.30584168  0.66168022
   0.15298939  0.30584162  0.77661264
   0.90298921  0.30584157  0.89154518
   0.81965613  0.47250855  0.31688291
   0.56965613  0.47250849  0.43181536
   0.31965601  0.47250843  0.54674774
   0.06965601  0.47250837  0.66168022
   0.81965596  0.47250825  0.77661264
   0.56965589  0.47250825  0.89154518
   0.48632288  0.63917524  0.31688291
   0.23632276  0.63917518  0.43181536
   0.98632264  0.63917512  0.54674774
   0.73632270  0.63917500  0.66168022
   0.48632264  0.63917494  0.77661264
   0.23632252  0.63917488  0.89154518
   0.15298951  0.80584192  0.31688288
   0.90298945  0.80584180  0.43181533
   0.65298933  0.80584174  0.54674774
   0.40298939  0.80584168  0.66168022
   0.15298927  0.80584162  0.77661264
   0.90298921  0.80584157  0.89154518
   0.81965619  0.97250855  0.31688288
   0.56965613  0.97250849  0.43181533
   0.31965601  0.97250843  0.54674774
   0.06965601  0.97250831  0.66168022
   0.81965596  0.97250831  0.77661264
   0.56965589  0.97250819  0.89154518
   0.98632288  0.13917530  0.31688291
   0.73632276  0.13917518  0.43181536
   0.48632264  0.13917518  0.54674774
   0.23632264  0.13917506  0.66168022
   0.98632264  0.13917494  0.77661264
   0.73632252  0.13917494  0.89154518
   0.65298951  0.30584192  0.31688291
   0.40298939  0.30584183  0.43181536
   0.15298939  0.30584177  0.54674774
   0.90298933  0.30584168  0.66168022
   0.65298933  0.30584162  0.77661264
   0.40298927  0.30584157  0.89154518
   0.31965625  0.47250861  0.31688291
   0.06965613  0.47250855  0.43181536
   0.81965613  0.47250849  0.54674774
   0.56965607  0.47250843  0.66168028
   0.31965601  0.47250831  0.77661264
   0.06965589  0.47250825  0.89154512
   0.98632288  0.63917524  0.31688291
   0.73632276  0.63917512  0.43181536
   0.48632264  0.63917506  0.54674774
   0.23632264  0.63917500  0.66168028
   0.98632270  0.63917488  0.77661264
   0.73632252  0.63917482  0.89154512
   0.65298951  0.80584186  0.31688291
   0.40298939  0.80584180  0.43181536
   0.15298939  0.80584174  0.54674774
   0.90298933  0.80584168  0.66168028
   0.65298921  0.80584157  0.77661264
   0.40298927  0.80584151  0.89154512
   0.31965613  0.97250855  0.31688291
   0.06965613  0.97250855  0.43181536
   0.81965601  0.97250837  0.54674780
   0.56965601  0.97250837  0.66168028
   0.31965601  0.97250825  0.77661264
   0.06965589  0.97250819  0.89154518
   0.15298963  0.18084189  0.31688291
   0.90298951  0.18084183  0.43181536
   0.65298945  0.18084176  0.54674774
   0.40298939  0.18084168  0.66168022
   0.15298939  0.18084164  0.77661264
   0.90298933  0.18084155  0.89154518
   0.81965613  0.34750855  0.31688291
   0.56965613  0.34750849  0.43181536
   0.31965601  0.34750840  0.54674774
   0.06965601  0.34750837  0.66168022
   0.81965601  0.34750828  0.77661264
   0.56965589  0.34750819  0.89154524
   0.48632288  0.51417518  0.31688291
   0.23632288  0.51417518  0.43181536
   0.98632270  0.51417506  0.54674774
   0.73632270  0.51417500  0.66168022
   0.48632276  0.51417494  0.77661264
   0.23632252  0.51417482  0.89154524
   0.15298963  0.68084192  0.31688288
   0.90298951  0.68084180  0.43181536
   0.65298945  0.68084174  0.54674780
   0.40298939  0.68084168  0.66168022
   0.15298939  0.68084157  0.77661264
   0.90298927  0.68084151  0.89154512
   0.81965619  0.84750849  0.31688288
   0.56965607  0.84750843  0.43181536
   0.31965601  0.84750837  0.54674774
   0.06965601  0.84750825  0.66168022
   0.81965601  0.84750819  0.77661264
   0.56965589  0.84750813  0.89154512
   0.48632288  0.01417530  0.31688288
   0.23632288  0.01417518  0.43181536
   0.98632282  0.01417518  0.54674780
   0.73632276  0.01417506  0.66168022
   0.48632276  0.01417494  0.77661264
   0.23632264  0.01417482  0.89154512
   0.65298951  0.18084191  0.31688291
   0.40298939  0.18084183  0.43181536
   0.15298939  0.18084177  0.54674774
   0.90298933  0.18084168  0.66168022
   0.65298933  0.18084161  0.77661264
   0.40298927  0.18084155  0.89154512
   0.31965613  0.34750855  0.31688291
   0.06965613  0.34750849  0.43181536
   0.81965601  0.34750843  0.54674774
   0.56965596  0.34750834  0.66168022
   0.31965589  0.34750825  0.77661264
   0.06965589  0.34750819  0.89154518
   0.98632288  0.51417524  0.31688291
   0.73632276  0.51417518  0.43181536
   0.48632264  0.51417506  0.54674774
   0.23632264  0.51417506  0.66168022
   0.98632270  0.51417494  0.77661264
   0.73632264  0.51417488  0.89154518
   0.65298951  0.68084192  0.31688291
   0.40298939  0.68084186  0.43181536
   0.15298939  0.68084174  0.54674774
   0.90298933  0.68084168  0.66168022
   0.65298933  0.68084162  0.77661264
   0.40298915  0.68084162  0.89154518
   0.31965625  0.84750861  0.31688288
   0.06965613  0.84750855  0.43181533
   0.81965607  0.84750843  0.54674780
   0.56965601  0.84750837  0.66168028
   0.31965601  0.84750831  0.77661264
   0.06965589  0.84750819  0.89154518
   0.98632288  0.01417530  0.31688288
   0.73632276  0.01417518  0.43181533
   0.48632264  0.01417518  0.54674780
   0.23632276  0.01417506  0.66168028
   0.98632270  0.01417506  0.77661264
   0.73632246  0.01417494  0.89154518
