 180 180   0   0
  0.2731342E+02  0.1451029E-08  0.1946760E-08  0.1740444E-08  0.5000000E-15
  1.000000000000000E-004
  CAR 
 Si and Ge interface calculation         
      5.64842687    -10.18704586  301      2.77277349      1.00000000
    -10.187  0.0000E+00  0.0000E+00  0.0000E+00  0.0000E+00
    -10.134  0.0000E+00  0.0000E+00  0.0000E+00  0.0000E+00
    -10.081  0.0000E+00  0.0000E+00  0.0000E+00  0.0000E+00
    -10.029  0.0000E+00  0.0000E+00  0.0000E+00  0.0000E+00
     -9.976  0.0000E+00  0.0000E+00  0.0000E+00  0.0000E+00
     -9.923  0.0000E+00  0.0000E+00  0.0000E+00  0.0000E+00
     -9.870  0.0000E+00  0.0000E+00  0.0000E+00  0.0000E+00
     -9.818  0.0000E+00  0.0000E+00  0.0000E+00  0.0000E+00
     -9.765  0.0000E+00  0.0000E+00  0.0000E+00  0.0000E+00
     -9.712  0.0000E+00  0.0000E+00  0.0000E+00  0.0000E+00
     -9.659  0.0000E+00  0.0000E+00  0.0000E+00  0.0000E+00
     -9.606  0.0000E+00  0.0000E+00  0.0000E+00  0.0000E+00
     -9.554  0.0000E+00  0.0000E+00  0.0000E+00  0.0000E+00
     -9.501  0.4898E-05  0.3790E-06  0.2585E-06  0.2000E-07
     -9.448  0.9340E+01  0.9079E+01  0.4930E+00  0.4793E+00
     -9.395  0.7066E+01  0.4298E+01  0.8660E+00  0.7061E+00
     -9.342  0.2821E+02  0.2808E+02  0.2355E+01  0.2188E+01
     -9.290  0.2362E+02  0.2558E+02  0.3602E+01  0.3538E+01
     -9.237  0.7626E+01  0.8759E+01  0.4004E+01  0.4001E+01
     -9.184  0.3964E+02  0.3278E+02  0.6097E+01  0.5731E+01
     -9.131  0.2906E+02  0.3495E+02  0.7631E+01  0.7576E+01
     -9.079  0.2506E+02  0.2490E+02  0.8954E+01  0.8890E+01
     -9.026  0.1031E+02  0.1143E+02  0.9498E+01  0.9494E+01
     -8.973  0.1885E+02  0.1857E+02  0.1049E+02  0.1047E+02
     -8.920  0.2518E+02  0.1688E+02  0.1182E+02  0.1137E+02
     -8.867  0.3624E+02  0.4355E+02  0.1373E+02  0.1366E+02
     -8.815  0.3871E+02  0.3505E+02  0.1578E+02  0.1551E+02
     -8.762  0.2317E+02  0.2815E+02  0.1700E+02  0.1700E+02
     -8.709  0.4495E+02  0.4144E+02  0.1937E+02  0.1919E+02
     -8.656  0.2847E+02  0.2964E+02  0.2088E+02  0.2075E+02
     -8.603  0.2901E+02  0.2653E+02  0.2241E+02  0.2215E+02
     -8.551  0.1945E+02  0.2314E+02  0.2343E+02  0.2337E+02
     -8.498  0.3931E+02  0.3984E+02  0.2551E+02  0.2548E+02
     -8.445  0.5911E+02  0.5723E+02  0.2863E+02  0.2850E+02
     -8.392  0.4463E+02  0.4468E+02  0.3099E+02  0.3086E+02
     -8.340  0.3183E+02  0.3316E+02  0.3267E+02  0.3261E+02
     -8.287  0.2879E+02  0.2638E+02  0.3419E+02  0.3400E+02
     -8.234  0.1542E+02  0.1898E+02  0.3500E+02  0.3500E+02
     -8.181  0.3330E+02  0.2658E+02  0.3676E+02  0.3640E+02
     -8.128  0.4802E+02  0.5288E+02  0.3929E+02  0.3919E+02
     -8.076  0.3979E+02  0.3796E+02  0.4139E+02  0.4120E+02
     -8.023  0.5968E+02  0.6286E+02  0.4454E+02  0.4452E+02
     -7.970  0.5650E+02  0.5099E+02  0.4753E+02  0.4721E+02
     -7.917  0.3498E+02  0.3917E+02  0.4937E+02  0.4928E+02
     -7.865  0.5176E+02  0.4732E+02  0.5210E+02  0.5177E+02
     -7.812  0.5875E+02  0.6261E+02  0.5520E+02  0.5508E+02
     -7.759  0.5591E+02  0.5317E+02  0.5816E+02  0.5788E+02
     -7.706  0.3782E+02  0.4140E+02  0.6015E+02  0.6007E+02
     -7.653  0.7575E+02  0.7154E+02  0.6415E+02  0.6385E+02
     -7.601  0.5037E+02  0.5242E+02  0.6681E+02  0.6661E+02
     -7.548  0.7951E+02  0.7588E+02  0.7101E+02  0.7062E+02
     -7.495  0.4354E+02  0.4729E+02  0.7330E+02  0.7311E+02
     -7.442  0.7873E+02  0.7651E+02  0.7746E+02  0.7715E+02
     -7.389  0.6432E+02  0.6603E+02  0.8086E+02  0.8064E+02
     -7.337  0.4795E+02  0.4892E+02  0.8339E+02  0.8322E+02
     -7.284  0.3982E+02  0.3772E+02  0.8549E+02  0.8521E+02
     -7.231  0.7163E+02  0.7633E+02  0.8927E+02  0.8924E+02
     -7.178  0.5449E+02  0.5056E+02  0.9215E+02  0.9191E+02
     -7.126  0.6009E+02  0.6132E+02  0.9532E+02  0.9515E+02
     -7.073  0.3431E+02  0.3013E+02  0.9713E+02  0.9674E+02
     -7.020  0.8686E+02  0.8469E+02  0.1017E+03  0.1012E+03
     -6.967  0.8541E+02  0.9047E+02  0.1062E+03  0.1060E+03
     -6.914  0.3738E+02  0.3587E+02  0.1082E+03  0.1079E+03
     -6.862  0.6835E+02  0.7126E+02  0.1118E+03  0.1116E+03
     -6.809  0.5031E+02  0.4857E+02  0.1145E+03  0.1142E+03
     -6.756  0.7528E+02  0.7421E+02  0.1184E+03  0.1181E+03
     -6.703  0.3214E+02  0.3316E+02  0.1201E+03  0.1199E+03
     -6.650  0.6080E+02  0.6090E+02  0.1233E+03  0.1231E+03
     -6.598  0.2409E+02  0.2755E+02  0.1246E+03  0.1245E+03
     -6.545  0.3736E+02  0.3394E+02  0.1266E+03  0.1263E+03
     -6.492  0.5335E+02  0.5253E+02  0.1294E+03  0.1291E+03
     -6.439  0.5104E+02  0.5464E+02  0.1321E+03  0.1320E+03
     -6.387  0.3713E+02  0.3705E+02  0.1341E+03  0.1339E+03
     -6.334  0.3961E+02  0.3519E+02  0.1361E+03  0.1358E+03
     -6.281  0.4151E+02  0.4586E+02  0.1383E+03  0.1382E+03
     -6.228  0.4524E+02  0.4487E+02  0.1407E+03  0.1406E+03
     -6.175  0.6715E+02  0.6051E+02  0.1443E+03  0.1438E+03
     -6.123  0.7019E+02  0.7427E+02  0.1480E+03  0.1477E+03
     -6.070  0.1841E+02  0.2106E+02  0.1489E+03  0.1488E+03
     -6.017  0.3158E+02  0.3208E+02  0.1506E+03  0.1505E+03
     -5.964  0.4708E+02  0.4523E+02  0.1531E+03  0.1529E+03
     -5.911  0.2540E+02  0.2542E+02  0.1544E+03  0.1542E+03
     -5.859  0.2032E+02  0.2394E+02  0.1555E+03  0.1555E+03
     -5.806  0.3182E+02  0.3049E+02  0.1572E+03  0.1571E+03
     -5.753  0.3362E+02  0.2854E+02  0.1590E+03  0.1586E+03
     -5.700  0.5936E+02  0.6255E+02  0.1621E+03  0.1619E+03
     -5.648  0.5499E+02  0.5152E+02  0.1650E+03  0.1646E+03
     -5.595  0.2961E+02  0.3163E+02  0.1666E+03  0.1663E+03
     -5.542  0.3529E+02  0.3796E+02  0.1684E+03  0.1683E+03
     -5.489  0.4438E+02  0.3776E+02  0.1708E+03  0.1703E+03
     -5.436  0.4712E+02  0.5526E+02  0.1733E+03  0.1732E+03
     -5.384  0.1466E+02  0.1488E+02  0.1740E+03  0.1740E+03
     -5.331  0.5930E+02  0.5496E+02  0.1772E+03  0.1769E+03
     -5.278  0.5865E+02  0.5838E+02  0.1803E+03  0.1800E+03
     -5.225  0.2889E+02  0.3070E+02  0.1818E+03  0.1816E+03
     -5.172  0.5885E+02  0.6044E+02  0.1849E+03  0.1848E+03
     -5.120  0.5180E+02  0.4906E+02  0.1876E+03  0.1874E+03
     -5.067  0.2709E+02  0.2852E+02  0.1891E+03  0.1889E+03
     -5.014  0.6829E+02  0.6631E+02  0.1927E+03  0.1924E+03
     -4.961  0.3528E+02  0.3700E+02  0.1945E+03  0.1943E+03
     -4.909  0.4007E+02  0.3788E+02  0.1966E+03  0.1963E+03
     -4.856  0.5573E+02  0.5489E+02  0.1996E+03  0.1992E+03
     -4.803  0.4900E+02  0.5291E+02  0.2022E+03  0.2020E+03
     -4.750  0.4777E+02  0.4636E+02  0.2047E+03  0.2045E+03
     -4.697  0.7460E+02  0.7119E+02  0.2086E+03  0.2082E+03
     -4.645  0.7023E+02  0.7087E+02  0.2123E+03  0.2120E+03
     -4.592  0.4912E+02  0.5233E+02  0.2149E+03  0.2147E+03
     -4.539  0.5948E+02  0.6120E+02  0.2181E+03  0.2180E+03
     -4.486  0.8478E+02  0.7939E+02  0.2225E+03  0.2222E+03
     -4.433  0.4969E+02  0.5468E+02  0.2252E+03  0.2251E+03
     -4.381  0.7705E+02  0.7388E+02  0.2292E+03  0.2290E+03
     -4.328  0.6581E+02  0.6589E+02  0.2327E+03  0.2324E+03
     -4.275  0.6474E+02  0.6451E+02  0.2361E+03  0.2358E+03
     -4.222  0.1001E+03  0.9743E+02  0.2414E+03  0.2410E+03
     -4.170  0.1054E+03  0.1040E+03  0.2470E+03  0.2465E+03
     -4.117  0.9393E+02  0.9854E+02  0.2519E+03  0.2517E+03
     -4.064  0.4061E+02  0.3753E+02  0.2541E+03  0.2537E+03
     -4.011  0.8054E+02  0.8459E+02  0.2583E+03  0.2581E+03
     -3.958  0.4472E+02  0.4315E+02  0.2607E+03  0.2604E+03
     -3.906  0.4680E+02  0.4572E+02  0.2631E+03  0.2628E+03
     -3.853  0.4385E+02  0.4569E+02  0.2655E+03  0.2652E+03
     -3.800  0.3092E+02  0.3084E+02  0.2671E+03  0.2669E+03
     -3.747  0.4026E+02  0.4075E+02  0.2692E+03  0.2690E+03
     -3.695  0.4153E+02  0.4210E+02  0.2714E+03  0.2712E+03
     -3.642  0.3968E+02  0.3796E+02  0.2735E+03  0.2732E+03
     -3.589  0.2363E+02  0.2369E+02  0.2748E+03  0.2745E+03
     -3.536  0.5541E+02  0.5680E+02  0.2777E+03  0.2775E+03
     -3.483  0.6881E+02  0.6336E+02  0.2813E+03  0.2808E+03
     -3.431  0.3398E+02  0.3617E+02  0.2831E+03  0.2827E+03
     -3.378  0.3193E+02  0.3841E+02  0.2848E+03  0.2848E+03
     -3.325  0.5222E+02  0.4598E+02  0.2875E+03  0.2872E+03
     -3.272  0.4689E+02  0.4857E+02  0.2900E+03  0.2897E+03
     -3.219  0.6416E+02  0.6415E+02  0.2934E+03  0.2931E+03
     -3.167  0.4557E+02  0.4143E+02  0.2958E+03  0.2953E+03
     -3.114  0.4229E+02  0.4841E+02  0.2980E+03  0.2979E+03
     -3.061  0.3897E+02  0.3720E+02  0.3001E+03  0.2998E+03
     -3.008  0.5064E+02  0.5193E+02  0.3028E+03  0.3026E+03
     -2.956  0.1925E+02  0.2115E+02  0.3038E+03  0.3037E+03
     -2.903  0.4327E+02  0.4393E+02  0.3061E+03  0.3060E+03
     -2.850  0.5198E+02  0.4708E+02  0.3088E+03  0.3085E+03
     -2.797  0.2640E+02  0.3035E+02  0.3102E+03  0.3101E+03
     -2.744  0.2376E+02  0.2375E+02  0.3115E+03  0.3114E+03
     -2.692  0.3838E+02  0.3575E+02  0.3135E+03  0.3132E+03
     -2.639  0.3138E+02  0.3069E+02  0.3151E+03  0.3149E+03
     -2.586  0.2303E+02  0.2572E+02  0.3164E+03  0.3162E+03
     -2.533  0.3196E+02  0.3022E+02  0.3180E+03  0.3178E+03
     -2.480  0.2437E+02  0.2558E+02  0.3193E+03  0.3192E+03
     -2.428  0.4335E+02  0.4374E+02  0.3216E+03  0.3215E+03
     -2.375  0.3162E+02  0.3109E+02  0.3233E+03  0.3231E+03
     -2.322  0.1600E+02  0.1346E+02  0.3241E+03  0.3238E+03
     -2.269  0.4340E+02  0.4584E+02  0.3264E+03  0.3262E+03
     -2.217  0.2943E+02  0.3210E+02  0.3280E+03  0.3279E+03
     -2.164  0.9648E+01  0.1016E+02  0.3285E+03  0.3285E+03
     -2.111  0.3587E+02  0.3261E+02  0.3304E+03  0.3302E+03
     -2.058  0.1687E+02  0.1836E+02  0.3313E+03  0.3312E+03
     -2.005  0.1370E+02  0.1564E+02  0.3320E+03  0.3320E+03
     -1.953  0.2801E+02  0.2570E+02  0.3335E+03  0.3334E+03
     -1.900  0.3750E+02  0.3324E+02  0.3355E+03  0.3351E+03
     -1.847  0.2476E+02  0.3091E+02  0.3368E+03  0.3367E+03
     -1.794  0.2348E+02  0.2197E+02  0.3380E+03  0.3379E+03
     -1.741  0.2918E+02  0.3023E+02  0.3395E+03  0.3395E+03
     -1.689  0.2501E+02  0.2077E+02  0.3409E+03  0.3406E+03
     -1.636  0.2085E+02  0.2465E+02  0.3420E+03  0.3419E+03
     -1.583  0.1382E+02  0.1203E+02  0.3427E+03  0.3425E+03
     -1.530  0.2006E+02  0.2323E+02  0.3438E+03  0.3438E+03
     -1.478  0.1890E+02  0.1881E+02  0.3448E+03  0.3447E+03
     -1.425  0.2442E+02  0.2393E+02  0.3460E+03  0.3460E+03
     -1.372  0.2302E+02  0.2023E+02  0.3473E+03  0.3471E+03
     -1.319  0.3714E+02  0.3528E+02  0.3492E+03  0.3489E+03
     -1.266  0.1924E+02  0.2295E+02  0.3502E+03  0.3501E+03
     -1.214  0.1275E+02  0.1315E+02  0.3509E+03  0.3508E+03
     -1.161  0.2023E+02  0.2079E+02  0.3520E+03  0.3519E+03
     -1.108  0.3293E+02  0.2912E+02  0.3537E+03  0.3535E+03
     -1.055  0.7376E+02  0.7550E+02  0.3576E+03  0.3575E+03
     -1.002  0.8924E+02  0.8593E+02  0.3623E+03  0.3620E+03
     -0.950  0.8970E+02  0.8645E+02  0.3670E+03  0.3666E+03
     -0.897  0.1194E+03  0.1200E+03  0.3734E+03  0.3729E+03
     -0.844  0.9472E+02  0.9882E+02  0.3784E+03  0.3781E+03
     -0.791  0.8174E+02  0.8291E+02  0.3827E+03  0.3825E+03
     -0.739  0.6831E+02  0.6496E+02  0.3863E+03  0.3859E+03
     -0.686  0.1376E+03  0.1323E+03  0.3935E+03  0.3929E+03
     -0.633  0.1130E+03  0.1186E+03  0.3995E+03  0.3992E+03
     -0.580  0.1051E+03  0.1050E+03  0.4050E+03  0.4047E+03
     -0.527  0.1028E+03  0.1003E+03  0.4105E+03  0.4100E+03
     -0.475  0.8593E+02  0.9131E+02  0.4150E+03  0.4148E+03
     -0.422  0.8520E+02  0.8071E+02  0.4195E+03  0.4191E+03
     -0.369  0.8180E+02  0.8481E+02  0.4238E+03  0.4236E+03
     -0.316  0.6630E+02  0.6531E+02  0.4273E+03  0.4270E+03
     -0.263  0.8980E+02  0.8790E+02  0.4321E+03  0.4316E+03
     -0.211  0.9317E+02  0.9132E+02  0.4370E+03  0.4365E+03
     -0.158  0.1224E+03  0.1221E+03  0.4434E+03  0.4429E+03
     -0.105  0.1285E+03  0.1259E+03  0.4502E+03  0.4496E+03
     -0.052  0.1160E+03  0.1184E+03  0.4563E+03  0.4558E+03
      0.000  0.1191E+03  0.1167E+03  0.4626E+03  0.4620E+03
      0.053  0.1227E+03  0.1210E+03  0.4691E+03  0.4684E+03
      0.106  0.1350E+03  0.1380E+03  0.4762E+03  0.4756E+03
      0.159  0.1176E+03  0.1172E+03  0.4824E+03  0.4818E+03
      0.212  0.1395E+03  0.1396E+03  0.4898E+03  0.4892E+03
      0.264  0.1145E+03  0.1169E+03  0.4959E+03  0.4954E+03
      0.317  0.1281E+03  0.1298E+03  0.5026E+03  0.5022E+03
      0.370  0.1114E+03  0.1081E+03  0.5085E+03  0.5079E+03
      0.423  0.1178E+03  0.1203E+03  0.5147E+03  0.5143E+03
      0.476  0.1355E+03  0.1322E+03  0.5219E+03  0.5212E+03
      0.528  0.1329E+03  0.1355E+03  0.5289E+03  0.5284E+03
      0.581  0.9373E+02  0.9513E+02  0.5338E+03  0.5334E+03
      0.634  0.1000E+03  0.9884E+02  0.5391E+03  0.5386E+03
      0.687  0.8930E+02  0.9065E+02  0.5438E+03  0.5434E+03
      0.739  0.1052E+03  0.1040E+03  0.5494E+03  0.5489E+03
      0.792  0.1190E+03  0.1154E+03  0.5557E+03  0.5550E+03
      0.845  0.1373E+03  0.1390E+03  0.5629E+03  0.5623E+03
      0.898  0.9197E+02  0.9787E+02  0.5678E+03  0.5675E+03
      0.951  0.1098E+03  0.1056E+03  0.5736E+03  0.5731E+03
      1.003  0.1229E+03  0.1206E+03  0.5800E+03  0.5794E+03
      1.056  0.1101E+03  0.1097E+03  0.5858E+03  0.5852E+03
      1.109  0.1104E+03  0.1112E+03  0.5917E+03  0.5911E+03
      1.162  0.1023E+03  0.1053E+03  0.5971E+03  0.5967E+03
      1.214  0.8485E+02  0.8011E+02  0.6016E+03  0.6009E+03
      1.267  0.1168E+03  0.1220E+03  0.6077E+03  0.6073E+03
      1.320  0.9533E+02  0.9949E+02  0.6127E+03  0.6126E+03
      1.373  0.9537E+02  0.9018E+02  0.6178E+03  0.6173E+03
      1.426  0.6859E+02  0.6947E+02  0.6214E+03  0.6210E+03
      1.478  0.8962E+02  0.8661E+02  0.6261E+03  0.6256E+03
      1.531  0.9390E+02  0.9510E+02  0.6311E+03  0.6306E+03
      1.584  0.8522E+02  0.8563E+02  0.6356E+03  0.6351E+03
      1.637  0.6104E+02  0.6679E+02  0.6388E+03  0.6386E+03
      1.690  0.8419E+02  0.7872E+02  0.6433E+03  0.6428E+03
      1.742  0.7154E+02  0.6772E+02  0.6470E+03  0.6464E+03
      1.795  0.6597E+02  0.7121E+02  0.6505E+03  0.6501E+03
      1.848  0.9343E+02  0.8520E+02  0.6554E+03  0.6546E+03
      1.901  0.8528E+02  0.9021E+02  0.6599E+03  0.6594E+03
      1.953  0.5110E+02  0.5582E+02  0.6626E+03  0.6623E+03
      2.006  0.8124E+02  0.7901E+02  0.6669E+03  0.6665E+03
      2.059  0.6864E+02  0.7237E+02  0.6706E+03  0.6703E+03
      2.112  0.7678E+02  0.6998E+02  0.6746E+03  0.6740E+03
      2.165  0.5836E+02  0.5807E+02  0.6777E+03  0.6771E+03
      2.217  0.8839E+02  0.8544E+02  0.6824E+03  0.6816E+03
      2.270  0.5334E+02  0.5827E+02  0.6852E+03  0.6847E+03
      2.323  0.6068E+02  0.6748E+02  0.6884E+03  0.6882E+03
      2.376  0.7547E+02  0.6623E+02  0.6924E+03  0.6917E+03
      2.429  0.1037E+03  0.1020E+03  0.6978E+03  0.6971E+03
      2.481  0.6996E+02  0.7005E+02  0.7015E+03  0.7008E+03
      2.534  0.7482E+02  0.7676E+02  0.7055E+03  0.7049E+03
      2.587  0.6632E+02  0.6832E+02  0.7090E+03  0.7085E+03
      2.640  0.7052E+02  0.6500E+02  0.7127E+03  0.7119E+03
      2.692  0.5643E+02  0.6130E+02  0.7157E+03  0.7151E+03
      2.745  0.4874E+02  0.4905E+02  0.7182E+03  0.7177E+03
      2.798  0.5525E+02  0.5709E+02  0.7212E+03  0.7207E+03
      2.851  0.6254E+02  0.6746E+02  0.7245E+03  0.7243E+03
      2.904  0.3537E+02  0.2991E+02  0.7263E+03  0.7259E+03
      2.956  0.6193E+02  0.5510E+02  0.7296E+03  0.7288E+03
      3.009  0.6029E+02  0.7001E+02  0.7328E+03  0.7325E+03
      3.062  0.6770E+02  0.5890E+02  0.7364E+03  0.7356E+03
      3.115  0.5105E+02  0.5256E+02  0.7391E+03  0.7384E+03
      3.168  0.5700E+02  0.5583E+02  0.7421E+03  0.7413E+03
      3.220  0.6980E+02  0.6438E+02  0.7457E+03  0.7447E+03
      3.273  0.6446E+02  0.6957E+02  0.7491E+03  0.7484E+03
      3.326  0.6074E+02  0.6333E+02  0.7524E+03  0.7517E+03
      3.379  0.3676E+02  0.4626E+02  0.7543E+03  0.7542E+03
      3.431  0.4287E+02  0.3750E+02  0.7566E+03  0.7562E+03
      3.484  0.6160E+02  0.5954E+02  0.7598E+03  0.7593E+03
      3.537  0.4489E+02  0.4121E+02  0.7622E+03  0.7615E+03
      3.590  0.6240E+02  0.6296E+02  0.7655E+03  0.7648E+03
      3.643  0.4798E+02  0.5396E+02  0.7680E+03  0.7676E+03
      3.695  0.4520E+02  0.4485E+02  0.7704E+03  0.7700E+03
      3.748  0.5788E+02  0.6282E+02  0.7734E+03  0.7733E+03
      3.801  0.3850E+02  0.3477E+02  0.7755E+03  0.7752E+03
      3.854  0.4246E+02  0.4573E+02  0.7777E+03  0.7776E+03
      3.907  0.4354E+02  0.4165E+02  0.7800E+03  0.7798E+03
      3.959  0.7911E+02  0.7296E+02  0.7842E+03  0.7836E+03
      4.012  0.7152E+02  0.7401E+02  0.7880E+03  0.7875E+03
      4.065  0.5143E+02  0.5619E+02  0.7907E+03  0.7905E+03
      4.118  0.7029E+02  0.6484E+02  0.7944E+03  0.7939E+03
      4.170  0.8450E+02  0.8343E+02  0.7989E+03  0.7983E+03
      4.223  0.7899E+02  0.8477E+02  0.8030E+03  0.8028E+03
      4.276  0.9429E+02  0.9138E+02  0.8080E+03  0.8076E+03
      4.329  0.8129E+02  0.8371E+02  0.8123E+03  0.8120E+03
      4.382  0.1150E+03  0.1126E+03  0.8184E+03  0.8180E+03
      4.434  0.8512E+02  0.8407E+02  0.8229E+03  0.8224E+03
      4.487  0.1100E+03  0.1080E+03  0.8287E+03  0.8281E+03
      4.540  0.8907E+02  0.9416E+02  0.8334E+03  0.8331E+03
      4.593  0.1191E+03  0.1170E+03  0.8396E+03  0.8393E+03
      4.646  0.1279E+03  0.1279E+03  0.8464E+03  0.8460E+03
      4.698  0.1065E+03  0.1046E+03  0.8520E+03  0.8515E+03
      4.751  0.9501E+02  0.9256E+02  0.8570E+03  0.8564E+03
      4.804  0.7079E+02  0.7733E+02  0.8608E+03  0.8605E+03
      4.857  0.4242E+02  0.5002E+02  0.8630E+03  0.8632E+03
      4.909  0.1474E+02  0.6799E+01  0.8638E+03  0.8635E+03
      4.962  0.4016E+01  0.9245E+01  0.8640E+03  0.8640E+03
      5.015  0.0000E+00  0.0000E+00  0.8640E+03  0.8640E+03
      5.068  0.0000E+00  0.0000E+00  0.8640E+03  0.8640E+03
      5.121  0.0000E+00  0.0000E+00  0.8640E+03  0.8640E+03
      5.173  0.0000E+00  0.0000E+00  0.8640E+03  0.8640E+03
      5.226  0.0000E+00  0.0000E+00  0.8640E+03  0.8640E+03
      5.279  0.0000E+00  0.0000E+00  0.8640E+03  0.8640E+03
      5.332  0.0000E+00  0.0000E+00  0.8640E+03  0.8640E+03
      5.385  0.0000E+00  0.0000E+00  0.8640E+03  0.8640E+03
      5.437  0.0000E+00  0.0000E+00  0.8640E+03  0.8640E+03
      5.490  0.0000E+00  0.0000E+00  0.8640E+03  0.8640E+03
      5.543  0.0000E+00  0.0000E+00  0.8640E+03  0.8640E+03
      5.596  0.0000E+00  0.0000E+00  0.8640E+03  0.8640E+03
      5.648  0.0000E+00  0.0000E+00  0.8640E+03  0.8640E+03
