  60  60   0   0
  0.1766892E+02  0.5431000E-09  0.1717433E-08  0.1136584E-08  0.5000000E-15
  1.000000000000000E-004
  CAR 
 Si and Ge interface calculation         
      9.36750904    -10.14237926  301      6.52881753      1.00000000
    -10.142  0.0000E+00  0.0000E+00  0.0000E+00  0.0000E+00
    -10.077  0.0000E+00  0.0000E+00  0.0000E+00  0.0000E+00
    -10.012  0.0000E+00  0.0000E+00  0.0000E+00  0.0000E+00
     -9.947  0.0000E+00  0.0000E+00  0.0000E+00  0.0000E+00
     -9.882  0.0000E+00  0.0000E+00  0.0000E+00  0.0000E+00
     -9.817  0.0000E+00  0.0000E+00  0.0000E+00  0.0000E+00
     -9.752  0.0000E+00  0.0000E+00  0.0000E+00  0.0000E+00
     -9.687  0.0000E+00  0.0000E+00  0.0000E+00  0.0000E+00
     -9.622  0.0000E+00  0.0000E+00  0.0000E+00  0.0000E+00
     -9.557  0.0000E+00  0.0000E+00  0.0000E+00  0.0000E+00
     -9.492  0.0000E+00  0.0000E+00  0.0000E+00  0.0000E+00
     -9.427  0.0000E+00  0.0000E+00  0.0000E+00  0.0000E+00
     -9.362  0.0000E+00  0.0000E+00  0.0000E+00  0.0000E+00
     -9.297  0.2910E-08  0.1612E-13  0.1893E-09  0.1049E-14
     -9.232  0.5097E+01  0.4149E+01  0.3315E+00  0.2698E+00
     -9.167  0.1025E+02  0.1121E+02  0.1000E+01  0.9988E+00
     -9.102  0.1530E+00  0.7668E-03  0.1010E+01  0.1000E+01
     -9.037  0.1015E+02  0.1025E+02  0.1670E+01  0.1667E+01
     -8.972  0.1028E+02  0.9957E+01  0.2339E+01  0.2314E+01
     -8.907  0.1017E+02  0.1055E+02  0.3000E+01  0.3000E+01
     -8.842  0.1021E+02  0.7733E+01  0.3664E+01  0.3503E+01
     -8.777  0.5126E+01  0.7619E+01  0.4000E+01  0.3998E+01
     -8.712  0.0000E+00  0.0000E+00  0.4000E+01  0.4000E+01
     -8.647  0.0000E+00  0.0000E+00  0.4000E+01  0.4000E+01
     -8.582  0.1157E-06  0.5103E-13  0.4000E+01  0.4000E+01
     -8.517  0.4508E+01  0.1995E+01  0.4293E+01  0.4130E+01
     -8.452  0.7222E+01  0.4832E+01  0.4763E+01  0.4444E+01
     -8.386  0.3638E+01  0.8550E+01  0.5000E+01  0.5000E+01
     -8.321  0.3362E-11  0.0000E+00  0.5000E+01  0.5000E+01
     -8.256  0.7275E+01  0.1634E+01  0.5473E+01  0.5106E+01
     -8.191  0.2955E+01  0.8617E+01  0.5667E+01  0.5667E+01
     -8.126  0.4021E+01  0.3312E+01  0.5928E+01  0.5882E+01
     -8.061  0.1414E+02  0.1334E+02  0.6848E+01  0.6750E+01
     -7.996  0.3283E+01  0.3819E+01  0.7061E+01  0.7001E+01
     -7.931  0.1606E+02  0.8907E+01  0.8105E+01  0.7580E+01
     -7.866  0.1317E+02  0.1825E+02  0.8963E+01  0.8767E+01
     -7.801  0.8424E+00  0.3587E+01  0.9018E+01  0.9000E+01
     -7.736  0.1031E+02  0.1015E+02  0.9688E+01  0.9660E+01
     -7.671  0.4801E+01  0.5200E+01  0.1000E+02  0.1000E+02
     -7.606  0.8093E+00  0.1384E-02  0.1005E+02  0.1000E+02
     -7.541  0.2812E+02  0.2426E+02  0.1188E+02  0.1158E+02
     -7.476  0.1349E+02  0.1259E+02  0.1276E+02  0.1240E+02
     -7.411  0.1375E+02  0.1671E+02  0.1366E+02  0.1348E+02
     -7.346  0.5260E+01  0.7887E+01  0.1400E+02  0.1400E+02
     -7.281  0.4086E+01  0.1707E+01  0.1427E+02  0.1411E+02
     -7.216  0.1896E+02  0.1910E+02  0.1550E+02  0.1535E+02
     -7.151  0.7658E+01  0.9062E+01  0.1600E+02  0.1594E+02
     -7.086  0.5077E-01  0.8938E+00  0.1600E+02  0.1600E+02
     -7.021  0.0000E+00  0.0000E+00  0.1600E+02  0.1600E+02
     -6.956  0.9569E-01  0.1223E-05  0.1601E+02  0.1600E+02
     -6.891  0.1084E+02  0.7480E+01  0.1671E+02  0.1649E+02
     -6.826  0.1979E+02  0.2112E+02  0.1800E+02  0.1786E+02
     -6.761  0.1483E+02  0.1008E+02  0.1896E+02  0.1852E+02
     -6.696  0.1090E+02  0.1755E+02  0.1967E+02  0.1966E+02
     -6.631  0.5027E+01  0.5220E+01  0.2000E+02  0.2000E+02
     -6.566  0.0000E+00  0.0000E+00  0.2000E+02  0.2000E+02
     -6.501  0.0000E+00  0.0000E+00  0.2000E+02  0.2000E+02
     -6.436  0.0000E+00  0.0000E+00  0.2000E+02  0.2000E+02
     -6.370  0.0000E+00  0.0000E+00  0.2000E+02  0.2000E+02
     -6.305  0.6638E-11  0.0000E+00  0.2000E+02  0.2000E+02
     -6.240  0.2447E+01  0.1174E+01  0.2016E+02  0.2008E+02
     -6.175  0.2663E+01  0.3949E+01  0.2033E+02  0.2033E+02
     -6.110  0.7063E+01  0.2344E+01  0.2079E+02  0.2049E+02
     -6.045  0.6242E+01  0.9847E+01  0.2120E+02  0.2113E+02
     -5.980  0.2095E+01  0.3178E+01  0.2134E+02  0.2133E+02
     -5.915  0.9434E+01  0.4303E+01  0.2195E+02  0.2161E+02
     -5.850  0.5766E+01  0.9406E+01  0.2232E+02  0.2223E+02
     -5.785  0.5373E+01  0.5685E+01  0.2267E+02  0.2259E+02
     -5.720  0.1014E+02  0.1082E+02  0.2333E+02  0.2330E+02
     -5.655  0.1006E+02  0.8681E+01  0.2399E+02  0.2386E+02
     -5.590  0.1447E+02  0.1310E+02  0.2493E+02  0.2472E+02
     -5.525  0.7875E+01  0.1001E+02  0.2544E+02  0.2537E+02
     -5.460  0.1088E+02  0.1088E+02  0.2615E+02  0.2608E+02
     -5.395  0.1557E+02  0.1376E+02  0.2716E+02  0.2697E+02
     -5.330  0.1489E+02  0.1391E+02  0.2813E+02  0.2788E+02
     -5.265  0.1186E+02  0.1290E+02  0.2890E+02  0.2872E+02
     -5.200  0.8628E+01  0.1037E+02  0.2946E+02  0.2939E+02
     -5.135  0.1028E+02  0.1086E+02  0.3013E+02  0.3010E+02
     -5.070  0.5499E+01  0.5147E+01  0.3049E+02  0.3043E+02
     -5.005  0.1997E+02  0.1309E+02  0.3179E+02  0.3129E+02
     -4.940  0.1423E+02  0.1789E+02  0.3271E+02  0.3245E+02
     -4.875  0.1251E+02  0.1344E+02  0.3353E+02  0.3332E+02
     -4.810  0.1603E+02  0.1637E+02  0.3457E+02  0.3439E+02
     -4.745  0.1778E+02  0.1730E+02  0.3573E+02  0.3552E+02
     -4.680  0.1043E+02  0.8939E+01  0.3641E+02  0.3610E+02
     -4.615  0.1411E+02  0.1644E+02  0.3732E+02  0.3717E+02
     -4.550  0.1621E+02  0.1773E+02  0.3838E+02  0.3832E+02
     -4.485  0.1994E+02  0.1748E+02  0.3968E+02  0.3946E+02
     -4.419  0.7024E+01  0.7709E+01  0.4014E+02  0.3996E+02
     -4.354  0.1320E+02  0.1332E+02  0.4099E+02  0.4083E+02
     -4.289  0.1619E+02  0.1391E+02  0.4205E+02  0.4173E+02
     -4.224  0.1381E+02  0.1359E+02  0.4295E+02  0.4262E+02
     -4.159  0.1616E+02  0.1839E+02  0.4400E+02  0.4381E+02
     -4.094  0.9991E+01  0.9783E+01  0.4465E+02  0.4445E+02
     -4.029  0.1372E+02  0.1370E+02  0.4554E+02  0.4534E+02
     -3.964  0.1038E+02  0.1198E+02  0.4622E+02  0.4612E+02
     -3.899  0.8053E+01  0.6505E+01  0.4674E+02  0.4654E+02
     -3.834  0.1301E+02  0.1377E+02  0.4759E+02  0.4744E+02
     -3.769  0.7730E+01  0.6208E+01  0.4809E+02  0.4785E+02
     -3.704  0.1647E+02  0.1485E+02  0.4916E+02  0.4881E+02
     -3.639  0.1543E+02  0.1881E+02  0.5016E+02  0.5003E+02
     -3.574  0.8973E+01  0.8637E+01  0.5075E+02  0.5060E+02
     -3.509  0.1366E+02  0.1343E+02  0.5164E+02  0.5147E+02
     -3.444  0.1605E+02  0.1605E+02  0.5268E+02  0.5251E+02
     -3.379  0.1491E+02  0.1232E+02  0.5365E+02  0.5332E+02
     -3.314  0.1078E+02  0.1548E+02  0.5435E+02  0.5432E+02
     -3.249  0.1011E+02  0.7414E+01  0.5501E+02  0.5481E+02
     -3.184  0.1420E+02  0.1117E+02  0.5593E+02  0.5553E+02
     -3.119  0.1373E+02  0.1539E+02  0.5683E+02  0.5653E+02
     -3.054  0.1315E+02  0.1534E+02  0.5768E+02  0.5753E+02
     -2.989  0.1827E+02  0.1501E+02  0.5887E+02  0.5851E+02
     -2.924  0.7321E+01  0.1066E+02  0.5935E+02  0.5920E+02
     -2.859  0.1645E+02  0.1421E+02  0.6042E+02  0.6013E+02
     -2.794  0.1794E+02  0.1858E+02  0.6159E+02  0.6133E+02
     -2.729  0.1190E+02  0.1288E+02  0.6236E+02  0.6217E+02
     -2.664  0.1639E+02  0.1541E+02  0.6343E+02  0.6317E+02
     -2.599  0.1263E+02  0.1331E+02  0.6425E+02  0.6404E+02
     -2.534  0.1257E+02  0.1263E+02  0.6507E+02  0.6486E+02
     -2.468  0.1493E+02  0.1261E+02  0.6604E+02  0.6568E+02
     -2.403  0.1624E+02  0.2039E+02  0.6709E+02  0.6701E+02
     -2.338  0.1548E+02  0.1360E+02  0.6810E+02  0.6790E+02
     -2.273  0.9244E+01  0.9595E+01  0.6870E+02  0.6852E+02
     -2.208  0.1524E+02  0.1488E+02  0.6969E+02  0.6949E+02
     -2.143  0.9183E+01  0.1148E+02  0.7029E+02  0.7024E+02
     -2.078  0.1126E+02  0.6818E+01  0.7102E+02  0.7068E+02
     -2.013  0.1597E+02  0.1769E+02  0.7206E+02  0.7183E+02
     -1.948  0.2108E+02  0.1323E+02  0.7344E+02  0.7269E+02
     -1.883  0.1240E+02  0.2080E+02  0.7424E+02  0.7404E+02
     -1.818  0.1611E+02  0.1308E+02  0.7529E+02  0.7490E+02
     -1.753  0.1251E+02  0.1368E+02  0.7610E+02  0.7578E+02
     -1.688  0.1721E+02  0.2015E+02  0.7722E+02  0.7710E+02
     -1.623  0.1149E+02  0.8605E+01  0.7797E+02  0.7766E+02
     -1.558  0.1775E+02  0.1886E+02  0.7913E+02  0.7888E+02
     -1.493  0.2024E+02  0.1706E+02  0.8044E+02  0.7999E+02
     -1.428  0.1566E+02  0.1699E+02  0.8146E+02  0.8110E+02
     -1.363  0.1518E+02  0.1737E+02  0.8245E+02  0.8223E+02
     -1.298  0.1730E+02  0.1537E+02  0.8357E+02  0.8323E+02
     -1.233  0.2010E+02  0.2318E+02  0.8488E+02  0.8474E+02
     -1.168  0.1792E+02  0.1377E+02  0.8605E+02  0.8564E+02
     -1.103  0.1203E+02  0.1345E+02  0.8683E+02  0.8651E+02
     -1.038  0.1494E+02  0.1482E+02  0.8780E+02  0.8748E+02
     -0.973  0.2027E+02  0.2076E+02  0.8912E+02  0.8883E+02
     -0.908  0.2012E+02  0.1615E+02  0.9043E+02  0.8988E+02
     -0.843  0.6964E+01  0.1323E+02  0.9088E+02  0.9074E+02
     -0.778  0.1374E+02  0.1131E+02  0.9178E+02  0.9147E+02
     -0.713  0.1804E+02  0.1720E+02  0.9295E+02  0.9259E+02
     -0.648  0.2042E+02  0.2077E+02  0.9428E+02  0.9395E+02
     -0.583  0.1068E+02  0.1218E+02  0.9498E+02  0.9474E+02
     -0.518  0.1524E+02  0.1340E+02  0.9597E+02  0.9561E+02
     -0.452  0.2215E+02  0.1797E+02  0.9741E+02  0.9678E+02
     -0.387  0.1766E+02  0.2117E+02  0.9856E+02  0.9816E+02
     -0.322  0.1299E+02  0.1584E+02  0.9941E+02  0.9919E+02
     -0.257  0.1523E+02  0.1488E+02  0.1004E+03  0.1002E+03
     -0.192  0.1243E+02  0.1278E+02  0.1012E+03  0.1010E+03
     -0.127  0.1325E+02  0.1289E+02  0.1021E+03  0.1018E+03
     -0.062  0.2301E+02  0.2069E+02  0.1036E+03  0.1032E+03
      0.003  0.2145E+02  0.2206E+02  0.1050E+03  0.1046E+03
      0.068  0.1778E+02  0.1756E+02  0.1061E+03  0.1058E+03
      0.133  0.1942E+02  0.1773E+02  0.1074E+03  0.1069E+03
      0.198  0.2265E+02  0.2421E+02  0.1089E+03  0.1085E+03
      0.263  0.1863E+02  0.1807E+02  0.1101E+03  0.1097E+03
      0.328  0.1535E+02  0.1898E+02  0.1111E+03  0.1109E+03
      0.393  0.1755E+02  0.1742E+02  0.1122E+03  0.1120E+03
      0.458  0.1559E+02  0.1460E+02  0.1132E+03  0.1130E+03
      0.523  0.2298E+02  0.2019E+02  0.1147E+03  0.1143E+03
      0.588  0.1736E+02  0.1556E+02  0.1159E+03  0.1153E+03
      0.653  0.2246E+02  0.2195E+02  0.1173E+03  0.1167E+03
      0.718  0.2138E+02  0.2656E+02  0.1187E+03  0.1185E+03
      0.783  0.1478E+02  0.1729E+02  0.1197E+03  0.1196E+03
      0.848  0.2510E+02  0.2078E+02  0.1213E+03  0.1209E+03
      0.913  0.1465E+02  0.1371E+02  0.1223E+03  0.1218E+03
      0.978  0.1796E+02  0.2118E+02  0.1234E+03  0.1232E+03
      1.043  0.2178E+02  0.1865E+02  0.1248E+03  0.1244E+03
      1.108  0.1717E+02  0.1623E+02  0.1260E+03  0.1255E+03
      1.173  0.1769E+02  0.1904E+02  0.1271E+03  0.1267E+03
      1.238  0.1516E+02  0.1658E+02  0.1281E+03  0.1278E+03
      1.303  0.2481E+02  0.2116E+02  0.1297E+03  0.1292E+03
      1.368  0.1300E+02  0.1893E+02  0.1306E+03  0.1304E+03
      1.433  0.2259E+02  0.2295E+02  0.1320E+03  0.1319E+03
      1.499  0.2058E+02  0.1615E+02  0.1334E+03  0.1330E+03
      1.564  0.2244E+02  0.2449E+02  0.1348E+03  0.1346E+03
      1.629  0.1768E+02  0.1507E+02  0.1360E+03  0.1355E+03
      1.694  0.2095E+02  0.2393E+02  0.1373E+03  0.1371E+03
      1.759  0.1945E+02  0.1609E+02  0.1386E+03  0.1381E+03
      1.824  0.2023E+02  0.2267E+02  0.1399E+03  0.1396E+03
      1.889  0.2065E+02  0.2052E+02  0.1413E+03  0.1409E+03
      1.954  0.1857E+02  0.2130E+02  0.1425E+03  0.1423E+03
      2.019  0.1384E+02  0.1282E+02  0.1434E+03  0.1432E+03
      2.084  0.2557E+02  0.2668E+02  0.1450E+03  0.1449E+03
      2.149  0.2335E+02  0.1887E+02  0.1466E+03  0.1461E+03
      2.214  0.1929E+02  0.2043E+02  0.1478E+03  0.1475E+03
      2.279  0.2266E+02  0.2187E+02  0.1493E+03  0.1489E+03
      2.344  0.2063E+02  0.2023E+02  0.1506E+03  0.1502E+03
      2.409  0.2218E+02  0.2373E+02  0.1521E+03  0.1517E+03
      2.474  0.2371E+02  0.2279E+02  0.1536E+03  0.1532E+03
      2.539  0.2061E+02  0.2197E+02  0.1550E+03  0.1547E+03
      2.604  0.2127E+02  0.2005E+02  0.1563E+03  0.1560E+03
      2.669  0.2569E+02  0.2635E+02  0.1580E+03  0.1577E+03
      2.734  0.2057E+02  0.1841E+02  0.1593E+03  0.1589E+03
      2.799  0.2605E+02  0.2841E+02  0.1610E+03  0.1607E+03
      2.864  0.1840E+02  0.2090E+02  0.1622E+03  0.1621E+03
      2.929  0.2137E+02  0.1966E+02  0.1636E+03  0.1634E+03
      2.994  0.2639E+02  0.1992E+02  0.1653E+03  0.1647E+03
      3.059  0.2019E+02  0.2673E+02  0.1667E+03  0.1664E+03
      3.124  0.2329E+02  0.2308E+02  0.1682E+03  0.1679E+03
      3.189  0.2633E+02  0.2505E+02  0.1699E+03  0.1695E+03
      3.254  0.2047E+02  0.2411E+02  0.1712E+03  0.1711E+03
      3.319  0.2516E+02  0.2309E+02  0.1729E+03  0.1726E+03
      3.384  0.1507E+02  0.1634E+02  0.1738E+03  0.1737E+03
      3.450  0.2707E+02  0.2500E+02  0.1756E+03  0.1753E+03
      3.515  0.2604E+02  0.2623E+02  0.1773E+03  0.1770E+03
      3.580  0.2374E+02  0.1935E+02  0.1788E+03  0.1783E+03
      3.645  0.2268E+02  0.2675E+02  0.1803E+03  0.1800E+03
      3.710  0.2312E+02  0.2378E+02  0.1818E+03  0.1816E+03
      3.775  0.2701E+02  0.2540E+02  0.1836E+03  0.1832E+03
      3.840  0.2173E+02  0.2394E+02  0.1850E+03  0.1848E+03
      3.905  0.2005E+02  0.1701E+02  0.1863E+03  0.1859E+03
      3.970  0.2407E+02  0.2382E+02  0.1879E+03  0.1874E+03
      4.035  0.1622E+02  0.2117E+02  0.1889E+03  0.1888E+03
      4.100  0.2960E+02  0.2611E+02  0.1908E+03  0.1905E+03
      4.165  0.1414E+02  0.1747E+02  0.1918E+03  0.1916E+03
      4.230  0.2178E+02  0.1960E+02  0.1932E+03  0.1929E+03
      4.295  0.1597E+02  0.1693E+02  0.1942E+03  0.1940E+03
      4.360  0.2252E+02  0.2032E+02  0.1957E+03  0.1953E+03
      4.425  0.2115E+02  0.2203E+02  0.1971E+03  0.1968E+03
      4.490  0.1840E+02  0.1515E+02  0.1983E+03  0.1978E+03
      4.555  0.2146E+02  0.2079E+02  0.1997E+03  0.1991E+03
      4.620  0.1885E+02  0.2132E+02  0.2009E+03  0.2005E+03
      4.685  0.2573E+02  0.2486E+02  0.2026E+03  0.2021E+03
      4.750  0.1646E+02  0.1797E+02  0.2036E+03  0.2033E+03
      4.815  0.1627E+02  0.1658E+02  0.2047E+03  0.2044E+03
      4.880  0.1912E+02  0.1759E+02  0.2059E+03  0.2055E+03
      4.945  0.2072E+02  0.2309E+02  0.2073E+03  0.2070E+03
      5.010  0.2107E+02  0.2180E+02  0.2087E+03  0.2084E+03
      5.075  0.2194E+02  0.2039E+02  0.2101E+03  0.2098E+03
      5.140  0.1471E+02  0.1779E+02  0.2110E+03  0.2109E+03
      5.205  0.1826E+02  0.1613E+02  0.2122E+03  0.2120E+03
      5.270  0.2355E+02  0.1971E+02  0.2138E+03  0.2132E+03
      5.335  0.1612E+02  0.1649E+02  0.2148E+03  0.2143E+03
      5.400  0.2348E+02  0.2430E+02  0.2163E+03  0.2159E+03
      5.466  0.1540E+02  0.1801E+02  0.2173E+03  0.2171E+03
      5.531  0.2252E+02  0.1760E+02  0.2188E+03  0.2182E+03
      5.596  0.2571E+02  0.2348E+02  0.2205E+03  0.2197E+03
      5.661  0.1843E+02  0.2248E+02  0.2217E+03  0.2212E+03
      5.726  0.1945E+02  0.2223E+02  0.2230E+03  0.2226E+03
      5.791  0.1760E+02  0.1909E+02  0.2241E+03  0.2239E+03
      5.856  0.1906E+02  0.1655E+02  0.2253E+03  0.2250E+03
      5.921  0.1889E+02  0.1741E+02  0.2266E+03  0.2261E+03
      5.986  0.2478E+02  0.2560E+02  0.2282E+03  0.2278E+03
      6.051  0.2396E+02  0.1797E+02  0.2297E+03  0.2289E+03
      6.116  0.2297E+02  0.2394E+02  0.2312E+03  0.2305E+03
      6.181  0.1698E+02  0.2096E+02  0.2323E+03  0.2319E+03
      6.246  0.2284E+02  0.2250E+02  0.2338E+03  0.2333E+03
      6.311  0.1995E+02  0.1573E+02  0.2351E+03  0.2343E+03
      6.376  0.2290E+02  0.2450E+02  0.2366E+03  0.2359E+03
      6.441  0.1639E+02  0.2233E+02  0.2377E+03  0.2374E+03
      6.506  0.2120E+02  0.1914E+02  0.2391E+03  0.2386E+03
      6.571  0.2620E+02  0.2322E+02  0.2408E+03  0.2402E+03
      6.636  0.2675E+02  0.2837E+02  0.2425E+03  0.2420E+03
      6.701  0.1949E+02  0.2067E+02  0.2438E+03  0.2433E+03
      6.766  0.2545E+02  0.2251E+02  0.2454E+03  0.2448E+03
      6.831  0.2014E+02  0.2204E+02  0.2467E+03  0.2462E+03
      6.896  0.2352E+02  0.2186E+02  0.2483E+03  0.2477E+03
      6.961  0.2937E+02  0.2736E+02  0.2502E+03  0.2495E+03
      7.026  0.2371E+02  0.2801E+02  0.2517E+03  0.2513E+03
      7.091  0.2467E+02  0.2563E+02  0.2533E+03  0.2529E+03
      7.156  0.2477E+02  0.2101E+02  0.2549E+03  0.2543E+03
      7.221  0.2901E+02  0.2980E+02  0.2568E+03  0.2562E+03
      7.286  0.2158E+02  0.2367E+02  0.2582E+03  0.2578E+03
      7.351  0.2607E+02  0.2741E+02  0.2599E+03  0.2596E+03
      7.417  0.2489E+02  0.1522E+02  0.2615E+03  0.2606E+03
      7.482  0.3195E+02  0.3573E+02  0.2636E+03  0.2629E+03
      7.547  0.2948E+02  0.2798E+02  0.2655E+03  0.2647E+03
      7.612  0.2117E+02  0.2817E+02  0.2669E+03  0.2665E+03
      7.677  0.2633E+02  0.2251E+02  0.2686E+03  0.2680E+03
      7.742  0.2579E+02  0.2771E+02  0.2703E+03  0.2698E+03
      7.807  0.2681E+02  0.2835E+02  0.2721E+03  0.2717E+03
      7.872  0.2205E+02  0.2139E+02  0.2735E+03  0.2730E+03
      7.937  0.2380E+02  0.2385E+02  0.2750E+03  0.2746E+03
      8.002  0.2633E+02  0.2484E+02  0.2768E+03  0.2762E+03
      8.067  0.2873E+02  0.2787E+02  0.2786E+03  0.2780E+03
      8.132  0.2518E+02  0.2858E+02  0.2803E+03  0.2799E+03
      8.197  0.2469E+02  0.2438E+02  0.2819E+03  0.2815E+03
      8.262  0.3020E+02  0.2690E+02  0.2838E+03  0.2832E+03
      8.327  0.2311E+02  0.2698E+02  0.2853E+03  0.2850E+03
      8.392  0.2526E+02  0.2312E+02  0.2870E+03  0.2865E+03
      8.457  0.1383E+02  0.1798E+02  0.2879E+03  0.2877E+03
      8.522  0.1826E+01  0.5313E+01  0.2880E+03  0.2880E+03
      8.587  0.0000E+00  0.0000E+00  0.2880E+03  0.2880E+03
      8.652  0.0000E+00  0.0000E+00  0.2880E+03  0.2880E+03
      8.717  0.0000E+00  0.0000E+00  0.2880E+03  0.2880E+03
      8.782  0.0000E+00  0.0000E+00  0.2880E+03  0.2880E+03
      8.847  0.0000E+00  0.0000E+00  0.2880E+03  0.2880E+03
      8.912  0.0000E+00  0.0000E+00  0.2880E+03  0.2880E+03
      8.977  0.0000E+00  0.0000E+00  0.2880E+03  0.2880E+03
      9.042  0.0000E+00  0.0000E+00  0.2880E+03  0.2880E+03
      9.107  0.0000E+00  0.0000E+00  0.2880E+03  0.2880E+03
      9.172  0.0000E+00  0.0000E+00  0.2880E+03  0.2880E+03
      9.237  0.0000E+00  0.0000E+00  0.2880E+03  0.2880E+03
      9.302  0.0000E+00  0.0000E+00  0.2880E+03  0.2880E+03
      9.368  0.0000E+00  0.0000E+00  0.2880E+03  0.2880E+03
