   8   8   0   0
  0.5687412E+01  0.3570000E-09  0.3570000E-09  0.3570000E-09  0.5000000E-15
   1.0000000000000000E-004
  CAR 
 Si and Ge interface calculation         
     21.42152677    -13.50401967  301      8.07608750      1.00000000
    -13.504  0.0000E+00  0.0000E+00  0.0000E+00  0.0000E+00
    -13.388  0.0000E+00  0.0000E+00  0.0000E+00  0.0000E+00
    -13.271  0.0000E+00  0.0000E+00  0.0000E+00  0.0000E+00
    -13.155  0.0000E+00  0.0000E+00  0.0000E+00  0.0000E+00
    -13.038  0.0000E+00  0.0000E+00  0.0000E+00  0.0000E+00
    -12.922  0.0000E+00  0.0000E+00  0.0000E+00  0.0000E+00
    -12.806  0.0000E+00  0.0000E+00  0.0000E+00  0.0000E+00
    -12.689  0.0000E+00  0.0000E+00  0.0000E+00  0.0000E+00
    -12.573  0.0000E+00  0.0000E+00  0.0000E+00  0.0000E+00
    -12.456  0.0000E+00  0.0000E+00  0.0000E+00  0.0000E+00
    -12.340  0.0000E+00  0.0000E+00  0.0000E+00  0.0000E+00
    -12.223  0.0000E+00  0.0000E+00  0.0000E+00  0.0000E+00
    -12.107  0.0000E+00  0.0000E+00  0.0000E+00  0.0000E+00
    -11.991  0.0000E+00  0.0000E+00  0.0000E+00  0.0000E+00
    -11.874  0.2357E-01  0.0000E+00  0.2743E-02  0.0000E+00
    -11.758  0.1414E+00  0.1308E-16  0.1920E-01  0.1523E-17
    -11.641  0.2828E+00  0.2357E-01  0.5213E-01  0.2743E-02
    -11.525  0.1885E+00  0.1414E+00  0.7407E-01  0.1920E-01
    -11.408  0.1414E+00  0.2828E+00  0.9053E-01  0.5213E-01
    -11.292  0.5656E+00  0.1885E+00  0.1564E+00  0.7407E-01
    -11.176  0.5656E+00  0.1414E+00  0.2222E+00  0.9053E-01
    -11.059  0.1373E-11  0.5656E+00  0.2222E+00  0.1564E+00
    -10.943  0.2828E+00  0.5656E+00  0.2551E+00  0.2222E+00
    -10.826  0.7070E+00  0.1922E-05  0.3374E+00  0.2222E+00
    -10.710  0.5656E+00  0.5047E-04  0.4033E+00  0.2551E+00
    -10.594  0.9709E-06  0.2669E-03  0.4691E+00  0.3375E+00
    -10.477  0.3152E-04  0.2008E-02  0.4911E+00  0.4035E+00
    -10.361  0.8874E-03  0.4793E-02  0.5570E+00  0.4697E+00
    -10.244  0.0000E+00  0.4501E-01  0.6886E+00  0.4963E+00
    -10.128  0.2228E-02  0.2717E+00  0.6889E+00  0.5886E+00
    -10.011  0.1532E+00  0.0000E+00  0.7229E+00  0.6886E+00
     -9.895  0.2797E+00  0.8741E-01  0.8693E+00  0.6988E+00
     -9.779  0.4180E+00  0.1019E+01  0.9842E+00  0.8236E+00
     -9.662  0.4934E+00  0.8283E+00  0.1059E+01  0.9332E+00
     -9.546  0.1110E+01  0.5650E+00  0.1196E+01  0.1001E+01
     -9.429  0.5654E+00  0.5655E+00  0.1265E+01  0.1067E+01
     -9.313  0.0000E+00  0.1131E+01  0.1265E+01  0.1199E+01
     -9.197  0.5656E+00  0.5656E+00  0.1331E+01  0.1265E+01
     -9.080  0.7070E+00  0.0000E+00  0.1413E+01  0.1265E+01
     -8.964  0.1697E+01  0.5656E+00  0.1610E+01  0.1331E+01
     -8.847  0.7541E+00  0.7070E+00  0.1698E+01  0.1413E+01
     -8.731  0.1996E-07  0.1697E+01  0.1698E+01  0.1610E+01
     -8.614  0.1697E+01  0.5656E+00  0.1896E+01  0.1698E+01
     -8.498  0.1131E+01  0.1251E-02  0.2027E+01  0.1698E+01
     -8.382  0.1994E-02  0.3178E-03  0.2028E+01  0.1896E+01
     -8.265  0.1526E+00  0.0000E+00  0.2078E+01  0.2027E+01
     -8.149  0.7171E+00  0.1408E+00  0.2276E+01  0.2044E+01
     -8.032  0.9940E+00  0.9955E+00  0.2439E+01  0.2176E+01
     -7.916  0.5875E+00  0.1114E+01  0.2524E+01  0.2322E+01
     -7.800  0.4023E+00  0.1131E+01  0.2585E+01  0.2455E+01
     -7.683  0.1689E+01  0.6959E+00  0.2800E+01  0.2536E+01
     -7.567  0.0000E+00  0.5648E+00  0.2801E+01  0.2603E+01
     -7.450  0.8524E+00  0.1697E+01  0.2900E+01  0.2801E+01
     -7.334  0.1698E+01  0.0000E+00  0.3130E+01  0.2801E+01
     -7.217  0.5640E+00  0.1128E+01  0.3328E+01  0.2932E+01
     -7.101  0.9977E-02  0.1435E+01  0.3329E+01  0.3166E+01
     -6.985  0.1207E+01  0.5656E+00  0.3534E+01  0.3328E+01
     -6.868  0.1087E+01  0.3570E+00  0.3718E+01  0.3369E+01
     -6.752  0.1885E+00  0.1645E+01  0.3745E+01  0.3585E+01
     -6.635  0.3786E-05  0.1131E+01  0.3745E+01  0.3723E+01
     -6.519  0.2799E-01  0.1885E+00  0.4011E+01  0.3745E+01
     -6.402  0.1056E+01  0.3317E-01  0.4181E+01  0.3749E+01
     -6.286  0.7091E+00  0.1858E+00  0.4272E+01  0.4030E+01
     -6.170  0.2821E+01  0.1131E+01  0.4649E+01  0.4189E+01
     -6.053  0.5656E+00  0.1110E+01  0.4716E+01  0.4319E+01
     -5.937  0.1697E+01  0.2828E+01  0.5045E+01  0.4650E+01
     -5.820  0.3634E-05  0.8787E-01  0.5045E+01  0.4726E+01
     -5.704  0.5656E+00  0.1697E+01  0.5243E+01  0.5045E+01
     -5.588  0.5667E+00  0.2582E-01  0.5309E+01  0.5048E+01
     -5.471  0.1662E-05  0.5656E+00  0.5440E+01  0.5243E+01
     -5.355  0.3255E+01  0.8536E+00  0.5885E+01  0.5342E+01
     -5.238  0.2684E-13  0.1088E-01  0.5901E+01  0.5442E+01
     -5.122  0.5656E+00  0.3393E+01  0.5967E+01  0.5901E+01
     -5.005  0.5939E+00  0.2058E-06  0.6036E+01  0.5901E+01
     -4.889  0.1414E+00  0.0000E+00  0.6313E+01  0.5967E+01
     -4.773  0.1861E+00  0.1823E+01  0.6400E+01  0.6179E+01
     -4.656  0.8209E-04  0.1469E+00  0.6444E+01  0.6313E+01
     -4.540  0.5786E+00  0.5511E+00  0.6578E+01  0.6443E+01
     -4.423  0.9569E+00  0.7227E-01  0.6852E+01  0.6453E+01
     -4.307  0.1101E+01  0.1306E+01  0.7001E+01  0.6662E+01
     -4.191  0.1349E+01  0.1131E+01  0.7161E+01  0.6872E+01
     -4.074  0.0000E+00  0.1131E+01  0.7333E+01  0.7004E+01
     -3.958  0.0000E+00  0.1815E+01  0.7333E+01  0.7215E+01
     -3.841  0.4988E+00  0.0000E+00  0.7391E+01  0.7333E+01
     -3.725  0.2153E-02  0.0000E+00  0.7465E+01  0.7333E+01
     -3.608  0.1131E+01  0.1119E+01  0.7663E+01  0.7464E+01
     -3.492  0.9607E-14  0.2310E+00  0.7663E+01  0.7492E+01
     -3.376  0.5656E+00  0.5656E+00  0.7728E+01  0.7663E+01
     -3.259  0.8452E+00  0.3011E-07  0.7827E+01  0.7663E+01
     -3.143  0.8461E+00  0.5656E+00  0.8074E+01  0.7728E+01
     -3.026  0.1502E+01  0.1297E+01  0.8249E+01  0.7879E+01
     -2.910  0.5656E+00  0.8484E+00  0.8326E+01  0.8074E+01
     -2.794  0.2262E+01  0.1036E+01  0.8590E+01  0.8261E+01
     -2.677  0.1639E+01  0.5656E+00  0.8781E+01  0.8326E+01
     -2.561  0.0000E+00  0.2263E+01  0.8787E+01  0.8590E+01
     -2.444  0.2595E+01  0.1131E+01  0.9090E+01  0.8787E+01
     -2.328  0.5656E+00  0.6557E-09  0.9215E+01  0.8787E+01
     -2.211  0.1131E+01  0.2862E+01  0.9347E+01  0.9121E+01
     -2.095  0.5656E+00  0.5656E+00  0.9413E+01  0.9215E+01
     -1.979  0.2828E+01  0.1131E+01  0.9742E+01  0.9347E+01
     -1.862  0.5656E+00  0.4391E-11  0.9874E+01  0.9413E+01
     -1.746  0.1149E+01  0.2839E+01  0.1021E+02  0.9743E+01
     -1.629  0.1615E+01  0.6256E+00  0.1052E+02  0.9881E+01
     -1.513  0.1240E+01  0.6451E+00  0.1068E+02  0.1028E+02
     -1.396  0.4214E+00  0.1697E+01  0.1091E+02  0.1053E+02
     -1.280  0.2261E+01  0.2496E+01  0.1150E+02  0.1082E+02
     -1.164  0.6279E-16  0.7516E+00  0.1150E+02  0.1095E+02
     -1.047  0.5656E+00  0.2262E+01  0.1157E+02  0.1150E+02
     -0.931  0.1629E+01  0.1169E-08  0.1176E+02  0.1150E+02
     -0.814  0.6012E-13  0.5656E+00  0.1183E+02  0.1157E+02
     -0.698  0.2828E+01  0.1719E+01  0.1216E+02  0.1177E+02
     -0.582  0.1131E+01  0.2449E-06  0.1229E+02  0.1183E+02
     -0.465  0.0000E+00  0.1697E+01  0.1229E+02  0.1216E+02
     -0.349  0.0000E+00  0.1131E+01  0.1229E+02  0.1229E+02
     -0.232  0.1135E+01  0.0000E+00  0.1243E+02  0.1229E+02
     -0.116  0.5655E+00  0.0000E+00  0.1256E+02  0.1229E+02
      0.001  0.2546E+01  0.1388E+01  0.1285E+02  0.1246E+02
      0.117  0.1784E-04  0.5674E+00  0.1292E+02  0.1256E+02
      0.233  0.4768E+00  0.1667E+01  0.1304E+02  0.1288E+02
      0.350  0.1782E+01  0.2673E-01  0.1331E+02  0.1292E+02
      0.466  0.6859E+00  0.2742E+00  0.1345E+02  0.1307E+02
      0.583  0.7147E+00  0.2207E+01  0.1357E+02  0.1336E+02
      0.699  0.1058E+01  0.7762E+00  0.1380E+02  0.1346E+02
      0.815  0.1191E+01  0.1116E+01  0.1395E+02  0.1361E+02
      0.932  0.1683E+01  0.1131E+01  0.1427E+02  0.1381E+02
      1.048  0.1697E+01  0.8473E+00  0.1467E+02  0.1404E+02
      1.165  0.1143E+01  0.2126E+01  0.1480E+02  0.1432E+02
      1.281  0.1825E+01  0.1697E+01  0.1505E+02  0.1467E+02
      1.398  0.1132E+01  0.2038E+00  0.1523E+02  0.1482E+02
      1.514  0.4549E-05  0.2256E+01  0.1529E+02  0.1510E+02
      1.630  0.2262E+01  0.7203E+00  0.1562E+02  0.1525E+02
      1.747  0.4200E+01  0.1414E-01  0.1611E+02  0.1530E+02
      1.863  0.1131E+01  0.2262E+01  0.1645E+02  0.1562E+02
      1.980  0.5645E+00  0.5162E+01  0.1651E+02  0.1623E+02
      2.096  0.1131E+01  0.1131E+01  0.1664E+02  0.1645E+02
      2.212  0.9164E+00  0.5656E+00  0.1682E+02  0.1651E+02
      2.329  0.1201E+01  0.1148E+01  0.1701E+02  0.1665E+02
      2.445  0.3407E+01  0.1373E+01  0.1755E+02  0.1687E+02
      2.562  0.5656E+00  0.1566E+01  0.1775E+02  0.1706E+02
      2.678  0.2337E+01  0.1725E+01  0.1802E+02  0.1762E+02
      2.795  0.1940E+01  0.0000E+00  0.1837E+02  0.1775E+02
      2.911  0.2846E+01  0.2796E+01  0.1877E+02  0.1807E+02
      3.027  0.2077E+01  0.2537E+01  0.1908E+02  0.1844E+02
      3.144  0.3535E+01  0.2090E+01  0.1951E+02  0.1881E+02
      3.260  0.1414E+00  0.1699E+01  0.1957E+02  0.1910E+02
      3.377  0.3443E+01  0.3392E+01  0.1998E+02  0.1956E+02
      3.493  0.1374E+01  0.1414E+00  0.2016E+02  0.1957E+02
      3.609  0.2751E+01  0.3677E+01  0.2055E+02  0.2000E+02
      3.726  0.1559E+01  0.1169E+01  0.2074E+02  0.2017E+02
      3.842  0.2047E+01  0.1131E+01  0.2129E+02  0.2056E+02
      3.959  0.3332E+01  0.2871E+01  0.2209E+02  0.2090E+02
      4.075  0.1102E+01  0.4006E+01  0.2252E+02  0.2152E+02
      4.192  0.7345E+00  0.3911E+01  0.2268E+02  0.2222E+02
      4.308  0.5656E+00  0.1631E+01  0.2284E+02  0.2258E+02
      4.424  0.1131E+01  0.1435E+01  0.2297E+02  0.2276E+02
      4.541  0.2037E+01  0.5656E+00  0.2341E+02  0.2284E+02
      4.657  0.1697E+01  0.1287E+01  0.2383E+02  0.2299E+02
      4.774  0.3034E+01  0.3142E+01  0.2418E+02  0.2353E+02
      4.890  0.1414E+01  0.1697E+01  0.2455E+02  0.2383E+02
      5.007  0.1414E+01  0.3380E+01  0.2478E+02  0.2425E+02
      5.123  0.4260E+01  0.1565E+01  0.2528E+02  0.2457E+02
      5.239  0.1697E+01  0.8484E+00  0.2570E+02  0.2478E+02
      5.356  0.1697E+01  0.4649E+01  0.2597E+02  0.2532E+02
      5.472  0.1131E+01  0.2276E-01  0.2616E+02  0.2571E+02
      5.589  0.2828E+01  0.1828E+01  0.2656E+02  0.2598E+02
      5.705  0.5678E+00  0.7739E-01  0.2663E+02  0.2617E+02
      5.821  0.3944E+01  0.2262E+01  0.2715E+02  0.2656E+02
      5.938  0.1491E+01  0.8004E+00  0.2734E+02  0.2665E+02
      6.054  0.1340E+01  0.1837E+01  0.2765E+02  0.2717E+02
      6.171  0.3671E+01  0.1944E+01  0.2812E+02  0.2743E+02
      6.287  0.2135E+01  0.1126E+01  0.2837E+02  0.2769E+02
      6.404  0.1954E+01  0.2828E+01  0.2875E+02  0.2812E+02
      6.520  0.9106E-03  0.2384E+01  0.2891E+02  0.2840E+02
      6.636  0.2013E+01  0.1335E+01  0.2935E+02  0.2881E+02
      6.753  0.6916E+00  0.3295E+00  0.2945E+02  0.2895E+02
      6.869  0.3768E+00  0.2258E+01  0.2956E+02  0.2937E+02
      6.986  0.1422E+01  0.1023E+01  0.2975E+02  0.2949E+02
      7.102  0.1980E+01  0.5631E+00  0.3011E+02  0.2958E+02
      7.218  0.1513E+01  0.6733E+00  0.3042E+02  0.2979E+02
      7.335  0.1131E+01  0.2135E+01  0.3063E+02  0.3013E+02
      7.451  0.2396E-10  0.1210E+01  0.3070E+02  0.3045E+02
      7.568  0.7541E+00  0.1144E+01  0.3078E+02  0.3063E+02
      7.684  0.1110E+01  0.1044E-04  0.3091E+02  0.3070E+02
      7.801  0.5656E+00  0.0000E+00  0.3098E+02  0.3078E+02
      7.917  0.1130E+01  0.1131E+01  0.3111E+02  0.3092E+02
      8.033  0.9451E+00  0.5656E+00  0.3122E+02  0.3098E+02
      8.150  0.1414E+01  0.1131E+01  0.3149E+02  0.3111E+02
      8.266  0.7163E-02  0.1243E+01  0.3149E+02  0.3126E+02
      8.383  0.2828E+00  0.1414E+01  0.3159E+02  0.3149E+02
      8.499  0.1414E+00  0.2766E+00  0.3160E+02  0.3152E+02
      8.615  0.3718E-01  0.2828E+00  0.3161E+02  0.3159E+02
      8.732  0.5564E+00  0.0000E+00  0.3177E+02  0.3160E+02
      8.848  0.2701E-04  0.3525E+00  0.3177E+02  0.3164E+02
      8.965  0.6290E+00  0.5656E+00  0.3191E+02  0.3177E+02
      9.081  0.2828E+00  0.2403E-01  0.3194E+02  0.3177E+02
      9.198  0.1270E-01  0.3770E+00  0.3194E+02  0.3191E+02
      9.314  0.2399E-05  0.2828E+00  0.3196E+02  0.3194E+02
      9.430  0.3375E-15  0.1122E+00  0.3199E+02  0.3196E+02
      9.547  0.7070E-01  0.4990E-02  0.3200E+02  0.3196E+02
      9.663  0.0000E+00  0.1089E-08  0.3200E+02  0.3199E+02
      9.780  0.0000E+00  0.7070E-01  0.3200E+02  0.3200E+02
      9.896  0.0000E+00  0.0000E+00  0.3200E+02  0.3200E+02
     10.013  0.0000E+00  0.0000E+00  0.3200E+02  0.3200E+02
     10.129  0.0000E+00  0.0000E+00  0.3200E+02  0.3200E+02
     10.245  0.0000E+00  0.0000E+00  0.3200E+02  0.3200E+02
     10.362  0.0000E+00  0.0000E+00  0.3200E+02  0.3200E+02
     10.478  0.0000E+00  0.0000E+00  0.3200E+02  0.3200E+02
     10.595  0.0000E+00  0.0000E+00  0.3200E+02  0.3200E+02
     10.711  0.0000E+00  0.0000E+00  0.3200E+02  0.3200E+02
     10.827  0.0000E+00  0.0000E+00  0.3200E+02  0.3200E+02
     10.944  0.0000E+00  0.0000E+00  0.3200E+02  0.3200E+02
     11.060  0.0000E+00  0.0000E+00  0.3200E+02  0.3200E+02
     11.177  0.0000E+00  0.0000E+00  0.3200E+02  0.3200E+02
     11.293  0.0000E+00  0.0000E+00  0.3200E+02  0.3200E+02
     11.410  0.0000E+00  0.0000E+00  0.3200E+02  0.3200E+02
     11.526  0.0000E+00  0.0000E+00  0.3200E+02  0.3200E+02
     11.642  0.0000E+00  0.0000E+00  0.3200E+02  0.3200E+02
     11.759  0.0000E+00  0.0000E+00  0.3200E+02  0.3200E+02
     11.875  0.0000E+00  0.0000E+00  0.3200E+02  0.3200E+02
     11.992  0.0000E+00  0.0000E+00  0.3200E+02  0.3200E+02
     12.108  0.0000E+00  0.0000E+00  0.3200E+02  0.3200E+02
     12.224  0.0000E+00  0.0000E+00  0.3200E+02  0.3200E+02
     12.341  0.0000E+00  0.0000E+00  0.3200E+02  0.3200E+02
     12.457  0.0000E+00  0.0000E+00  0.3200E+02  0.3200E+02
     12.574  0.0000E+00  0.0000E+00  0.3200E+02  0.3200E+02
     12.690  0.0000E+00  0.0000E+00  0.3200E+02  0.3200E+02
     12.807  0.0000E+00  0.0000E+00  0.3200E+02  0.3200E+02
     12.923  0.0000E+00  0.0000E+00  0.3200E+02  0.3200E+02
     13.039  0.0000E+00  0.0000E+00  0.3200E+02  0.3200E+02
     13.156  0.0000E+00  0.0000E+00  0.3200E+02  0.3200E+02
     13.272  0.0000E+00  0.0000E+00  0.3200E+02  0.3200E+02
     13.389  0.0000E+00  0.0000E+00  0.3200E+02  0.3200E+02
     13.505  0.0000E+00  0.0000E+00  0.3200E+02  0.3200E+02
     13.621  0.5855E-08  0.0000E+00  0.3200E+02  0.3200E+02
     13.738  0.2828E+00  0.0000E+00  0.3203E+02  0.3200E+02
     13.854  0.2334E+00  0.2803E-08  0.3206E+02  0.3200E+02
     13.971  0.0000E+00  0.2828E+00  0.3207E+02  0.3203E+02
     14.087  0.8801E-02  0.2169E+00  0.3207E+02  0.3206E+02
     14.204  0.1131E+01  0.0000E+00  0.3221E+02  0.3207E+02
     14.320  0.7582E+00  0.2386E-01  0.3230E+02  0.3207E+02
     14.436  0.1233E+01  0.1131E+01  0.3250E+02  0.3221E+02
     14.553  0.5355E-04  0.7373E+00  0.3260E+02  0.3230E+02
     14.669  0.5583E+00  0.1267E+01  0.3273E+02  0.3250E+02
     14.786  0.5656E+00  0.5638E-03  0.3280E+02  0.3260E+02
     14.902  0.2254E+00  0.5631E+00  0.3283E+02  0.3273E+02
     15.019  0.8462E+00  0.5656E+00  0.3297E+02  0.3280E+02
     15.135  0.2256E+01  0.4314E+00  0.3323E+02  0.3285E+02
     15.251  0.1697E+01  0.8442E+00  0.3343E+02  0.3297E+02
     15.368  0.3237E+00  0.2252E+01  0.3360E+02  0.3323E+02
     15.484  0.1131E+01  0.1697E+01  0.3385E+02  0.3343E+02
     15.601  0.1536E+01  0.3459E+00  0.3403E+02  0.3360E+02
     15.717  0.0000E+00  0.1131E+01  0.3425E+02  0.3385E+02
     15.833  0.1320E+01  0.1606E+01  0.3440E+02  0.3404E+02
     15.950  0.1376E+01  0.0000E+00  0.3473E+02  0.3425E+02
     16.066  0.1414E+01  0.1320E+01  0.3496E+02  0.3440E+02
     16.183  0.1653E-04  0.1394E+01  0.3509E+02  0.3473E+02
     16.299  0.1670E+01  0.1414E+01  0.3535E+02  0.3496E+02
     16.416  0.5624E+00  0.3877E-04  0.3542E+02  0.3509E+02
     16.532  0.1696E+01  0.1696E+01  0.3575E+02  0.3536E+02
     16.648  0.1662E+01  0.5654E+00  0.3595E+02  0.3542E+02
     16.765  0.9087E+00  0.1696E+01  0.3606E+02  0.3575E+02
     16.881  0.3390E+01  0.1664E+01  0.3648E+02  0.3595E+02
     16.998  0.4782E+00  0.1092E+01  0.3657E+02  0.3608E+02
     17.114  0.2906E+01  0.3393E+01  0.3694E+02  0.3648E+02
     17.230  0.2649E+01  0.5124E+00  0.3727E+02  0.3657E+02
     17.347  0.2993E+01  0.3046E+01  0.3779E+02  0.3695E+02
     17.463  0.1058E+01  0.2748E+01  0.3822E+02  0.3728E+02
     17.580  0.5656E+00  0.2661E+01  0.3836E+02  0.3781E+02
     17.696  0.1131E+01  0.1345E+01  0.3849E+02  0.3825E+02
     17.813  0.2498E+01  0.5656E+00  0.3893E+02  0.3836E+02
     17.929  0.8484E+00  0.1150E+01  0.3916E+02  0.3849E+02
     18.045  0.1143E+01  0.2710E+01  0.3931E+02  0.3895E+02
     18.162  0.1504E+00  0.5785E+00  0.3946E+02  0.3916E+02
     18.278  0.2826E+01  0.1155E+01  0.3984E+02  0.3931E+02
     18.395  0.0000E+00  0.2802E+00  0.3984E+02  0.3947E+02
     18.511  0.0000E+00  0.2825E+01  0.3984E+02  0.3984E+02
     18.627  0.0000E+00  0.0000E+00  0.3984E+02  0.3984E+02
     18.744  0.0000E+00  0.0000E+00  0.3984E+02  0.3984E+02
     18.860  0.3807E-01  0.0000E+00  0.3984E+02  0.3984E+02
     18.977  0.5490E+00  0.0000E+00  0.3992E+02  0.3984E+02
     19.093  0.0000E+00  0.1163E-01  0.3992E+02  0.3984E+02
     19.210  0.3775E+00  0.5656E+00  0.3996E+02  0.3992E+02
     19.326  0.0000E+00  0.0000E+00  0.3998E+02  0.3992E+02
     19.442  0.0000E+00  0.1762E+00  0.3998E+02  0.3994E+02
     19.559  0.3438E-08  0.0000E+00  0.3998E+02  0.3998E+02
     19.675  0.1414E+00  0.0000E+00  0.4000E+02  0.3998E+02
     19.792  0.0000E+00  0.1512E-09  0.4000E+02  0.3998E+02
     19.908  0.0000E+00  0.1414E+00  0.4000E+02  0.4000E+02
     20.025  0.0000E+00  0.0000E+00  0.4000E+02  0.4000E+02
     20.141  0.0000E+00  0.0000E+00  0.4000E+02  0.4000E+02
     20.257  0.0000E+00  0.0000E+00  0.4000E+02  0.4000E+02
     20.374  0.0000E+00  0.0000E+00  0.4000E+02  0.4000E+02
     20.490  0.0000E+00  0.0000E+00  0.4000E+02  0.4000E+02
     20.607  0.0000E+00  0.0000E+00  0.4000E+02  0.4000E+02
     20.723  0.0000E+00  0.0000E+00  0.4000E+02  0.4000E+02
     20.839  0.0000E+00  0.0000E+00  0.4000E+02  0.4000E+02
     20.956  0.0000E+00  0.0000E+00  0.4000E+02  0.4000E+02
     21.072  0.0000E+00  0.0000E+00  0.4000E+02  0.4000E+02
     21.189  0.0000E+00  0.0000E+00  0.4000E+02  0.4000E+02
     21.305  0.0000E+00  0.0000E+00  0.4000E+02  0.4000E+02
     21.422  0.0000E+00  0.0000E+00  0.4000E+02  0.4000E+02
