Si and Ge interface calculation         
           1
     3.570000    0.000000    0.000000
     0.000000    3.570000    0.000000
     0.000000    0.000000    3.570000
   C 
     8
Direct configuration=     1
   0.00000000  0.00000000  0.00000000
   0.25000000  0.25000000  0.25000000
   0.00000000  0.50000000  0.50000000
   0.25000000  0.75000000  0.75000000
   0.50000000  0.00000000  0.50000000
   0.75000000  0.25000000  0.75000000
   0.50000000  0.50000000  0.00000000
   0.75000000  0.75000000  0.25000000
