 120 120   0   0
  0.2190039E+02  0.7680595E-09  0.1629300E-08  0.2100086E-08  0.5000000E-15
  1.000000000000000E-004
  CAR 
 Si and Ge interface calculation         
      7.79174753     -8.59562756  301      4.75821954      1.00000000
     -8.596  0.0000E+00  0.0000E+00  0.0000E+00  0.0000E+00
     -8.541  0.0000E+00  0.0000E+00  0.0000E+00  0.0000E+00
     -8.486  0.0000E+00  0.0000E+00  0.0000E+00  0.0000E+00
     -8.432  0.0000E+00  0.0000E+00  0.0000E+00  0.0000E+00
     -8.377  0.0000E+00  0.0000E+00  0.0000E+00  0.0000E+00
     -8.323  0.0000E+00  0.0000E+00  0.0000E+00  0.0000E+00
     -8.268  0.0000E+00  0.0000E+00  0.0000E+00  0.0000E+00
     -8.213  0.0000E+00  0.0000E+00  0.0000E+00  0.0000E+00
     -8.159  0.0000E+00  0.0000E+00  0.0000E+00  0.0000E+00
     -8.104  0.0000E+00  0.0000E+00  0.0000E+00  0.0000E+00
     -8.049  0.0000E+00  0.0000E+00  0.0000E+00  0.0000E+00
     -7.995  0.0000E+00  0.0000E+00  0.0000E+00  0.0000E+00
     -7.940  0.0000E+00  0.0000E+00  0.0000E+00  0.0000E+00
     -7.886  0.2022E-05  0.1494E-07  0.1104E-06  0.8159E-09
     -7.831  0.4565E+01  0.4452E+01  0.2494E+00  0.2432E+00
     -7.776  0.1172E-01  0.1248E+00  0.2500E+00  0.2500E+00
     -7.722  0.1038E+02  0.9350E+01  0.8170E+00  0.7607E+00
     -7.667  0.7926E+01  0.8957E+01  0.1250E+01  0.1250E+01
     -7.612  0.8463E+01  0.3070E+01  0.1712E+01  0.1418E+01
     -7.558  0.9845E+01  0.1524E+02  0.2250E+01  0.2250E+01
     -7.503  0.9149E+01  0.9138E+01  0.2750E+01  0.2749E+01
     -7.449  0.2943E-02  0.1526E-01  0.2750E+01  0.2750E+01
     -7.394  0.2503E+02  0.2067E+02  0.4117E+01  0.3879E+01
     -7.339  0.8992E+01  0.1209E+02  0.4609E+01  0.4540E+01
     -7.285  0.2601E+02  0.1725E+02  0.6029E+01  0.5482E+01
     -7.230  0.3111E+02  0.4007E+02  0.7729E+01  0.7671E+01
     -7.175  0.5134E+01  0.6026E+01  0.8009E+01  0.8000E+01
     -7.121  0.3226E+02  0.3206E+02  0.9771E+01  0.9751E+01
     -7.066  0.1341E+02  0.1370E+02  0.1050E+02  0.1050E+02
     -7.012  0.1899E+02  0.1493E+02  0.1154E+02  0.1132E+02
     -6.957  0.2854E+02  0.3057E+02  0.1310E+02  0.1299E+02
     -6.902  0.2588E+02  0.2293E+02  0.1451E+02  0.1424E+02
     -6.848  0.3147E+02  0.3592E+02  0.1623E+02  0.1620E+02
     -6.793  0.1527E+02  0.1370E+02  0.1707E+02  0.1695E+02
     -6.738  0.9589E+01  0.1061E+02  0.1759E+02  0.1753E+02
     -6.684  0.1301E+02  0.9778E+01  0.1830E+02  0.1806E+02
     -6.629  0.2242E+02  0.2436E+02  0.1953E+02  0.1939E+02
     -6.575  0.3432E+02  0.3120E+02  0.2140E+02  0.2110E+02
     -6.520  0.2334E+02  0.2405E+02  0.2268E+02  0.2241E+02
     -6.465  0.3877E+02  0.3710E+02  0.2479E+02  0.2444E+02
     -6.411  0.5412E+02  0.5908E+02  0.2775E+02  0.2766E+02
     -6.356  0.1784E+02  0.1858E+02  0.2873E+02  0.2868E+02
     -6.301  0.2725E+02  0.2563E+02  0.3021E+02  0.3008E+02
     -6.247  0.2865E+02  0.2995E+02  0.3178E+02  0.3172E+02
     -6.192  0.4652E+02  0.4275E+02  0.3432E+02  0.3405E+02
     -6.138  0.2749E+02  0.2988E+02  0.3582E+02  0.3568E+02
     -6.083  0.3087E+02  0.2910E+02  0.3751E+02  0.3727E+02
     -6.028  0.5428E+02  0.5518E+02  0.4047E+02  0.4029E+02
     -5.974  0.1745E+02  0.1835E+02  0.4143E+02  0.4129E+02
     -5.919  0.1736E+02  0.1801E+02  0.4237E+02  0.4227E+02
     -5.864  0.4500E+02  0.4034E+02  0.4483E+02  0.4448E+02
     -5.810  0.3453E+02  0.3742E+02  0.4672E+02  0.4652E+02
     -5.755  0.5213E+02  0.5203E+02  0.4957E+02  0.4936E+02
     -5.701  0.3437E+02  0.3191E+02  0.5144E+02  0.5111E+02
     -5.646  0.3095E+02  0.3327E+02  0.5313E+02  0.5292E+02
     -5.591  0.2404E+02  0.2321E+02  0.5445E+02  0.5419E+02
     -5.537  0.4257E+02  0.4387E+02  0.5677E+02  0.5659E+02
     -5.482  0.4529E+02  0.4401E+02  0.5925E+02  0.5899E+02
     -5.427  0.4536E+02  0.4434E+02  0.6172E+02  0.6141E+02
     -5.373  0.5464E+02  0.5528E+02  0.6471E+02  0.6443E+02
     -5.318  0.4181E+02  0.4429E+02  0.6699E+02  0.6685E+02
     -5.264  0.2036E+02  0.1812E+02  0.6810E+02  0.6784E+02
     -5.209  0.6648E+02  0.6295E+02  0.7174E+02  0.7128E+02
     -5.154  0.6180E+02  0.6730E+02  0.7511E+02  0.7496E+02
     -5.100  0.3310E+02  0.3198E+02  0.7692E+02  0.7670E+02
     -5.045  0.5290E+02  0.5133E+02  0.7981E+02  0.7951E+02
     -4.990  0.3347E+02  0.3700E+02  0.8164E+02  0.8153E+02
     -4.936  0.2344E+02  0.1655E+02  0.8292E+02  0.8243E+02
     -4.881  0.4622E+02  0.5307E+02  0.8544E+02  0.8533E+02
     -4.827  0.2573E+02  0.2470E+02  0.8685E+02  0.8668E+02
     -4.772  0.4588E+02  0.4175E+02  0.8935E+02  0.8896E+02
     -4.717  0.4371E+02  0.4603E+02  0.9174E+02  0.9148E+02
     -4.663  0.4186E+02  0.4592E+02  0.9403E+02  0.9398E+02
     -4.608  0.1725E+02  0.1225E+02  0.9497E+02  0.9465E+02
     -4.553  0.3027E+02  0.3360E+02  0.9662E+02  0.9649E+02
     -4.499  0.3166E+02  0.2964E+02  0.9835E+02  0.9811E+02
     -4.444  0.3292E+02  0.3583E+02  0.1002E+03  0.1001E+03
     -4.390  0.5465E+02  0.5237E+02  0.1031E+03  0.1029E+03
     -4.335  0.2961E+02  0.2960E+02  0.1048E+03  0.1045E+03
     -4.280  0.4221E+02  0.4348E+02  0.1071E+03  0.1069E+03
     -4.226  0.1388E+02  0.1370E+02  0.1078E+03  0.1077E+03
     -4.171  0.1282E+02  0.1534E+02  0.1085E+03  0.1085E+03
     -4.116  0.1449E+02  0.1094E+02  0.1093E+03  0.1091E+03
     -4.062  0.1537E+02  0.1712E+02  0.1102E+03  0.1100E+03
     -4.007  0.1551E+02  0.1683E+02  0.1110E+03  0.1110E+03
     -3.953  0.2708E+02  0.2205E+02  0.1125E+03  0.1122E+03
     -3.898  0.3050E+02  0.3241E+02  0.1141E+03  0.1139E+03
     -3.843  0.2875E+01  0.5951E+01  0.1143E+03  0.1143E+03
     -3.789  0.1163E+02  0.9054E+01  0.1149E+03  0.1148E+03
     -3.734  0.2728E+02  0.2764E+02  0.1164E+03  0.1163E+03
     -3.679  0.1934E+02  0.2159E+02  0.1175E+03  0.1174E+03
     -3.625  0.1404E+02  0.1165E+02  0.1182E+03  0.1181E+03
     -3.570  0.2336E+02  0.2586E+02  0.1195E+03  0.1195E+03
     -3.516  0.1502E+02  0.1397E+02  0.1203E+03  0.1203E+03
     -3.461  0.2988E+02  0.2687E+02  0.1220E+03  0.1217E+03
     -3.406  0.8907E+01  0.8022E+01  0.1225E+03  0.1222E+03
     -3.352  0.2133E+02  0.2293E+02  0.1236E+03  0.1234E+03
     -3.297  0.1163E+02  0.1543E+02  0.1243E+03  0.1243E+03
     -3.242  0.2060E+02  0.1429E+02  0.1254E+03  0.1250E+03
     -3.188  0.3505E+02  0.3330E+02  0.1273E+03  0.1269E+03
     -3.133  0.2645E+02  0.3467E+02  0.1287E+03  0.1287E+03
     -3.079  0.4611E+01  0.4625E+01  0.1290E+03  0.1290E+03
     -3.024  0.1363E+02  0.1315E+02  0.1297E+03  0.1297E+03
     -2.969  0.1685E+02  0.1602E+02  0.1307E+03  0.1306E+03
     -2.915  0.3200E+02  0.2732E+02  0.1324E+03  0.1321E+03
     -2.860  0.3288E+02  0.2768E+02  0.1342E+03  0.1336E+03
     -2.805  0.3627E+02  0.4448E+02  0.1362E+03  0.1360E+03
     -2.751  0.2895E+02  0.3142E+02  0.1378E+03  0.1377E+03
     -2.696  0.4356E+02  0.3461E+02  0.1402E+03  0.1396E+03
     -2.642  0.5134E+02  0.4949E+02  0.1430E+03  0.1423E+03
     -2.587  0.6301E+02  0.6580E+02  0.1464E+03  0.1459E+03
     -2.532  0.5324E+02  0.5075E+02  0.1493E+03  0.1487E+03
     -2.478  0.5721E+02  0.6435E+02  0.1524E+03  0.1522E+03
     -2.423  0.5033E+02  0.4720E+02  0.1552E+03  0.1548E+03
     -2.368  0.7359E+02  0.7482E+02  0.1592E+03  0.1589E+03
     -2.314  0.5450E+02  0.5359E+02  0.1622E+03  0.1618E+03
     -2.259  0.4861E+02  0.4733E+02  0.1648E+03  0.1644E+03
     -2.205  0.4526E+02  0.5157E+02  0.1673E+03  0.1672E+03
     -2.150  0.4250E+02  0.3686E+02  0.1696E+03  0.1692E+03
     -2.095  0.4842E+02  0.4127E+02  0.1723E+03  0.1715E+03
     -2.041  0.5720E+02  0.6462E+02  0.1754E+03  0.1750E+03
     -1.986  0.4865E+02  0.5125E+02  0.1781E+03  0.1778E+03
     -1.931  0.2901E+02  0.2817E+02  0.1796E+03  0.1794E+03
     -1.877  0.1166E+02  0.1422E+02  0.1803E+03  0.1801E+03
     -1.822  0.1009E+02  0.1151E+02  0.1808E+03  0.1808E+03
     -1.768  0.2586E+02  0.2321E+02  0.1822E+03  0.1820E+03
     -1.713  0.5726E+02  0.5548E+02  0.1854E+03  0.1851E+03
     -1.658  0.4557E+02  0.4491E+02  0.1879E+03  0.1875E+03
     -1.604  0.7607E+02  0.7867E+02  0.1920E+03  0.1918E+03
     -1.549  0.9612E+01  0.8710E+01  0.1925E+03  0.1923E+03
     -1.494  0.2465E+02  0.2587E+02  0.1939E+03  0.1937E+03
     -1.440  0.2327E+02  0.1909E+02  0.1952E+03  0.1947E+03
     -1.385  0.2745E+02  0.3190E+02  0.1967E+03  0.1965E+03
     -1.331  0.2008E+02  0.2174E+02  0.1978E+03  0.1977E+03
     -1.276  0.2689E+02  0.2468E+02  0.1992E+03  0.1990E+03
     -1.221  0.5114E+01  0.8873E+01  0.1995E+03  0.1995E+03
     -1.167  0.5319E+01  0.1174E+01  0.1998E+03  0.1996E+03
     -1.112  0.1707E+02  0.1644E+02  0.2007E+03  0.2005E+03
     -1.057  0.3311E+02  0.3646E+02  0.2025E+03  0.2025E+03
     -1.003  0.2686E+02  0.2434E+02  0.2040E+03  0.2038E+03
     -0.948  0.2076E+02  0.2386E+02  0.2051E+03  0.2051E+03
     -0.894  0.1585E+02  0.1570E+02  0.2060E+03  0.2059E+03
     -0.839  0.8936E+01  0.7360E+01  0.2065E+03  0.2063E+03
     -0.784  0.1623E+02  0.1523E+02  0.2074E+03  0.2072E+03
     -0.730  0.2414E+02  0.2578E+02  0.2087E+03  0.2086E+03
     -0.675  0.2037E+02  0.1256E+02  0.2098E+03  0.2093E+03
     -0.620  0.4010E+02  0.4504E+02  0.2120E+03  0.2117E+03
     -0.566  0.3540E+02  0.3344E+02  0.2139E+03  0.2136E+03
     -0.511  0.4560E+02  0.4809E+02  0.2164E+03  0.2162E+03
     -0.457  0.1081E+02  0.1187E+02  0.2170E+03  0.2168E+03
     -0.402  0.3174E+02  0.2846E+02  0.2187E+03  0.2184E+03
     -0.347  0.2298E+02  0.2922E+02  0.2200E+03  0.2200E+03
     -0.293  0.1341E-01  0.2639E+00  0.2200E+03  0.2200E+03
     -0.238  0.1287E+02  0.1114E+02  0.2207E+03  0.2206E+03
     -0.183  0.3135E+02  0.2838E+02  0.2224E+03  0.2222E+03
     -0.129  0.1070E+02  0.1540E+02  0.2230E+03  0.2230E+03
     -0.074  0.1424E+02  0.1336E+02  0.2238E+03  0.2237E+03
     -0.020  0.2166E+02  0.2100E+02  0.2250E+03  0.2249E+03
      0.035  0.9887E+01  0.1140E+02  0.2255E+03  0.2255E+03
      0.090  0.4557E+01  0.4576E+01  0.2257E+03  0.2257E+03
      0.144  0.1676E+02  0.1000E+02  0.2267E+03  0.2263E+03
      0.199  0.4171E+02  0.4059E+02  0.2289E+03  0.2285E+03
      0.254  0.8591E+02  0.8361E+02  0.2336E+03  0.2331E+03
      0.308  0.4316E+02  0.5130E+02  0.2360E+03  0.2359E+03
      0.363  0.4128E+02  0.3871E+02  0.2382E+03  0.2380E+03
      0.417  0.3673E+02  0.3263E+02  0.2403E+03  0.2398E+03
      0.472  0.4458E+02  0.5073E+02  0.2427E+03  0.2426E+03
      0.527  0.4919E+02  0.4340E+02  0.2454E+03  0.2449E+03
      0.581  0.3304E+02  0.3685E+02  0.2472E+03  0.2469E+03
      0.636  0.7216E+02  0.7017E+02  0.2511E+03  0.2508E+03
      0.691  0.3361E+02  0.3456E+02  0.2530E+03  0.2527E+03
      0.745  0.9712E+02  0.9066E+02  0.2583E+03  0.2576E+03
      0.800  0.9214E+02  0.9347E+02  0.2633E+03  0.2627E+03
      0.854  0.6794E+02  0.6932E+02  0.2670E+03  0.2665E+03
      0.909  0.5396E+02  0.5716E+02  0.2700E+03  0.2696E+03
      0.964  0.4796E+02  0.4686E+02  0.2726E+03  0.2722E+03
      1.018  0.4463E+02  0.4818E+02  0.2750E+03  0.2748E+03
      1.073  0.9485E+02  0.8401E+02  0.2802E+03  0.2794E+03
      1.128  0.5951E+02  0.6579E+02  0.2834E+03  0.2830E+03
      1.182  0.6824E+02  0.6656E+02  0.2872E+03  0.2866E+03
      1.237  0.7818E+02  0.8458E+02  0.2914E+03  0.2913E+03
      1.291  0.6313E+02  0.5911E+02  0.2949E+03  0.2945E+03
      1.346  0.9793E+02  0.9664E+02  0.3002E+03  0.2998E+03
      1.401  0.6630E+02  0.6645E+02  0.3039E+03  0.3034E+03
      1.455  0.9164E+02  0.8182E+02  0.3089E+03  0.3079E+03
      1.510  0.4514E+02  0.5852E+02  0.3113E+03  0.3111E+03
      1.565  0.5339E+02  0.4917E+02  0.3143E+03  0.3137E+03
      1.619  0.7972E+02  0.7981E+02  0.3186E+03  0.3181E+03
      1.674  0.8715E+02  0.9201E+02  0.3234E+03  0.3231E+03
      1.728  0.6998E+02  0.6874E+02  0.3272E+03  0.3269E+03
      1.783  0.9378E+02  0.8837E+02  0.3323E+03  0.3317E+03
      1.838  0.9788E+02  0.8731E+02  0.3377E+03  0.3365E+03
      1.892  0.8725E+02  0.9738E+02  0.3424E+03  0.3418E+03
      1.947  0.7712E+02  0.7894E+02  0.3466E+03  0.3461E+03
      2.002  0.5260E+02  0.5638E+02  0.3495E+03  0.3492E+03
      2.056  0.5843E+02  0.5366E+02  0.3527E+03  0.3521E+03
      2.111  0.7023E+02  0.6713E+02  0.3565E+03  0.3558E+03
      2.165  0.5544E+02  0.6622E+02  0.3596E+03  0.3594E+03
      2.220  0.7783E+02  0.7390E+02  0.3638E+03  0.3634E+03
      2.275  0.6714E+02  0.6517E+02  0.3675E+03  0.3670E+03
      2.329  0.9419E+02  0.8914E+02  0.3726E+03  0.3719E+03
      2.384  0.5465E+02  0.5919E+02  0.3756E+03  0.3751E+03
      2.439  0.7559E+02  0.7405E+02  0.3797E+03  0.3792E+03
      2.493  0.7815E+02  0.7809E+02  0.3840E+03  0.3834E+03
      2.548  0.6950E+02  0.6968E+02  0.3878E+03  0.3872E+03
      2.602  0.6907E+02  0.6990E+02  0.3916E+03  0.3910E+03
      2.657  0.5464E+02  0.5313E+02  0.3946E+03  0.3939E+03
      2.712  0.7433E+02  0.7431E+02  0.3986E+03  0.3980E+03
      2.766  0.6574E+02  0.7069E+02  0.4022E+03  0.4019E+03
      2.821  0.4236E+02  0.4295E+02  0.4045E+03  0.4042E+03
      2.876  0.5176E+02  0.4755E+02  0.4074E+03  0.4068E+03
      2.930  0.8204E+02  0.8033E+02  0.4118E+03  0.4112E+03
      2.985  0.5374E+02  0.6110E+02  0.4148E+03  0.4145E+03
      3.039  0.5393E+02  0.4639E+02  0.4177E+03  0.4171E+03
      3.094  0.9077E+02  0.8413E+02  0.4227E+03  0.4217E+03
      3.149  0.3747E+02  0.4787E+02  0.4247E+03  0.4243E+03
      3.203  0.7585E+02  0.7544E+02  0.4289E+03  0.4284E+03
      3.258  0.9620E+02  0.9450E+02  0.4341E+03  0.4336E+03
      3.313  0.6003E+02  0.5959E+02  0.4374E+03  0.4368E+03
      3.367  0.6279E+02  0.6379E+02  0.4408E+03  0.4403E+03
      3.422  0.5465E+02  0.5716E+02  0.4438E+03  0.4434E+03
      3.476  0.6756E+02  0.6467E+02  0.4475E+03  0.4470E+03
      3.531  0.2462E+02  0.3265E+02  0.4489E+03  0.4487E+03
      3.586  0.5546E+02  0.4793E+02  0.4519E+03  0.4514E+03
      3.640  0.2698E+02  0.3367E+02  0.4534E+03  0.4532E+03
      3.695  0.3346E+02  0.2839E+02  0.4552E+03  0.4547E+03
      3.750  0.3476E+02  0.3826E+02  0.4571E+03  0.4568E+03
      3.804  0.2962E+02  0.2711E+02  0.4587E+03  0.4583E+03
      3.859  0.2867E+02  0.3487E+02  0.4603E+03  0.4602E+03
      3.913  0.3223E+02  0.2553E+02  0.4620E+03  0.4616E+03
      3.968  0.2782E+02  0.3159E+02  0.4636E+03  0.4633E+03
      4.023  0.3401E+02  0.3552E+02  0.4654E+03  0.4653E+03
      4.077  0.2903E+02  0.3026E+02  0.4670E+03  0.4669E+03
      4.132  0.1804E+02  0.1740E+02  0.4680E+03  0.4679E+03
      4.187  0.2534E+02  0.1302E+02  0.4694E+03  0.4686E+03
      4.241  0.1388E+02  0.2566E+02  0.4701E+03  0.4700E+03
      4.296  0.2706E+02  0.2112E+02  0.4716E+03  0.4712E+03
      4.350  0.1642E+02  0.2464E+02  0.4725E+03  0.4725E+03
      4.405  0.3304E+00  0.2009E-01  0.4725E+03  0.4725E+03
      4.460  0.2394E+02  0.9442E+01  0.4738E+03  0.4730E+03
      4.514  0.3024E+02  0.2331E+02  0.4755E+03  0.4743E+03
      4.569  0.1752E+02  0.2718E+02  0.4764E+03  0.4758E+03
      4.624  0.5766E+01  0.9849E+01  0.4767E+03  0.4763E+03
      4.678  0.1599E+02  0.8108E+01  0.4776E+03  0.4768E+03
      4.733  0.2923E+02  0.1661E+02  0.4792E+03  0.4777E+03
      4.787  0.4344E+02  0.4233E+02  0.4816E+03  0.4800E+03
      4.842  0.2862E+02  0.3977E+02  0.4832E+03  0.4821E+03
      4.897  0.3197E+02  0.2724E+02  0.4849E+03  0.4836E+03
      4.951  0.2399E+02  0.2405E+02  0.4862E+03  0.4849E+03
      5.006  0.2251E+02  0.2393E+02  0.4874E+03  0.4863E+03
      5.061  0.4554E+02  0.3672E+02  0.4899E+03  0.4883E+03
      5.115  0.2613E+02  0.4864E+02  0.4914E+03  0.4909E+03
      5.170  0.3318E+02  0.1753E+02  0.4932E+03  0.4919E+03
      5.224  0.1972E+02  0.3049E+02  0.4942E+03  0.4935E+03
      5.279  0.6167E+02  0.5249E+02  0.4976E+03  0.4964E+03
      5.334  0.3210E+02  0.4807E+02  0.4994E+03  0.4990E+03
      5.388  0.3258E+02  0.3042E+02  0.5011E+03  0.5007E+03
      5.443  0.4450E+02  0.2711E+02  0.5036E+03  0.5022E+03
      5.498  0.2549E+02  0.4461E+02  0.5050E+03  0.5046E+03
      5.552  0.5164E+02  0.4606E+02  0.5078E+03  0.5071E+03
      5.607  0.3577E+02  0.4422E+02  0.5097E+03  0.5095E+03
      5.661  0.6848E+02  0.4956E+02  0.5135E+03  0.5123E+03
      5.716  0.4140E+02  0.6270E+02  0.5157E+03  0.5157E+03
      5.771  0.5446E+02  0.4073E+02  0.5187E+03  0.5179E+03
      5.825  0.4498E+02  0.5034E+02  0.5212E+03  0.5207E+03
      5.880  0.5305E+02  0.4596E+02  0.5241E+03  0.5232E+03
      5.935  0.5603E+02  0.6682E+02  0.5271E+03  0.5268E+03
      5.989  0.6377E+02  0.5530E+02  0.5306E+03  0.5298E+03
      6.044  0.2822E+02  0.3718E+02  0.5322E+03  0.5319E+03
      6.098  0.4989E+02  0.4173E+02  0.5349E+03  0.5341E+03
      6.153  0.5187E+02  0.5337E+02  0.5377E+03  0.5371E+03
      6.208  0.7895E+02  0.8219E+02  0.5420E+03  0.5416E+03
      6.262  0.4055E+02  0.4449E+02  0.5443E+03  0.5440E+03
      6.317  0.1530E+02  0.1464E+02  0.5451E+03  0.5448E+03
      6.372  0.6357E+02  0.5787E+02  0.5486E+03  0.5479E+03
      6.426  0.6200E+02  0.6012E+02  0.5519E+03  0.5512E+03
      6.481  0.6400E+02  0.6583E+02  0.5554E+03  0.5548E+03
      6.535  0.7908E+02  0.8254E+02  0.5598E+03  0.5593E+03
      6.590  0.1885E+02  0.2299E+02  0.5608E+03  0.5606E+03
      6.645  0.3930E+02  0.3636E+02  0.5629E+03  0.5626E+03
      6.699  0.4640E+02  0.4943E+02  0.5655E+03  0.5653E+03
      6.754  0.4472E+02  0.4127E+02  0.5679E+03  0.5675E+03
      6.809  0.4609E+02  0.4667E+02  0.5704E+03  0.5701E+03
      6.863  0.4724E+02  0.4985E+02  0.5730E+03  0.5728E+03
      6.918  0.2274E+02  0.2620E+02  0.5743E+03  0.5742E+03
      6.972  0.8012E+01  0.6390E+01  0.5747E+03  0.5746E+03
      7.027  0.1677E+02  0.1536E+02  0.5756E+03  0.5754E+03
      7.082  0.7150E+01  0.1064E+02  0.5760E+03  0.5760E+03
      7.136  0.0000E+00  0.0000E+00  0.5760E+03  0.5760E+03
      7.191  0.0000E+00  0.0000E+00  0.5760E+03  0.5760E+03
      7.246  0.0000E+00  0.0000E+00  0.5760E+03  0.5760E+03
      7.300  0.0000E+00  0.0000E+00  0.5760E+03  0.5760E+03
      7.355  0.0000E+00  0.0000E+00  0.5760E+03  0.5760E+03
      7.409  0.0000E+00  0.0000E+00  0.5760E+03  0.5760E+03
      7.464  0.0000E+00  0.0000E+00  0.5760E+03  0.5760E+03
      7.519  0.0000E+00  0.0000E+00  0.5760E+03  0.5760E+03
      7.573  0.0000E+00  0.0000E+00  0.5760E+03  0.5760E+03
      7.628  0.0000E+00  0.0000E+00  0.5760E+03  0.5760E+03
      7.682  0.0000E+00  0.0000E+00  0.5760E+03  0.5760E+03
      7.737  0.0000E+00  0.0000E+00  0.5760E+03  0.5760E+03
      7.792  0.0000E+00  0.0000E+00  0.5760E+03  0.5760E+03
