 vasp.6.4.3 19Mar24 (build Oct 22 2024 11:23:12) complex                        
  
 executed on             LinuxIFC date 2025.04.30  09:10:27
 running   16 mpi-ranks, on    1 nodes
 distrk:  each k-point on   16 cores,    1 groups
 distr:  one band on NCORE=  16 cores,    1 groups


--------------------------------------------------------------------------------------------------------


 INCAR:
   SYSTEM = Si001 and Ge001 interface calculation
   ISTART = 0
   ICHARG = 2
   LWAVE = .FALSE.
   LREAL = AUTO
   ENCUT = 700
   ENAUG = 900
   ADDGRID = .TRUE.
   LMAXMIX = 6
   LASPH = .TRUE.
   LMIXTAU = .TRUE.
   NCORE = 16
   NELM = 100
   NBANDS = 788
   EDIFF = 1d-7
   AMIX = 0.6
   ISMEAR = 0
   SIGMA = 0.01
   NELECT = 1312
   ISPIN = 2
   NUPDOWN = 1
   LVTOT = .FALSE.
   LVHAR = .TRUE.

 POTCAR:    PAW_PBE Si 05Jan2001                  
 POTCAR:    PAW_PBE Ge 05Jan2001                  
 -----------------------------------------------------------------------------
|                                                                             |
|           W    W    AA    RRRRR   N    N  II  N    N   GGGG   !!!           |
|           W    W   A  A   R    R  NN   N  II  NN   N  G    G  !!!           |
|           W    W  A    A  R    R  N N  N  II  N N  N  G       !!!           |
|           W WW W  AAAAAA  RRRRR   N  N N  II  N  N N  G  GGG   !            |
|           WW  WW  A    A  R   R   N   NN  II  N   NN  G    G                |
|           W    W  A    A  R    R  N    N  II  N    N   GGGG   !!!           |
|                                                                             |
|     You use a magnetic or noncollinear calculation, but did not specify     |
|     the initial magnetic moment with the MAGMOM tag. Note that a            |
|     default of 3.049e-3 will be used for all atoms. This ferromagnetic      |
|     setup may break the symmetry of the crystal, in particular it may       |
|     rule out finding an antiferromagnetic solution. Thence, we              |
|     recommend setting the initial magnetic moment manually or verifying     |
|     carefully that this magnetic setup is desired.                          |
|                                                                             |
 -----------------------------------------------------------------------------

 -----------------------------------------------------------------------------
|                                                                             |
|           W    W    AA    RRRRR   N    N  II  N    N   GGGG   !!!           |
|           W    W   A  A   R    R  NN   N  II  NN   N  G    G  !!!           |
|           W    W  A    A  R    R  N N  N  II  N N  N  G       !!!           |
|           W WW W  AAAAAA  RRRRR   N  N N  II  N  N N  G  GGG   !            |
|           WW  WW  A    A  R   R   N   NN  II  N   NN  G    G                |
|           W    W  A    A  R    R  N    N  II  N    N   GGGG   !!!           |
|                                                                             |
|     For optimal performance we recommend to set                             |
|       NCORE = 2 up to number-of-cores-per-socket                            |
|     NCORE specifies how many cores store one orbital (NPAR=cpu/NCORE).      |
|     This setting can greatly improve the performance of VASP for DFT.       |
|     The default, NCORE=1 might be grossly inefficient on modern             |
|     multi-core architectures or massively parallel machines. Do your        |
|     own testing! More info at https://www.vasp.at/wiki/index.php/NCORE      |
|     Unfortunately you need to use the default for GW and RPA                |
|     calculations (for HF NCORE is supported but not extensively tested      |
|     yet).                                                                   |
|                                                                             |
 -----------------------------------------------------------------------------

 POTCAR:    PAW_PBE Si 05Jan2001                  
   VRHFIN =Si: s2p2                                                                                 
   LEXCH  = PE                                                                                      
   EATOM  =   103.0669 eV,    7.5752 Ry                                                             
                                                                                                    
   TITEL  = PAW_PBE Si 05Jan2001                                                                    
   LULTRA =        F    use ultrasoft PP ?                                                          
   IUNSCR =        1    unscreen: 0-lin 1-nonlin 2-no                                               
   RPACOR =    1.500    partial core radius                                                         
   POMASS =   28.085; ZVAL   =    4.000    mass and valenz                                          
   RCORE  =    1.900    outmost cutoff radius                                                       
   RWIGS  =    2.480; RWIGS  =    1.312    wigner-seitz radius (au A)                               
   ENMAX  =  245.345; ENMIN  =  184.009 eV                                                          
   ICORE  =        2    local potential                                                             
   LCOR   =        T    correct aug charges                                                         
   LPAW   =        T    paw PP                                                                      
   EAUG   =  322.069                                                                                
   DEXC   =    0.000                                                                                
   RMAX   =    1.950    core radius for proj-oper                                                   
   RAUG   =    1.300    factor for augmentation sphere                                              
   RDEP   =    1.993    radius for radial grids                                                     
   RDEPT  =    1.837    core radius for aug-charge                                                  
                                                                                                    
   Atomic configuration                                                                             
    6 entries                                                                                       
     n  l   j            E        occ.                                                              
     1  0  0.50     -1785.8828   2.0000                                                             
     2  0  0.50      -139.4969   2.0000                                                             
     2  1  1.50       -95.5546   6.0000                                                             
     3  0  0.50       -10.8127   2.0000                                                             
     3  1  0.50        -4.0811   2.0000                                                             
     3  2  1.50        -4.0817   0.0000                                                             
   Description                                                                                      
     l       E           TYP  RCUT    TYP  RCUT                                                     
     0    -10.8127223     23  1.900                                                                 
     0     -7.6451159     23  1.900                                                                 
     1     -4.0811372     23  1.900                                                                 
     1      2.4879257     23  1.900                                                                 
     2     -4.0817478      7  1.900                                                                 
  local pseudopotential read in
  partial core-charges read in
  partial kinetic energy density read in
  atomic valenz-charges read in
  non local Contribution for L=           0  read in
    real space projection operators read in
  non local Contribution for L=           0  read in
    real space projection operators read in
  non local Contribution for L=           1  read in
    real space projection operators read in
  non local Contribution for L=           1  read in
    real space projection operators read in
    PAW grid and wavefunctions read in
 
   number of l-projection  operators is LMAX  =           4
   number of lm-projection operators is LMMAX =           8
 
 POTCAR:    PAW_PBE Ge 05Jan2001                  
   VRHFIN =Ge: s2p2                                                                                 
   LEXCH  = PE                                                                                      
   EATOM  =   104.9960 eV,    7.7170 Ry                                                             
                                                                                                    
   TITEL  = PAW_PBE Ge 05Jan2001                                                                    
   LULTRA =        F    use ultrasoft PP ?                                                          
   IUNSCR =        1    unscreen: 0-lin 1-nonlin 2-no                                               
   RPACOR =    2.170    partial core radius                                                         
   POMASS =   72.610; ZVAL   =    4.000    mass and valenz                                          
   RCORE  =    2.300    outmost cutoff radius                                                       
   RWIGS  =    2.300; RWIGS  =    1.217    wigner-seitz radius (au A)                               
   ENMAX  =  173.807; ENMIN  =  130.355 eV                                                          
   ICORE  =        3    local potential                                                             
   LCOR   =        T    correct aug charges                                                         
   LPAW   =        T    paw PP                                                                      
   EAUG   =  385.843                                                                                
   DEXC   =    0.000                                                                                
   RMAX   =    2.342    core radius for proj-oper                                                   
   RAUG   =    1.300    factor for augmentation sphere                                              
   RDEP   =    2.318    radius for radial grids                                                     
   RDEPT  =    2.103    core radius for aug-charge                                                  
                                                                                                    
   Atomic configuration                                                                             
   10 entries                                                                                       
     n  l   j            E        occ.                                                              
     1  0  0.50    -10959.8463   2.0000                                                             
     2  0  0.50     -1371.6056   2.0000                                                             
     2  1  1.50     -1198.4791   6.0000                                                             
     3  0  0.50      -168.4733   2.0000                                                             
     3  1  1.50      -115.6019   6.0000                                                             
     3  2  2.50       -29.3106  10.0000                                                             
     4  0  0.50       -11.7309   2.0000                                                             
     4  1  0.50        -3.8952   2.0000                                                             
     4  2  1.50        -4.0817   0.0000                                                             
     4  3  2.50        -4.0817   0.0000                                                             
   Description                                                                                      
     l       E           TYP  RCUT    TYP  RCUT                                                     
     0    -11.7309493     23  2.300                                                                 
     0     -7.4578696     23  2.300                                                                 
     1     -3.8952261     23  2.300                                                                 
     1      6.1178114     23  2.300                                                                 
     2     -4.0817478     23  2.300                                                                 
     3     -1.3605826      7  2.300                                                                 
  local pseudopotential read in
  partial core-charges read in
  partial kinetic energy density read in
  atomic valenz-charges read in
  non local Contribution for L=           0  read in
    real space projection operators read in
  non local Contribution for L=           0  read in
    real space projection operators read in
  non local Contribution for L=           1  read in
    real space projection operators read in
  non local Contribution for L=           1  read in
    real space projection operators read in
  non local Contribution for L=           2  read in
    real space projection operators read in
    PAW grid and wavefunctions read in
 
   number of l-projection  operators is LMAX  =           5
   number of lm-projection operators is LMMAX =          13
 
 Optimization of the real space projectors (new method)

 maximal supplied QI-value         = 19.84
 optimisation between [QCUT,QGAM] = [ 13.49, 26.99] = [ 50.98,203.92] Ry 
 Optimized for a Real-space Cutoff    1.07 Angstroem

   l    n(q)    QCUT    max X(q) W(low)/X(q) W(high)/X(q)  e(spline) 
   0      9    13.493   159.560    0.22E-03    0.15E-03    0.72E-07
   0      9    13.493   115.863    0.21E-03    0.15E-03    0.71E-07
   1      8    13.493    88.339    0.15E-03    0.11E-03    0.13E-06
   1      8    13.493    48.592    0.15E-03    0.10E-03    0.13E-06
 Optimization of the real space projectors (new method)

 maximal supplied QI-value         = 16.25
 optimisation between [QCUT,QGAM] = [ 13.49, 26.98] = [ 50.95,203.80] Ry 
 Optimized for a Real-space Cutoff    1.25 Angstroem

   l    n(q)    QCUT    max X(q) W(low)/X(q) W(high)/X(q)  e(spline) 
   0     10    13.489    65.336    0.91E-04    0.11E-03    0.34E-06
   0     10    13.489    52.220    0.89E-04    0.11E-03    0.34E-06
   1     10    13.489    36.409    0.22E-03    0.27E-03    0.14E-06
   1     10    13.489    21.334    0.21E-03    0.27E-03    0.14E-06
   2      9    13.489     4.673    0.11E-03    0.12E-03    0.19E-06
  PAW_PBE Si 05Jan2001                  :
 energy of atom  1       EATOM= -103.0669
 kinetic energy error for atom=    0.0003 (will be added to EATOM!!)
  PAW_PBE Ge 05Jan2001                  :
 energy of atom  2       EATOM= -104.9960
 kinetic energy error for atom=    0.0001 (will be added to EATOM!!)
 
 
 POSCAR: fcc Si+fcc Ge
  positions in direct lattice
  No initial velocities read in


 exchange-correlation table for PE
   RHO(1)=    0.500       N(1)  =     2000
   RHO(2)=  100.500       N(2)  =     4000
 


--------------------------------------------------------------------------------------------------------


 ion  position               nearest neighbor table
   1  0.000  0.000  0.000- 319 2.35 216 2.37 126 2.37
   2  0.950  0.650  0.111- 171 2.37 127 2.37 166 2.37 217 2.37
   3  0.900  0.300  0.223- 128 2.37 167 2.37 218 2.37 172 2.37
   4  0.850  0.950  0.334- 219 2.37 129 2.37 173 2.37 168 2.37
   5  0.800  0.600  0.446- 220 2.37 169 2.37 174 2.37 130 2.37
   6  0.750  0.250  0.557- 248 2.35 175 2.37 170 2.37
   7  0.100  0.700  0.000- 316 2.23 171 2.37 131 2.37
   8  0.050  0.350  0.111- 121 2.37 172 2.37 176 2.37 132 2.37
   9  0.000  0.000  0.223- 133 2.37 173 2.37 122 2.37 177 2.37
  10  0.950  0.650  0.334- 134 2.37 174 2.37 178 2.37 123 2.37
  11  0.900  0.300  0.446- 124 2.37 135 2.37 175 2.37 179 2.37
  12  0.850  0.950  0.557- 254 2.23 180 2.37 125 2.37
  13  0.200  0.400  0.000- 136 2.37 176 2.37
  14  0.150  0.050  0.111- 126 2.37 181 2.37 137 2.37 177 2.37
  15  0.100  0.700  0.223- 178 2.37 182 2.37 138 2.37 127 2.37
  16  0.050  0.350  0.334- 179 2.37 139 2.37 128 2.37 183 2.37
  17  0.000  0.000  0.446- 129 2.37 140 2.37 180 2.37 184 2.37
  18  0.950  0.650  0.557- 185 2.37 130 2.37
  19  0.300  0.100  0.000- 181 2.37 141 2.37 310 2.38
  20  0.250  0.750  0.111- 131 2.37 186 2.37 182 2.37 142 2.37
  21  0.200  0.400  0.223- 143 2.37 183 2.37 187 2.37 132 2.37
  22  0.150  0.050  0.334- 144 2.37 184 2.37 133 2.37 188 2.37
  23  0.100  0.700  0.446- 189 2.37 185 2.37 134 2.37 145 2.37
  24  0.050  0.350  0.557- 135 2.37 190 2.37 266 2.38
  25  0.400  0.800  0.000- 307 2.25 146 2.37 186 2.37
  26  0.350  0.450  0.111- 191 2.37 136 2.37 187 2.37 147 2.37
  27  0.300  0.100  0.223- 188 2.37 148 2.37 137 2.37 192 2.37
  28  0.250  0.750  0.334- 149 2.37 189 2.37 138 2.37 193 2.37
  29  0.200  0.400  0.446- 150 2.37 194 2.37 190 2.37 139 2.37
  30  0.150  0.050  0.557- 272 2.25 140 2.37 195 2.37
  31  0.500  0.500  0.000- 280 2.35 191 2.37 151 2.37
  32  0.450  0.150  0.111- 196 2.37 152 2.37 141 2.37 192 2.37
  33  0.400  0.800  0.223- 153 2.37 142 2.37 193 2.37 197 2.37
  34  0.350  0.450  0.334- 194 2.37 154 2.37 198 2.37 143 2.37
  35  0.300  0.100  0.446- 195 2.37 144 2.37 155 2.37 199 2.37
  36  0.250  0.750  0.557- 236 2.35 200 2.37 145 2.37
  37  0.600  0.200  0.000- 277 2.23 196 2.37 156 2.37
  38  0.550  0.850  0.111- 146 2.37 197 2.37 201 2.37 157 2.37
  39  0.500  0.500  0.223- 158 2.37 198 2.37 147 2.37 202 2.37
  40  0.450  0.150  0.334- 159 2.37 199 2.37 203 2.37 148 2.37
  41  0.400  0.800  0.446- 149 2.37 160 2.37 200 2.37 204 2.37
  42  0.350  0.450  0.557- 233 2.23 205 2.37 150 2.37
  43  0.700  0.900  0.000- 161 2.37 201 2.37
  44  0.650  0.550  0.111- 151 2.37 206 2.37 162 2.37 202 2.37
  45  0.600  0.200  0.223- 203 2.37 207 2.37 163 2.37 152 2.37
  46  0.550  0.850  0.334- 204 2.37 164 2.37 153 2.37 208 2.37
  47  0.500  0.500  0.446- 154 2.37 165 2.37 205 2.37 209 2.37
  48  0.450  0.150  0.557- 210 2.37 155 2.37
  49  0.800  0.600  0.000- 206 2.37 166 2.37 298 2.38
  50  0.750  0.250  0.111- 156 2.37 211 2.37 207 2.37 167 2.37
  51  0.700  0.900  0.223- 168 2.37 208 2.37 212 2.37 157 2.37
  52  0.650  0.550  0.334- 169 2.37 209 2.37 158 2.37 213 2.37
  53  0.600  0.200  0.446- 214 2.37 210 2.37 159 2.37 170 2.37
  54  0.550  0.850  0.557- 160 2.37 215 2.37 227 2.38
  55  0.900  0.300  0.000- 295 2.25 121 2.37 211 2.37
  56  0.850  0.950  0.111- 216 2.37 161 2.37 212 2.37 122 2.37
  57  0.800  0.600  0.223- 213 2.37 123 2.37 162 2.37 217 2.37
  58  0.750  0.250  0.334- 124 2.37 214 2.37 163 2.37 218 2.37
  59  0.700  0.900  0.446- 125 2.37 219 2.37 215 2.37 164 2.37
  60  0.650  0.550  0.557- 224 2.25 165 2.37 220 2.37
  61  0.000  0.500  0.000- 166 2.37 176 2.37 313 2.66
  62  0.950  0.150  0.111- 121 2.37 177 2.37 216 2.37 167 2.37
  63  0.900  0.800  0.223- 178 2.37 217 2.37 168 2.37 122 2.37
  64  0.850  0.450  0.334- 169 2.37 179 2.37 123 2.37 218 2.37
  65  0.800  0.100  0.446- 170 2.37 219 2.37 180 2.37 124 2.37
  66  0.750  0.750  0.557- 125 2.37 220 2.37 251 2.66
  67  0.100  0.200  0.000- 121 2.37 181 2.37 286 2.75
  68  0.050  0.850  0.111- 171 2.37 122 2.37 126 2.37 182 2.37
  69  0.000  0.500  0.223- 123 2.37 183 2.37 172 2.37 127 2.37
  70  0.950  0.150  0.334- 184 2.37 124 2.37 128 2.37 173 2.37
  71  0.900  0.800  0.446- 174 2.37 185 2.37 125 2.37 129 2.37
  72  0.850  0.450  0.557- 130 2.37 175 2.37 242 2.75
  73  0.200  0.900  0.000- 292 1.91 186 2.37 126 2.37
  74  0.150  0.550  0.111- 176 2.37 131 2.37 187 2.37 127 2.37
  75  0.100  0.200  0.223- 128 2.37 132 2.37 188 2.37 177 2.37
  76  0.050  0.850  0.334- 129 2.37 189 2.37 178 2.37 133 2.37
  77  0.000  0.500  0.446- 130 2.37 134 2.37 179 2.37 190 2.37
  78  0.950  0.150  0.557- 239 1.91 135 2.37 180 2.37
  79  0.300  0.600  0.000- 131 2.37 191 2.37 289 2.53
  80  0.250  0.250  0.111- 136 2.37 181 2.37 132 2.37 192 2.37
  81  0.200  0.900  0.223- 193 2.37 133 2.37 137 2.37 182 2.37
  82  0.150  0.550  0.334- 194 2.37 134 2.37 183 2.37 138 2.37
  83  0.100  0.200  0.446- 139 2.37 135 2.37 184 2.37 195 2.37
  84  0.050  0.850  0.557- 185 2.37 140 2.37 245 2.53
  85  0.400  0.300  0.000- 196 2.37 136 2.37 304 2.62
  86  0.350  0.950  0.111- 141 2.37 186 2.37 137 2.37 197 2.37
  87  0.300  0.600  0.223- 138 2.37 198 2.37 187 2.37 142 2.37
  88  0.250  0.250  0.334- 139 2.37 199 2.37 188 2.37 143 2.37
  89  0.200  0.900  0.446- 200 2.37 144 2.37 189 2.37 140 2.37
  90  0.150  0.550  0.557- 190 2.37 145 2.37 269 2.62
  91  0.500  0.000  0.000- 141 2.37 201 2.37 283 2.66
  92  0.450  0.650  0.111- 146 2.37 202 2.37 191 2.37 142 2.37
  93  0.400  0.300  0.223- 203 2.37 192 2.37 143 2.37 147 2.37
  94  0.350  0.950  0.334- 144 2.37 204 2.37 148 2.37 193 2.37
  95  0.300  0.600  0.446- 145 2.37 194 2.37 149 2.37 205 2.37
  96  0.250  0.250  0.557- 150 2.37 195 2.37 230 2.66
  97  0.600  0.700  0.000- 146 2.37 206 2.37 325 2.75
  98  0.550  0.350  0.111- 196 2.37 147 2.37 151 2.37 207 2.37
  99  0.500  0.000  0.223- 148 2.37 208 2.37 197 2.37 152 2.37
 100  0.450  0.650  0.334- 209 2.37 149 2.37 153 2.37 198 2.37
 101  0.400  0.300  0.446- 199 2.37 210 2.37 150 2.37 154 2.37
 102  0.350  0.950  0.557- 155 2.37 200 2.37 263 2.75
 103  0.700  0.400  0.000- 322 1.91 211 2.37 151 2.37
 104  0.650  0.050  0.111- 201 2.37 156 2.37 212 2.37 152 2.37
 105  0.600  0.700  0.223- 153 2.37 157 2.37 213 2.37 202 2.37
 106  0.550  0.350  0.334- 154 2.37 214 2.37 203 2.37 158 2.37
 107  0.500  0.000  0.446- 155 2.37 159 2.37 204 2.37 215 2.37
 108  0.450  0.650  0.557- 260 1.91 160 2.37 205 2.37
 109  0.800  0.100  0.000- 156 2.37 216 2.37 328 2.53
 110  0.750  0.750  0.111- 161 2.37 206 2.37 157 2.37 217 2.37
 111  0.700  0.400  0.223- 218 2.37 158 2.37 162 2.37 207 2.37
 112  0.650  0.050  0.334- 219 2.37 159 2.37 208 2.37 163 2.37
 113  0.600  0.700  0.446- 164 2.37 160 2.37 209 2.37 220 2.37
 114  0.550  0.350  0.557- 210 2.37 165 2.37 257 2.53
 115  0.900  0.800  0.000- 171 2.37 161 2.37 301 2.62
 116  0.850  0.450  0.111- 166 2.37 211 2.37 162 2.37 172 2.37
 117  0.800  0.100  0.223- 163 2.37 173 2.37 212 2.37 167 2.37
 118  0.750  0.750  0.334- 164 2.37 174 2.37 168 2.37 213 2.37
 119  0.700  0.400  0.446- 175 2.37 169 2.37 165 2.37 214 2.37
 120  0.650  0.050  0.557- 215 2.37 170 2.37 221 2.62
 121  0.000  0.250  0.056-   8 2.37  62 2.37  55 2.37  67 2.37
 122  0.950  0.900  0.167-  68 2.37   9 2.37  63 2.37  56 2.37
 123  0.900  0.550  0.279-  69 2.37  57 2.37  64 2.37  10 2.37
 124  0.850  0.200  0.390-  58 2.37  11 2.37  70 2.37  65 2.37
 125  0.800  0.850  0.502-  66 2.37  59 2.37  12 2.37  71 2.37
 126  0.100  0.950  0.056-  14 2.37  68 2.37   1 2.37  73 2.37
 127  0.050  0.600  0.167-   2 2.37  69 2.37  15 2.37  74 2.37
 128  0.000  0.250  0.279-   3 2.37  75 2.37  70 2.37  16 2.37
 129  0.950  0.900  0.390-  76 2.37   4 2.37  17 2.37  71 2.37
 130  0.900  0.550  0.502-  72 2.37  18 2.37  77 2.37   5 2.37
 131  0.200  0.650  0.056-  20 2.37  79 2.37  74 2.37   7 2.37
 132  0.150  0.300  0.167-  75 2.37  80 2.37   8 2.37  21 2.37
 133  0.100  0.950  0.279-   9 2.37  81 2.37  22 2.37  76 2.37
 134  0.050  0.600  0.390-  10 2.37  82 2.37  77 2.37  23 2.37
 135  0.000  0.250  0.502-  24 2.37  78 2.37  11 2.37  83 2.37
 136  0.300  0.350  0.056-  80 2.37  13 2.37  26 2.37  85 2.37
 137  0.250  0.000  0.167-  14 2.37  27 2.37  81 2.37  86 2.37
 138  0.200  0.650  0.279-  87 2.37  15 2.37  28 2.37  82 2.37
 139  0.150  0.300  0.390-  88 2.37  83 2.37  16 2.37  29 2.37
 140  0.100  0.950  0.502-  30 2.37  84 2.37  17 2.37  89 2.37
 141  0.400  0.050  0.056-  86 2.37  32 2.37  91 2.37  19 2.37
 142  0.350  0.700  0.167-  33 2.37  20 2.37  87 2.37  92 2.37
 143  0.300  0.350  0.279-  21 2.37  93 2.37  88 2.37  34 2.37
 144  0.250  0.000  0.390-  22 2.37  94 2.37  89 2.37  35 2.37
 145  0.200  0.650  0.502-  36 2.37  95 2.37  90 2.37  23 2.37
 146  0.500  0.750  0.056-  38 2.37  92 2.37  25 2.37  97 2.37
 147  0.450  0.400  0.167-  98 2.37  39 2.37  93 2.37  26 2.37
 148  0.400  0.050  0.279-  99 2.37  27 2.37  94 2.37  40 2.37
 149  0.350  0.700  0.390-  28 2.37  41 2.37 100 2.37  95 2.37
 150  0.300  0.350  0.502-  96 2.37  29 2.37  42 2.37 101 2.37
 151  0.600  0.450  0.056-  44 2.37  98 2.37  31 2.37 103 2.37
 152  0.550  0.100  0.167-  32 2.37  99 2.37  45 2.37 104 2.37
 153  0.500  0.750  0.279-  33 2.37 105 2.37 100 2.37  46 2.37
 154  0.450  0.400  0.390- 106 2.37  34 2.37  47 2.37 101 2.37
 155  0.400  0.050  0.502- 102 2.37  48 2.37 107 2.37  35 2.37
 156  0.700  0.150  0.056-  50 2.37 109 2.37 104 2.37  37 2.37
 157  0.650  0.800  0.167- 105 2.37 110 2.37  38 2.37  51 2.37
 158  0.600  0.450  0.279-  39 2.37 111 2.37  52 2.37 106 2.37
 159  0.550  0.100  0.390-  40 2.37 112 2.37 107 2.37  53 2.37
 160  0.500  0.750  0.502-  54 2.37 108 2.37  41 2.37 113 2.37
 161  0.800  0.850  0.056- 110 2.37  43 2.37  56 2.37 115 2.37
 162  0.750  0.500  0.167-  44 2.37  57 2.37 111 2.37 116 2.37
 163  0.700  0.150  0.279- 117 2.37  45 2.37  58 2.37 112 2.37
 164  0.650  0.800  0.390- 118 2.37 113 2.37  46 2.37  59 2.37
 165  0.600  0.450  0.502-  60 2.37 114 2.37  47 2.37 119 2.37
 166  0.900  0.550  0.056- 116 2.37   2 2.37  61 2.37  49 2.37
 167  0.850  0.200  0.167-   3 2.37  50 2.37  62 2.37 117 2.37
 168  0.800  0.850  0.279-  51 2.37  63 2.37 118 2.37   4 2.37
 169  0.750  0.500  0.390-  52 2.37  64 2.37   5 2.37 119 2.37
 170  0.700  0.150  0.502-   6 2.37  65 2.37 120 2.37  53 2.37
 171  0.000  0.750  0.056-   2 2.37  68 2.37   7 2.37 115 2.37
 172  0.950  0.400  0.167-   8 2.37  69 2.37   3 2.37 116 2.37
 173  0.900  0.050  0.279-   9 2.37 117 2.37   4 2.37  70 2.37
 174  0.850  0.700  0.390- 118 2.37  71 2.37  10 2.37   5 2.37
 175  0.800  0.350  0.502-   6 2.37 119 2.37  72 2.37  11 2.37
 176  0.100  0.450  0.056-  74 2.37   8 2.37  61 2.37  13 2.37
 177  0.050  0.100  0.167-  62 2.37   9 2.37  14 2.37  75 2.37
 178  0.000  0.750  0.279-  15 2.37  63 2.37  10 2.37  76 2.37
 179  0.950  0.400  0.390-  16 2.37  64 2.37  77 2.37  11 2.37
 180  0.900  0.050  0.502-  12 2.37  78 2.37  17 2.37  65 2.37
 181  0.200  0.150  0.056-  80 2.37  19 2.37  14 2.37  67 2.37
 182  0.150  0.800  0.167-  15 2.37  20 2.37  68 2.37  81 2.37
 183  0.100  0.450  0.279-  69 2.37  21 2.37  82 2.37  16 2.37
 184  0.050  0.100  0.390-  70 2.37  22 2.37  17 2.37  83 2.37
 185  0.000  0.750  0.502-  18 2.37  84 2.37  71 2.37  23 2.37
 186  0.300  0.850  0.056-  20 2.37  73 2.37  86 2.37  25 2.37
 187  0.250  0.500  0.167-  21 2.37  26 2.37  74 2.37  87 2.37
 188  0.200  0.150  0.279-  27 2.37  75 2.37  88 2.37  22 2.37
 189  0.150  0.800  0.390-  28 2.37  23 2.37  76 2.37  89 2.37
 190  0.100  0.450  0.502-  90 2.37  24 2.37  77 2.37  29 2.37
 191  0.400  0.550  0.056-  26 2.37  92 2.37  31 2.37  79 2.37
 192  0.350  0.200  0.167-  93 2.37  80 2.37  27 2.37  32 2.37
 193  0.300  0.850  0.279-  81 2.37  33 2.37  28 2.37  94 2.37
 194  0.250  0.500  0.390-  34 2.37  82 2.37  29 2.37  95 2.37
 195  0.200  0.150  0.502-  96 2.37  35 2.37  30 2.37  83 2.37
 196  0.500  0.250  0.056-  32 2.37  98 2.37  85 2.37  37 2.37
 197  0.450  0.900  0.167-  38 2.37  99 2.37  86 2.37  33 2.37
 198  0.400  0.550  0.279-  39 2.37  87 2.37  34 2.37 100 2.37
 199  0.350  0.200  0.390-  88 2.37 101 2.37  40 2.37  35 2.37
 200  0.300  0.850  0.502-  36 2.37  89 2.37 102 2.37  41 2.37
 201  0.600  0.950  0.056- 104 2.37  38 2.37  91 2.37  43 2.37
 202  0.550  0.600  0.167-  92 2.37  39 2.37  44 2.37 105 2.37
 203  0.500  0.250  0.279-  45 2.37  93 2.37  40 2.37 106 2.37
 204  0.450  0.900  0.390-  46 2.37  94 2.37 107 2.37  41 2.37
 205  0.400  0.550  0.502-  42 2.37 108 2.37  47 2.37  95 2.37
 206  0.700  0.650  0.056- 110 2.37  49 2.37  44 2.37  97 2.37
 207  0.650  0.300  0.167-  45 2.37  50 2.37  98 2.37 111 2.37
 208  0.600  0.950  0.279-  99 2.37  51 2.37 112 2.37  46 2.37
 209  0.550  0.600  0.390- 100 2.37  52 2.37  47 2.37 113 2.37
 210  0.500  0.250  0.502-  48 2.37 114 2.37 101 2.37  53 2.37
 211  0.800  0.350  0.056-  50 2.37 103 2.37 116 2.37  55 2.37
 212  0.750  0.000  0.167-  51 2.37  56 2.37 104 2.37 117 2.37
 213  0.700  0.650  0.279-  57 2.37 105 2.37 118 2.37  52 2.37
 214  0.650  0.300  0.390-  58 2.37  53 2.37 106 2.37 119 2.37
 215  0.600  0.950  0.502- 120 2.37  54 2.37 107 2.37  59 2.37
 216  0.900  0.050  0.056-  56 2.37  62 2.37   1 2.37 109 2.37
 217  0.850  0.700  0.167-  63 2.37 110 2.37   2 2.37  57 2.37
 218  0.800  0.350  0.279- 111 2.37   3 2.37  58 2.37  64 2.37
 219  0.750  0.000  0.390-   4 2.37 112 2.37  65 2.37  59 2.37
 220  0.700  0.650  0.502-  66 2.37   5 2.37  60 2.37 113 2.37
 221  0.626  0.151  0.635- 284 2.48 308 2.48 120 2.62
 222  0.459  0.151  0.750- 284 2.48 317 2.48 309 2.48 285 2.48
 223  0.293  0.151  0.865- 285 2.48 286 2.48 310 2.48 318 2.48
 224  0.626  0.484  0.635-  60 2.25 287 2.48 302 2.48
 225  0.459  0.484  0.750- 287 2.48 311 2.48 303 2.48 288 2.48
 226  0.293  0.484  0.865- 288 2.48 289 2.48 304 2.48 312 2.48
 227  0.626  0.818  0.635-  54 2.38 290 2.48 305 2.48
 228  0.459  0.818  0.750- 290 2.48 314 2.48 306 2.48 291 2.48
 229  0.293  0.818  0.865- 307 2.48 315 2.48 291 2.48 292 2.48
 230  0.293  0.151  0.635- 293 2.48 317 2.48  96 2.66
 231  0.126  0.151  0.750- 326 2.48 293 2.48 294 2.48 318 2.48
 232  0.959  0.151  0.865- 294 2.48 319 2.48 295 2.48 327 2.48
 233  0.293  0.484  0.635-  42 2.23 296 2.48 311 2.48
 234  0.126  0.484  0.750- 320 2.48 296 2.48 297 2.48 312 2.48
 235  0.959  0.484  0.865- 297 2.48 313 2.48 298 2.48 321 2.48
 236  0.293  0.818  0.635-  36 2.35 314 2.48 299 2.48
 237  0.126  0.818  0.750- 323 2.48 299 2.48 300 2.48 315 2.48
 238  0.959  0.818  0.865- 316 2.48 300 2.48 324 2.48 301 2.48
 239  0.959  0.151  0.635-  78 1.91 326 2.48 275 2.48
 240  0.793  0.151  0.750- 275 2.48 308 2.48 276 2.48 327 2.48
 241  0.626  0.151  0.865- 277 2.48 309 2.48 276 2.48 328 2.48
 242  0.959  0.484  0.635- 320 2.48 278 2.48  72 2.75
 243  0.793  0.484  0.750- 278 2.48 302 2.48 279 2.48 321 2.48
 244  0.626  0.484  0.865- 280 2.48 303 2.48 279 2.48 322 2.48
 245  0.959  0.818  0.635- 323 2.48 281 2.48  84 2.53
 246  0.793  0.818  0.750- 305 2.48 281 2.48 324 2.48 282 2.48
 247  0.626  0.818  0.865- 306 2.48 283 2.48 325 2.48 282 2.48
 248  0.793  0.318  0.635-   6 2.35 275 2.48 302 2.48
 249  0.626  0.318  0.750- 284 2.48 302 2.48 303 2.48 276 2.48
 250  0.459  0.318  0.865- 277 2.48 303 2.48 285 2.48 304 2.48
 251  0.793  0.651  0.635- 305 2.48 278 2.48  66 2.66
 252  0.626  0.651  0.750- 287 2.48 305 2.48 306 2.48 279 2.48
 253  0.459  0.651  0.865- 306 2.48 280 2.48 307 2.48 288 2.48
 254  0.793  0.984  0.635-  12 2.23 308 2.48 281 2.48
 255  0.626  0.984  0.750- 290 2.48 308 2.48 309 2.48 282 2.48
 256  0.459  0.984  0.865- 309 2.48 283 2.48 310 2.48 291 2.48
 257  0.459  0.318  0.635- 284 2.48 311 2.48 114 2.53
 258  0.293  0.318  0.750- 293 2.48 311 2.48 285 2.48 312 2.48
 259  0.126  0.318  0.865- 294 2.48 313 2.48 286 2.48 312 2.48
 260  0.459  0.651  0.635- 108 1.91 287 2.48 314 2.48
 261  0.293  0.651  0.750- 314 2.48 296 2.48 315 2.48 288 2.48
 262  0.126  0.651  0.865- 316 2.48 297 2.48 315 2.48 289 2.48
 263  0.459  0.984  0.635- 290 2.48 317 2.48 102 2.75
 264  0.293  0.984  0.750- 317 2.48 299 2.48 318 2.48 291 2.48
 265  0.126  0.984  0.865- 319 2.48 300 2.48 318 2.48 292 2.48
 266  0.126  0.318  0.635-  24 2.38 320 2.48 293 2.48
 267  0.959  0.318  0.750- 320 2.48 275 2.48 294 2.48 321 2.48
 268  0.793  0.318  0.865- 276 2.48 295 2.48 321 2.48 322 2.48
 269  0.126  0.651  0.635- 323 2.48 296 2.48  90 2.62
 270  0.959  0.651  0.750- 323 2.48 278 2.48 297 2.48 324 2.48
 271  0.793  0.651  0.865- 324 2.48 325 2.48 279 2.48 298 2.48
 272  0.126  0.984  0.635-  30 2.25 326 2.48 299 2.48
 273  0.959  0.984  0.750- 326 2.48 281 2.48 300 2.48 327 2.48
 274  0.793  0.984  0.865- 327 2.48 328 2.48 282 2.48 301 2.48
 275  0.876  0.234  0.692- 240 2.48 248 2.48 267 2.48 239 2.48
 276  0.709  0.234  0.808- 268 2.48 241 2.48 240 2.48 249 2.48
 277  0.543  0.234  0.923-  37 2.23 250 2.48 241 2.48
 278  0.876  0.568  0.692- 243 2.48 251 2.48 242 2.48 270 2.48
 279  0.709  0.568  0.808- 271 2.48 244 2.48 243 2.48 252 2.48
 280  0.543  0.568  0.923-  31 2.35 244 2.48 253 2.48
 281  0.876  0.901  0.692- 254 2.48 246 2.48 273 2.48 245 2.48
 282  0.709  0.901  0.808- 274 2.48 247 2.48 246 2.48 255 2.48
 283  0.543  0.901  0.923- 256 2.48 247 2.48  91 2.66
 284  0.543  0.234  0.692- 249 2.48 222 2.48 257 2.48 221 2.48
 285  0.376  0.234  0.808- 223 2.48 250 2.48 258 2.48 222 2.48
 286  0.209  0.234  0.923- 223 2.48 259 2.48  67 2.75
 287  0.543  0.568  0.692- 225 2.48 224 2.48 252 2.48 260 2.48
 288  0.376  0.568  0.808- 226 2.48 253 2.48 261 2.48 225 2.48
 289  0.209  0.568  0.923- 226 2.48 262 2.48  79 2.53
 290  0.543  0.901  0.692- 255 2.48 263 2.48 228 2.48 227 2.48
 291  0.376  0.901  0.808- 229 2.48 256 2.48 264 2.48 228 2.48
 292  0.209  0.901  0.923-  73 1.91 229 2.48 265 2.48
 293  0.209  0.234  0.692- 258 2.48 230 2.48 231 2.48 266 2.48
 294  0.043  0.234  0.808- 259 2.48 232 2.48 267 2.48 231 2.48
 295  0.876  0.234  0.923-  55 2.25 268 2.48 232 2.48
 296  0.209  0.568  0.692- 233 2.48 261 2.48 234 2.48 269 2.48
 297  0.043  0.568  0.808- 235 2.48 262 2.48 234 2.48 270 2.48
 298  0.876  0.568  0.923-  49 2.38 271 2.48 235 2.48
 299  0.209  0.901  0.692- 264 2.48 236 2.48 272 2.48 237 2.48
 300  0.043  0.901  0.808- 265 2.48 238 2.48 273 2.48 237 2.48
 301  0.876  0.901  0.923- 274 2.48 238 2.48 115 2.62
 302  0.709  0.401  0.692- 243 2.48 248 2.48 224 2.48 249 2.48
 303  0.543  0.401  0.808- 244 2.48 250 2.48 225 2.48 249 2.48
 304  0.376  0.401  0.923- 226 2.48 250 2.48  85 2.62
 305  0.709  0.734  0.692- 246 2.48 251 2.48 252 2.48 227 2.48
 306  0.543  0.734  0.808- 247 2.48 253 2.48 228 2.48 252 2.48
 307  0.376  0.734  0.923-  25 2.25 229 2.48 253 2.48
 308  0.709  0.068  0.692- 254 2.48 240 2.48 255 2.48 221 2.48
 309  0.543  0.068  0.808- 256 2.48 241 2.48 255 2.48 222 2.48
 310  0.376  0.068  0.923-  19 2.38 223 2.48 256 2.48
 311  0.376  0.401  0.692- 233 2.48 258 2.48 225 2.48 257 2.48
 312  0.209  0.401  0.808- 226 2.48 259 2.48 258 2.48 234 2.48
 313  0.043  0.401  0.923- 235 2.48 259 2.48  61 2.66
 314  0.376  0.734  0.692- 261 2.48 236 2.48 228 2.48 260 2.48
 315  0.209  0.734  0.808- 229 2.48 262 2.48 261 2.48 237 2.48
 316  0.043  0.734  0.923-   7 2.23 238 2.48 262 2.48
 317  0.376  0.068  0.692- 264 2.48 230 2.48 263 2.48 222 2.48
 318  0.209  0.068  0.808- 223 2.48 265 2.48 264 2.48 231 2.48
 319  0.043  0.068  0.923-   1 2.35 265 2.48 232 2.48
 320  0.043  0.401  0.692- 234 2.48 242 2.48 267 2.48 266 2.48
 321  0.876  0.401  0.808- 268 2.48 235 2.48 243 2.48 267 2.48
 322  0.709  0.401  0.923- 103 1.91 268 2.48 244 2.48
 323  0.043  0.734  0.692- 237 2.48 270 2.48 245 2.48 269 2.48
 324  0.876  0.734  0.808- 271 2.48 238 2.48 246 2.48 270 2.48
 325  0.709  0.734  0.923- 271 2.48 247 2.48  97 2.75
 326  0.043  0.068  0.692- 273 2.48 272 2.48 231 2.48 239 2.48
 327  0.876  0.068  0.808- 274 2.48 232 2.48 240 2.48 273 2.48
 328  0.709  0.068  0.923- 274 2.48 241 2.48 109 2.53
 
  LATTYP: Found a simple tetragonal cell.
 ALAT       =    17.3292815780
 C/A-ratio  =     1.4181199543
  
  Lattice vectors:
  
 A1 = (  17.3292815780,   0.0000000000,   0.0000000000)
 A2 = (   0.0000000000,  17.3292815780,   0.0000000000)
 A3 = (   0.0000000000,   0.0000000000,  24.5750000000)


Analysis of symmetry for initial positions (statically):
=====================================================================
 Subroutine PRICEL returns following result:
 
  LATTYP: Found a simple tetragonal cell.
 ALAT       =    12.2536525169
 C/A-ratio  =     2.0055244725
  
  Lattice vectors:
  
 A1 = (   8.6646407890,  -8.6646407890,   0.0000000000)
 A2 = (   8.6646407890,   8.6646407890,   0.0000000000)
 A3 = (   0.0000000000,   0.0000000000,  24.5750000000)
 
   2 primitive cells build up your supercell.
 

 Routine SETGRP: Setting up the symmetry group for a 
 simple tetragonal supercell.


 Subroutine GETGRP returns: Found  1 space group operations
 (whereof  1 operations were pure point group operations)
 out of a pool of 16 trial point group operations.


The static configuration has the point symmetry C_1 .


Analysis of symmetry for dynamics (positions and initial velocities):
=====================================================================
 Subroutine PRICEL returns following result:
 
  LATTYP: Found a simple tetragonal cell.
 ALAT       =    12.2536525169
 C/A-ratio  =     2.0055244725
  
  Lattice vectors:
  
 A1 = (   8.6646407890,  -8.6646407890,   0.0000000000)
 A2 = (   8.6646407890,   8.6646407890,   0.0000000000)
 A3 = (   0.0000000000,   0.0000000000,  24.5750000000)
 
   2 primitive cells build up your supercell.
 

 Routine SETGRP: Setting up the symmetry group for a 
 simple tetragonal supercell.


 Subroutine GETGRP returns: Found  1 space group operations
 (whereof  1 operations were pure point group operations)
 out of a pool of 16 trial point group operations.


The dynamic configuration has the point symmetry C_1 .


Analysis of structural, dynamic, and magnetic symmetry:
=====================================================================
 Subroutine PRICEL returns following result:
 
  LATTYP: Found a simple tetragonal cell.
 ALAT       =    12.2536525169
 C/A-ratio  =     2.0055244725
  
  Lattice vectors:
  
 A1 = (   8.6646407890,  -8.6646407890,   0.0000000000)
 A2 = (   8.6646407890,   8.6646407890,   0.0000000000)
 A3 = (   0.0000000000,   0.0000000000,  24.5750000000)
 
   2 primitive cells build up your supercell.
 

 Routine SETGRP: Setting up the symmetry group for a 
 simple tetragonal supercell.


 Subroutine GETGRP returns: Found  1 space group operations
 (whereof  1 operations were pure point group operations)
 out of a pool of 16 trial point group operations.


The overall configuration has the point symmetry C_1 .


 Subroutine INISYM returns: Found  1 space group operations
 (whereof  1 operations are pure point group operations),
 and found     2 'primitive' translations


----------------------------------------------------------------------------------------

                                     Primitive cell                                     

  volume of cell :    3689.9854

  direct lattice vectors                    reciprocal lattice vectors
     8.664640789 -8.664640789  0.000000000     0.057705797 -0.057705797  0.000000000
     8.664640789  8.664640789  0.000000000     0.057705797  0.057705797  0.000000000
     0.000000000  0.000000000 24.575000000     0.000000000  0.000000000  0.040691760

  length of vectors
    12.253652517 12.253652517 24.575000000     0.081608320  0.081608320  0.040691760

  position of ions in fractional coordinates (direct lattice)
     0.000000000  0.000000000  0.000000000
     0.300000000  0.600000000  0.111495422
     0.600000000  0.200000000  0.222990844
     0.900000000  0.800000000  0.334486267
     0.200000000  0.400000000  0.445981689
     0.500000000  0.000000000  0.557477111
     0.400000000  0.800000000  0.000000000
     0.700000000  0.400000000  0.111495422
     0.000000000  0.000000000  0.222990844
     0.300000000  0.600000000  0.334486267
     0.600000000  0.200000000  0.445981689
     0.900000000  0.800000000  0.557477111
     0.800000000  0.600000000  0.000000000
     0.100000000  0.200000000  0.111495422
     0.400000000  0.800000000  0.222990844
     0.700000000  0.400000000  0.334486267
     0.000000000  0.000000000  0.445981689
     0.300000000  0.600000000  0.557477111
     0.200000000  0.400000000  0.000000000
     0.500000000  0.000000000  0.111495422
     0.800000000  0.600000000  0.222990844
     0.100000000  0.200000000  0.334486267
     0.400000000  0.800000000  0.445981689
     0.700000000  0.400000000  0.557477111
     0.600000000  0.200000000  0.000000000
     0.900000000  0.800000000  0.111495422
     0.200000000  0.400000000  0.222990844
     0.500000000  0.000000000  0.334486267
     0.800000000  0.600000000  0.445981689
     0.100000000  0.200000000  0.557477111
     0.500000000  0.500000000  0.000000000
     0.800000000  0.100000000  0.111495422
     0.100000000  0.700000000  0.222990844
     0.400000000  0.300000000  0.334486267
     0.700000000  0.900000000  0.445981689
     0.000000000  0.500000000  0.557477111
     0.900000000  0.300000000  0.000000000
     0.200000000  0.900000000  0.111495422
     0.500000000  0.500000000  0.222990844
     0.800000000  0.100000000  0.334486267
     0.100000000  0.700000000  0.445981689
     0.400000000  0.300000000  0.557477111
     0.300000000  0.100000000  0.000000000
     0.600000000  0.700000000  0.111495422
     0.900000000  0.300000000  0.222990844
     0.200000000  0.900000000  0.334486267
     0.500000000  0.500000000  0.445981689
     0.800000000  0.100000000  0.557477111
     0.700000000  0.900000000  0.000000000
     0.000000000  0.500000000  0.111495422
     0.300000000  0.100000000  0.222990844
     0.600000000  0.700000000  0.334486267
     0.900000000  0.300000000  0.445981689
     0.200000000  0.900000000  0.557477111
     0.100000000  0.700000000  0.000000000
     0.400000000  0.300000000  0.111495422
     0.700000000  0.900000000  0.222990844
     0.000000000  0.500000000  0.334486267
     0.300000000  0.100000000  0.445981689
     0.600000000  0.700000000  0.557477111
     0.750000000  0.250000000  0.055747711
     0.050000000  0.850000000  0.167243133
     0.350000000  0.450000000  0.278738555
     0.650000000  0.050000000  0.390233978
     0.950000000  0.650000000  0.501729400
     0.150000000  0.050000000  0.055747711
     0.450000000  0.650000000  0.167243133
     0.750000000  0.250000000  0.278738555
     0.050000000  0.850000000  0.390233978
     0.350000000  0.450000000  0.501729400
     0.550000000  0.850000000  0.055747711
     0.850000000  0.450000000  0.167243133
     0.150000000  0.050000000  0.278738555
     0.450000000  0.650000000  0.390233978
     0.750000000  0.250000000  0.501729400
     0.950000000  0.650000000  0.055747711
     0.250000000  0.250000000  0.167243133
     0.550000000  0.850000000  0.278738555
     0.850000000  0.450000000  0.390233978
     0.150000000  0.050000000  0.501729400
     0.350000000  0.450000000  0.055747711
     0.650000000  0.050000000  0.167243133
     0.950000000  0.650000000  0.278738555
     0.250000000  0.250000000  0.390233978
     0.550000000  0.850000000  0.501729400
     0.250000000  0.750000000  0.055747711
     0.550000000  0.350000000  0.167243133
     0.850000000  0.950000000  0.278738555
     0.150000000  0.550000000  0.390233978
     0.450000000  0.150000000  0.501729400
     0.650000000  0.550000000  0.055747711
     0.950000000  0.150000000  0.167243133
     0.250000000  0.750000000  0.278738555
     0.550000000  0.350000000  0.390233978
     0.850000000  0.950000000  0.501729400
     0.050000000  0.350000000  0.055747711
     0.350000000  0.950000000  0.167243133
     0.650000000  0.550000000  0.278738555
     0.950000000  0.150000000  0.390233978
     0.250000000  0.750000000  0.501729400
     0.450000000  0.150000000  0.055747711
     0.750000000  0.750000000  0.167243133
     0.050000000  0.350000000  0.278738555
     0.350000000  0.950000000  0.390233978
     0.650000000  0.550000000  0.501729400
     0.850000000  0.950000000  0.055747711
     0.150000000  0.550000000  0.167243133
     0.450000000  0.150000000  0.278738555
     0.750000000  0.750000000  0.390233978
     0.050000000  0.350000000  0.501729400
     0.474806201  0.777131783  0.634791455
     0.308139535  0.610465117  0.749949135
     0.141472868  0.443798450  0.865106816
     0.141472868  0.110465116  0.634791455
     0.974806202  0.943798450  0.749949135
     0.808139535  0.777131783  0.865106816
     0.808139535  0.443798449  0.634791455
     0.641472869  0.277131783  0.749949135
     0.474806202  0.110465116  0.865106816
     0.141472868  0.443798450  0.634791455
     0.974806201  0.277131783  0.749949135
     0.808139535  0.110465117  0.865106816
     0.808139535  0.777131783  0.634791455
     0.641472868  0.610465116  0.749949135
     0.474806202  0.443798450  0.865106816
     0.474806202  0.110465116  0.634791455
     0.308139535  0.943798449  0.749949135
     0.141472869  0.777131783  0.865106816
     0.808139535  0.110465117  0.634791455
     0.641472868  0.943798450  0.749949135
     0.474806201  0.777131783  0.865106816
     0.474806202  0.443798450  0.634791455
     0.308139535  0.277131783  0.749949135
     0.141472868  0.110465116  0.865106816
     0.141472869  0.777131783  0.634791455
     0.974806202  0.610465116  0.749949135
     0.808139535  0.443798449  0.865106816
     0.641472868  0.110465116  0.692370295
     0.474806202  0.943798450  0.807527976
     0.308139535  0.777131783  0.922685656
     0.308139535  0.443798449  0.692370295
     0.141472869  0.277131783  0.807527976
     0.974806202  0.110465116  0.922685656
     0.974806201  0.777131783  0.692370295
     0.808139535  0.610465117  0.807527976
     0.641472868  0.443798450  0.922685656
     0.308139535  0.777131783  0.692370295
     0.141472868  0.610465116  0.807527976
     0.974806202  0.443798450  0.922685656
     0.974806202  0.110465116  0.692370295
     0.808139535  0.943798449  0.807527976
     0.641472869  0.777131783  0.922685656
     0.641472868  0.443798450  0.692370295
     0.474806201  0.277131783  0.807527976
     0.308139535  0.110465117  0.922685656
     0.974806202  0.443798450  0.692370295
     0.808139535  0.277131783  0.807527976
     0.641472868  0.110465116  0.922685656
     0.641472869  0.777131783  0.692370295
     0.474806202  0.610465116  0.807527976
     0.308139535  0.443798449  0.922685656
     0.308139535  0.110465117  0.692370295
     0.141472868  0.943798450  0.807527976
     0.974806201  0.777131783  0.922685656

  ion indices of the primitive-cell ions
   primitive index   ion index
                 1           1
                 2           2
                 3           3
                 4           4
                 5          35
                 6           6
                 7           7
                 8           8
                 9           9
                10          10
                11          11
                12          12
                13          43
                14          14
                15          15
                16          16
                17          17
                18          18
                19          19
                20          20
                21          51
                22          22
                23          23
                24          24
                25          55
                26          56
                27          27
                28          28
                29          59
                30          30
                31          61
                32          62
                33          63
                34          94
                35          65
                36          66
                37          67
                38          68
                39          69
                40          70
                41          71
                42         102
                43          73
                44         104
                45          75
                46          76
                47          77
                48          78
                49         109
                50          80
                51          81
                52         112
                53          83
                54          84
                55         115
                56          86
                57         117
                58          88
                59          89
                60         120
                61         121
                62         122
                63         148
                64         124
                65         125
                66         126
                67         127
                68         128
                69         129
                70         155
                71         156
                72         132
                73         133
                74         134
                75         135
                76         161
                77         137
                78         163
                79         139
                80         140
                81         141
                82         167
                83         168
                84         144
                85         170
                86         171
                87         172
                88         173
                89         174
                90         200
                91         201
                92         177
                93         178
                94         179
                95         180
                96         181
                97         182
                98         208
                99         184
               100         185
               101         186
               102         212
               103         188
               104         189
               105         215
               106         216
               107         217
               108         193
               109         219
               110         195
               111         269
               112         270
               113         223
               114         272
               115         273
               116         274
               117         266
               118         267
               119         229
               120         230
               121         231
               122         232
               123         254
               124         255
               125         256
               126         236
               127         237
               128         238
               129         239
               130         240
               131         262
               132         263
               133         264
               134         265
               135         245
               136         246
               137         259
               138         275
               139         315
               140         316
               141         317
               142         318
               143         319
               144         281
               145         282
               146         313
               147         323
               148         324
               149         286
               150         326
               151         327
               152         328
               153         320
               154         291
               155         292
               156         293
               157         294
               158         295
               159         308
               160         297
               161         310
               162         299
               163         300
               164         301

----------------------------------------------------------------------------------------

 
 
 KPOINTS: Automatic KPOINTS generated             

Automatic generation of k-mesh.
 Grid dimensions read from file:
 generate k-points for:    2    2    1

 Generating k-lattice:

  Cartesian coordinates                     Fractional coordinates (reciprocal lattice)
     0.028852898  0.000000000  0.000000000     0.500000000  0.000000000  0.000000000
     0.000000000  0.028852898  0.000000000     0.000000000  0.500000000  0.000000000
     0.000000000  0.000000000  0.040691760     0.000000000  0.000000000  1.000000000

  Length of vectors
     0.028852898  0.028852898  0.040691760

  Shift w.r.t. Gamma in fractional coordinates (k-lattice)
     0.000000000  0.000000000  0.000000000

 
 Subroutine IBZKPT returns following result:
 ===========================================
 
 Found      4 irreducible k-points:
 
 Following reciprocal coordinates:
            Coordinates               Weight
  0.000000  0.000000  0.000000      1.000000
  0.500000  0.000000  0.000000      1.000000
  0.000000  0.500000  0.000000      1.000000
  0.500000  0.500000  0.000000      1.000000
 
 Following cartesian coordinates:
            Coordinates               Weight
  0.000000  0.000000  0.000000      1.000000
  0.028853  0.000000  0.000000      1.000000
  0.000000  0.028853  0.000000      1.000000
  0.028853  0.028853  0.000000      1.000000
 


--------------------------------------------------------------------------------------------------------




 Dimension of arrays:
   k-points           NKPTS =      4   k-points in BZ     NKDIM =      4   number of bands    NBANDS=    788
   number of dos      NEDOS =    301   number of ions     NIONS =    328
   non local maximal  LDIM  =      5   non local SUM 2l+1 LMDIM =     13
   total plane-waves  NPLWV = ******
   max r-space proj   IRMAX =   2254   max aug-charges    IRDMAX= 118434
   dimension x,y,z NGX =   112 NGY =  112 NGZ =  160
   dimension x,y,z NGXF=   224 NGYF=  224 NGZF=  320
   support grid    NGXF=   448 NGYF=  448 NGZF=  640
   ions per type =             220 108
   NGX,Y,Z   is equivalent  to a cutoff of  10.74, 10.74, 10.82 a.u.
   NGXF,Y,Z  is equivalent  to a cutoff of  21.49, 21.49, 21.65 a.u.

 SYSTEM =  Si001 and Ge001 interface calculation   
 POSCAR =  fcc Si+fcc Ge                           

 Startparameter for this run:
   NWRITE =      2    write-flag & timer
   PREC   = normal    normal or accurate (medium, high low for compatibility)
   ISTART =      0    job   : 0-new  1-cont  2-samecut
   ICHARG =      2    charge: 1-file 2-atom 10-const
   ISPIN  =      2    spin polarized calculation?
   LNONCOLLINEAR =      F non collinear calculations
   LSORBIT =      F    spin-orbit coupling
   INIWAV =      1    electr: 0-lowe 1-rand  2-diag
   LASPH  =      T    aspherical Exc in radial PAW
 Electronic Relaxation 1
   ENCUT  =  700.0 eV  51.45 Ry    7.17 a.u.  37.38 37.38 53.02*2*pi/ulx,y,z
   ENINI  =  700.0     initial cutoff
   ENAUG  =  900.0 eV  augmentation charge cutoff
   NELM   =    100;   NELMIN=  2; NELMDL= -5     # of ELM steps 
   EDIFF  = 0.1E-06   stopping-criterion for ELM
   LREAL  =      T    real-space projection
   NLSPLINE    = F    spline interpolate recip. space projectors
   LCOMPAT=      F    compatible to vasp.4.4
   GGA_COMPAT  = T    GGA compatible to vasp.4.4-vasp.4.6
   LMAXPAW     = -100 max onsite density
   LMAXMIX     =    6 max onsite mixed and CHGCAR
   VOSKOWN=      0    Vosko Wilk Nusair interpolation
   ROPT   =   -0.00050  -0.00050
 Ionic relaxation
   EDIFFG = 0.1E-05   stopping-criterion for IOM
   NSW    =      0    number of steps for IOM
   NBLOCK =      1;   KBLOCK =      1    inner block; outer block 
   IBRION =     -1    ionic relax: 0-MD 1-quasi-New 2-CG
   NFREE  =      0    steps in history (QN), initial steepest desc. (CG)
   ISIF   =      2    stress and relaxation
   IWAVPR =     10    prediction:  0-non 1-charg 2-wave 3-comb
   ISYM   =      2    0-nonsym 1-usesym 2-fastsym
   LCORR  =      T    Harris-Foulkes like correction to forces

   POTIM  = 0.5000    time-step for ionic-motion
   TEIN   =    0.0    initial temperature
   TEBEG  =    0.0;   TEEND  =   0.0 temperature during run
   SMASS  =  -3.00    Nose mass-parameter (am)
   estimated Nose-frequenzy (Omega)   =  0.10E-29 period in steps = 0.13E+47 mass=  -0.686E-26a.u.
   SCALEE = 1.0000    scale energy and forces
   NPACO  =    256;   APACO  = 10.0  distance and # of slots for P.C.
   PSTRESS=    0.0 pullay stress

  Mass of Ions in am
   POMASS =  28.09 72.61
  Ionic Valenz
   ZVAL   =   4.00  4.00
  Atomic Wigner-Seitz radii
   RWIGS  =  -1.00 -1.00
  virtual crystal weights 
   VCA    =   1.00  1.00
   NELECT =    1312.0000    total number of electrons
   NUPDOWN=       1.0000    fix difference up-down

 DOS related values:
   EMIN   =  10.00;   EMAX   =-10.00  energy-range for DOS
   EFERMI =   0.00;   METHOD = LEGACY      
   ISMEAR =     0;   SIGMA  =   0.01  broadening in eV -4-tet -1-fermi 0-gaus

 Electronic relaxation 2 (details)
   IALGO  =     38    algorithm
   LDIAG  =      T    sub-space diagonalisation (order eigenvalues)
   LSUBROT=      F    optimize rotation matrix (better conditioning)
   TURBO    =      0    0=normal 1=particle mesh
   IRESTART =      0    0=no restart 2=restart with 2 vectors
   NREBOOT  =      0    no. of reboots
   NMIN     =      0    reboot dimension
   EREF     =   0.00    reference energy to select bands
   IMIX   =      4    mixing-type and parameters
     AMIX     =   0.60;   BMIX     =  1.00
     AMIX_MAG =   2.40;   BMIX_MAG =  1.00
     AMIN     =   0.10
     WC   =   100.;   INIMIX=   1;  MIXPRE=   1;  MAXMIX= -45

 Intra band minimization:
   WEIMIN = 0.0000     energy-eigenvalue tresh-hold
   EBREAK =  0.32E-10  absolut break condition
   DEPER  =   0.30     relativ break condition  

   TIME   =   0.40     timestep for ELM

  volume/ion in A,a.u.               =      22.50       151.84
  Fermi-wavevector in a.u.,A,eV,Ry     =   0.920523  1.739536 11.529064  0.847362
  Thomas-Fermi vector in A             =   2.045838
 
 Write flags
   LWAVE        =      F    write WAVECAR
   LDOWNSAMPLE  =      F    k-point downsampling of WAVECAR
   LCHARG       =      T    write CHGCAR
   LVTOT        =      F    write LOCPOT, total local potential
   LVHAR        =      T    write LOCPOT, Hartree potential only
   WRT_POTENTIAL=  hartree ionic  ! write potential to hdf5 file
   LELF         =      F    write electronic localiz. function (ELF)
   LORBIT       =      0    0 simple, 1 ext, 2 COOP (PROOUT), +10 PAW based schemes


 Dipole corrections
   LMONO      =      F    monopole corrections only (constant potential shift)
   LDIPOL     =      F    correct potential (dipole corrections)
   IDIPOL     =      0    1-x, 2-y, 3-z, 4-all directions 
   EPSILON    =  1.0000000 bulk dielectric constant
   LVACPOTAV  =      F  vacuum potentials using an averaging scheme for the charge density
   VACPOTFLAT =  0.1000000 required flatness to determine vacuum potential
 Exchange correlation treatment:
   GGA     = PE    functional components
   XC_C    = 1    coefficients multiplying the functional components
   LIBXC   =     F    Libxc                    
   VOSKOWN =     0    Vosko Wilk Nusair interpolation
   LHFCALC =     F    Hartree Fock is set to
   LHFONE  =     F    Hartree Fock one center treatment
   AEXX    =    0.0000 exact exchange contribution

 Parameters of functionals:
   PE:
     No parameter
 
 Van der Waals corrections
   IVDW    =     0    specifies the selected vdW correction

 Linear response parameters
   LEPSILON=     F    determine dielectric tensor
   LRPA    =     F    only Hartree local field effects (RPA)
   LNABLA  =     F    use nabla operator in PAW spheres
   LVEL    =     F    velocity operator in full k-point grid
   CSHIFT  =0.1000    complex shift for real part using Kramers Kronig
   OMEGAMAX=  -1.0    maximum frequency
   DEG_THRESHOLD= 0.2000000E-02 threshold for treating states as degnerate
   RTIME   =   -0.100 relaxation time in fs
  (WPLASMAI=    0.000 imaginary part of plasma frequency in eV, 0.658/RTIME)
   DFIELD  = 0.0000000 0.0000000 0.0000000 field for delta impulse in time
 
  Optional k-point grid parameters
   LKPOINTS_OPT  =     F    use optional k-point grid
   KPOINTS_OPT_MODE=     1    mode for optional k-point grid
 
 Orbital magnetization related:
   ORBITALMAG=     F  switch on orbital magnetization
   LCHIMAG   =     F  perturbation theory with respect to B field
   DQ        =  0.001000  dq finite difference perturbation B field
   LLRAUG    =     F  two centre corrections for induced B field
   LBONE     =     F  B-component reconstruction in AE one-centre
   LVGVCALC  =     T  calculate vGv susceptibility
   LVGVAPPL  =     F  apply vGv susceptibility instead of pGv for G=0

 Random number generation:
   RANDOM_GENERATOR = DEFAULT
   PCG_SEED         = not used


--------------------------------------------------------------------------------------------------------


 Static calculation
 charge density and potential will be updated during run
 spin polarized calculation
 Variant of blocked Davidson
 Davidson routine will perform the subspace rotation
 perform sub-space diagonalisation
    after iterative eigenvector-optimisation
 modified Broyden-mixing scheme, WC =      100.0
 initial mixing is a Kerker type mixing with AMIX =  0.6000 and BMIX =      1.0000
 Hartree-type preconditioning will be used
 using additional bands          132
 real space projection scheme for non local part
 use partial core corrections
 calculate Harris-corrections to forces 
   (improved forces if not selfconsistent)
 use gradient corrections 
 use of overlap-Matrix (Vanderbilt PP)
 Gauss-broadening in eV      SIGMA  =   0.01


--------------------------------------------------------------------------------------------------------


  energy-cutoff  :      700.00
  volume of cell :     7379.97
      direct lattice vectors                 reciprocal lattice vectors
    17.329281578  0.000000000  0.000000000     0.057705797  0.000000000  0.000000000
     0.000000000 17.329281578  0.000000000     0.000000000  0.057705797  0.000000000
     0.000000000  0.000000000 24.575000000     0.000000000  0.000000000  0.040691760

  length of vectors
    17.329281578 17.329281578 24.575000000     0.057705797  0.057705797  0.040691760


 
 k-points in units of 2pi/SCALE and weight: Automatic KPOINTS generated             
   0.00000000  0.00000000  0.00000000       0.250
   0.02885290  0.00000000  0.00000000       0.250
   0.00000000  0.02885290  0.00000000       0.250
   0.02885290  0.02885290  0.00000000       0.250
 
 k-points in reciprocal lattice and weights: Automatic KPOINTS generated             
   0.00000000  0.00000000  0.00000000       0.250
   0.50000000  0.00000000  0.00000000       0.250
   0.00000000  0.50000000  0.00000000       0.250
   0.50000000  0.50000000  0.00000000       0.250
 
 position of ions in fractional coordinates (direct lattice) 
   0.00000000  0.00000000  0.00000000
   0.95000000  0.65000000  0.11149542
   0.90000000  0.30000000  0.22299084
   0.85000000  0.95000000  0.33448627
   0.80000000  0.60000000  0.44598169
   0.75000000  0.25000000  0.55747711
   0.10000000  0.70000000  0.00000000
   0.05000000  0.35000000  0.11149542
   0.00000000  0.00000000  0.22299084
   0.95000000  0.65000000  0.33448627
   0.90000000  0.30000000  0.44598169
   0.85000000  0.95000000  0.55747711
   0.20000000  0.40000000  0.00000000
   0.15000000  0.05000000  0.11149542
   0.10000000  0.70000000  0.22299084
   0.05000000  0.35000000  0.33448627
   0.00000000  0.00000000  0.44598169
   0.95000000  0.65000000  0.55747711
   0.30000000  0.10000000  0.00000000
   0.25000000  0.75000000  0.11149542
   0.20000000  0.40000000  0.22299084
   0.15000000  0.05000000  0.33448627
   0.10000000  0.70000000  0.44598169
   0.05000000  0.35000000  0.55747711
   0.40000000  0.80000000  0.00000000
   0.35000000  0.45000000  0.11149542
   0.30000000  0.10000000  0.22299084
   0.25000000  0.75000000  0.33448627
   0.20000000  0.40000000  0.44598169
   0.15000000  0.05000000  0.55747711
   0.50000000  0.50000000  0.00000000
   0.45000000  0.15000000  0.11149542
   0.40000000  0.80000000  0.22299084
   0.35000000  0.45000000  0.33448627
   0.30000000  0.10000000  0.44598169
   0.25000000  0.75000000  0.55747711
   0.60000000  0.20000000  0.00000000
   0.55000000  0.85000000  0.11149542
   0.50000000  0.50000000  0.22299084
   0.45000000  0.15000000  0.33448627
   0.40000000  0.80000000  0.44598169
   0.35000000  0.45000000  0.55747711
   0.70000000  0.90000000  0.00000000
   0.65000000  0.55000000  0.11149542
   0.60000000  0.20000000  0.22299084
   0.55000000  0.85000000  0.33448627
   0.50000000  0.50000000  0.44598169
   0.45000000  0.15000000  0.55747711
   0.80000000  0.60000000  0.00000000
   0.75000000  0.25000000  0.11149542
   0.70000000  0.90000000  0.22299084
   0.65000000  0.55000000  0.33448627
   0.60000000  0.20000000  0.44598169
   0.55000000  0.85000000  0.55747711
   0.90000000  0.30000000  0.00000000
   0.85000000  0.95000000  0.11149542
   0.80000000  0.60000000  0.22299084
   0.75000000  0.25000000  0.33448627
   0.70000000  0.90000000  0.44598169
   0.65000000  0.55000000  0.55747711
   0.00000000  0.50000000  0.00000000
   0.95000000  0.15000000  0.11149542
   0.90000000  0.80000000  0.22299084
   0.85000000  0.45000000  0.33448627
   0.80000000  0.10000000  0.44598169
   0.75000000  0.75000000  0.55747711
   0.10000000  0.20000000  0.00000000
   0.05000000  0.85000000  0.11149542
   0.00000000  0.50000000  0.22299084
   0.95000000  0.15000000  0.33448627
   0.90000000  0.80000000  0.44598169
   0.85000000  0.45000000  0.55747711
   0.20000000  0.90000000  0.00000000
   0.15000000  0.55000000  0.11149542
   0.10000000  0.20000000  0.22299084
   0.05000000  0.85000000  0.33448627
   0.00000000  0.50000000  0.44598169
   0.95000000  0.15000000  0.55747711
   0.30000000  0.60000000  0.00000000
   0.25000000  0.25000000  0.11149542
   0.20000000  0.90000000  0.22299084
   0.15000000  0.55000000  0.33448627
   0.10000000  0.20000000  0.44598169
   0.05000000  0.85000000  0.55747711
   0.40000000  0.30000000  0.00000000
   0.35000000  0.95000000  0.11149542
   0.30000000  0.60000000  0.22299084
   0.25000000  0.25000000  0.33448627
   0.20000000  0.90000000  0.44598169
   0.15000000  0.55000000  0.55747711
   0.50000000  0.00000000  0.00000000
   0.45000000  0.65000000  0.11149542
   0.40000000  0.30000000  0.22299084
   0.35000000  0.95000000  0.33448627
   0.30000000  0.60000000  0.44598169
   0.25000000  0.25000000  0.55747711
   0.60000000  0.70000000  0.00000000
   0.55000000  0.35000000  0.11149542
   0.50000000  0.00000000  0.22299084
   0.45000000  0.65000000  0.33448627
   0.40000000  0.30000000  0.44598169
   0.35000000  0.95000000  0.55747711
   0.70000000  0.40000000  0.00000000
   0.65000000  0.05000000  0.11149542
   0.60000000  0.70000000  0.22299084
   0.55000000  0.35000000  0.33448627
   0.50000000  0.00000000  0.44598169
   0.45000000  0.65000000  0.55747711
   0.80000000  0.10000000  0.00000000
   0.75000000  0.75000000  0.11149542
   0.70000000  0.40000000  0.22299084
   0.65000000  0.05000000  0.33448627
   0.60000000  0.70000000  0.44598169
   0.55000000  0.35000000  0.55747711
   0.90000000  0.80000000  0.00000000
   0.85000000  0.45000000  0.11149542
   0.80000000  0.10000000  0.22299084
   0.75000000  0.75000000  0.33448627
   0.70000000  0.40000000  0.44598169
   0.65000000  0.05000000  0.55747711
   0.00000000  0.25000000  0.05574771
   0.95000000  0.90000000  0.16724313
   0.90000000  0.55000000  0.27873855
   0.85000000  0.20000000  0.39023398
   0.80000000  0.85000000  0.50172940
   0.10000000  0.95000000  0.05574771
   0.05000000  0.60000000  0.16724313
   0.00000000  0.25000000  0.27873855
   0.95000000  0.90000000  0.39023398
   0.90000000  0.55000000  0.50172940
   0.20000000  0.65000000  0.05574771
   0.15000000  0.30000000  0.16724313
   0.10000000  0.95000000  0.27873855
   0.05000000  0.60000000  0.39023398
   0.00000000  0.25000000  0.50172940
   0.30000000  0.35000000  0.05574771
   0.25000000  0.00000000  0.16724313
   0.20000000  0.65000000  0.27873855
   0.15000000  0.30000000  0.39023398
   0.10000000  0.95000000  0.50172940
   0.40000000  0.05000000  0.05574771
   0.35000000  0.70000000  0.16724313
   0.30000000  0.35000000  0.27873855
   0.25000000  0.00000000  0.39023398
   0.20000000  0.65000000  0.50172940
   0.50000000  0.75000000  0.05574771
   0.45000000  0.40000000  0.16724313
   0.40000000  0.05000000  0.27873855
   0.35000000  0.70000000  0.39023398
   0.30000000  0.35000000  0.50172940
   0.60000000  0.45000000  0.05574771
   0.55000000  0.10000000  0.16724313
   0.50000000  0.75000000  0.27873855
   0.45000000  0.40000000  0.39023398
   0.40000000  0.05000000  0.50172940
   0.70000000  0.15000000  0.05574771
   0.65000000  0.80000000  0.16724313
   0.60000000  0.45000000  0.27873855
   0.55000000  0.10000000  0.39023398
   0.50000000  0.75000000  0.50172940
   0.80000000  0.85000000  0.05574771
   0.75000000  0.50000000  0.16724313
   0.70000000  0.15000000  0.27873855
   0.65000000  0.80000000  0.39023398
   0.60000000  0.45000000  0.50172940
   0.90000000  0.55000000  0.05574771
   0.85000000  0.20000000  0.16724313
   0.80000000  0.85000000  0.27873855
   0.75000000  0.50000000  0.39023398
   0.70000000  0.15000000  0.50172940
   0.00000000  0.75000000  0.05574771
   0.95000000  0.40000000  0.16724313
   0.90000000  0.05000000  0.27873855
   0.85000000  0.70000000  0.39023398
   0.80000000  0.35000000  0.50172940
   0.10000000  0.45000000  0.05574771
   0.05000000  0.10000000  0.16724313
   0.00000000  0.75000000  0.27873855
   0.95000000  0.40000000  0.39023398
   0.90000000  0.05000000  0.50172940
   0.20000000  0.15000000  0.05574771
   0.15000000  0.80000000  0.16724313
   0.10000000  0.45000000  0.27873855
   0.05000000  0.10000000  0.39023398
   0.00000000  0.75000000  0.50172940
   0.30000000  0.85000000  0.05574771
   0.25000000  0.50000000  0.16724313
   0.20000000  0.15000000  0.27873855
   0.15000000  0.80000000  0.39023398
   0.10000000  0.45000000  0.50172940
   0.40000000  0.55000000  0.05574771
   0.35000000  0.20000000  0.16724313
   0.30000000  0.85000000  0.27873855
   0.25000000  0.50000000  0.39023398
   0.20000000  0.15000000  0.50172940
   0.50000000  0.25000000  0.05574771
   0.45000000  0.90000000  0.16724313
   0.40000000  0.55000000  0.27873855
   0.35000000  0.20000000  0.39023398
   0.30000000  0.85000000  0.50172940
   0.60000000  0.95000000  0.05574771
   0.55000000  0.60000000  0.16724313
   0.50000000  0.25000000  0.27873855
   0.45000000  0.90000000  0.39023398
   0.40000000  0.55000000  0.50172940
   0.70000000  0.65000000  0.05574771
   0.65000000  0.30000000  0.16724313
   0.60000000  0.95000000  0.27873855
   0.55000000  0.60000000  0.39023398
   0.50000000  0.25000000  0.50172940
   0.80000000  0.35000000  0.05574771
   0.75000000  0.00000000  0.16724313
   0.70000000  0.65000000  0.27873855
   0.65000000  0.30000000  0.39023398
   0.60000000  0.95000000  0.50172940
   0.90000000  0.05000000  0.05574771
   0.85000000  0.70000000  0.16724313
   0.80000000  0.35000000  0.27873855
   0.75000000  0.00000000  0.39023398
   0.70000000  0.65000000  0.50172940
   0.62596899  0.15116279  0.63479145
   0.45930233  0.15116279  0.74994914
   0.29263566  0.15116279  0.86510682
   0.62596899  0.48449612  0.63479145
   0.45930233  0.48449612  0.74994914
   0.29263566  0.48449612  0.86510682
   0.62596899  0.81782946  0.63479145
   0.45930233  0.81782946  0.74994914
   0.29263566  0.81782946  0.86510682
   0.29263566  0.15116279  0.63479145
   0.12596899  0.15116279  0.74994914
   0.95930233  0.15116279  0.86510682
   0.29263566  0.48449612  0.63479145
   0.12596899  0.48449612  0.74994914
   0.95930233  0.48449612  0.86510682
   0.29263566  0.81782946  0.63479145
   0.12596899  0.81782946  0.74994914
   0.95930233  0.81782946  0.86510682
   0.95930233  0.15116279  0.63479145
   0.79263566  0.15116279  0.74994914
   0.62596899  0.15116279  0.86510682
   0.95930233  0.48449612  0.63479145
   0.79263566  0.48449612  0.74994914
   0.62596899  0.48449612  0.86510682
   0.95930233  0.81782946  0.63479145
   0.79263566  0.81782946  0.74994914
   0.62596899  0.81782946  0.86510682
   0.79263566  0.31782946  0.63479145
   0.62596899  0.31782946  0.74994914
   0.45930233  0.31782946  0.86510682
   0.79263566  0.65116279  0.63479145
   0.62596899  0.65116279  0.74994914
   0.45930233  0.65116279  0.86510682
   0.79263566  0.98449612  0.63479145
   0.62596899  0.98449612  0.74994914
   0.45930233  0.98449612  0.86510682
   0.45930233  0.31782946  0.63479145
   0.29263566  0.31782946  0.74994914
   0.12596899  0.31782946  0.86510682
   0.45930233  0.65116279  0.63479145
   0.29263566  0.65116279  0.74994914
   0.12596899  0.65116279  0.86510682
   0.45930233  0.98449612  0.63479145
   0.29263566  0.98449612  0.74994914
   0.12596899  0.98449612  0.86510682
   0.12596899  0.31782946  0.63479145
   0.95930233  0.31782946  0.74994914
   0.79263566  0.31782946  0.86510682
   0.12596899  0.65116279  0.63479145
   0.95930233  0.65116279  0.74994914
   0.79263566  0.65116279  0.86510682
   0.12596899  0.98449612  0.63479145
   0.95930233  0.98449612  0.74994914
   0.79263566  0.98449612  0.86510682
   0.87596899  0.23449612  0.69237030
   0.70930233  0.23449612  0.80752798
   0.54263566  0.23449612  0.92268566
   0.87596899  0.56782946  0.69237030
   0.70930233  0.56782946  0.80752798
   0.54263566  0.56782946  0.92268566
   0.87596899  0.90116279  0.69237030
   0.70930233  0.90116279  0.80752798
   0.54263566  0.90116279  0.92268566
   0.54263566  0.23449612  0.69237030
   0.37596899  0.23449612  0.80752798
   0.20930233  0.23449612  0.92268566
   0.54263566  0.56782946  0.69237030
   0.37596899  0.56782946  0.80752798
   0.20930233  0.56782946  0.92268566
   0.54263566  0.90116279  0.69237030
   0.37596899  0.90116279  0.80752798
   0.20930233  0.90116279  0.92268566
   0.20930233  0.23449612  0.69237030
   0.04263566  0.23449612  0.80752798
   0.87596899  0.23449612  0.92268566
   0.20930233  0.56782946  0.69237030
   0.04263566  0.56782946  0.80752798
   0.87596899  0.56782946  0.92268566
   0.20930233  0.90116279  0.69237030
   0.04263566  0.90116279  0.80752798
   0.87596899  0.90116279  0.92268566
   0.70930233  0.40116279  0.69237030
   0.54263566  0.40116279  0.80752798
   0.37596899  0.40116279  0.92268566
   0.70930233  0.73449612  0.69237030
   0.54263566  0.73449612  0.80752798
   0.37596899  0.73449612  0.92268566
   0.70930233  0.06782946  0.69237030
   0.54263566  0.06782946  0.80752798
   0.37596899  0.06782946  0.92268566
   0.37596899  0.40116279  0.69237030
   0.20930233  0.40116279  0.80752798
   0.04263566  0.40116279  0.92268566
   0.37596899  0.73449612  0.69237030
   0.20930233  0.73449612  0.80752798
   0.04263566  0.73449612  0.92268566
   0.37596899  0.06782946  0.69237030
   0.20930233  0.06782946  0.80752798
   0.04263566  0.06782946  0.92268566
   0.04263566  0.40116279  0.69237030
   0.87596899  0.40116279  0.80752798
   0.70930233  0.40116279  0.92268566
   0.04263566  0.73449612  0.69237030
   0.87596899  0.73449612  0.80752798
   0.70930233  0.73449612  0.92268566
   0.04263566  0.06782946  0.69237030
   0.87596899  0.06782946  0.80752798
   0.70930233  0.06782946  0.92268566
 
 position of ions in cartesian coordinates  (Angst):
   0.00000000  0.00000000  0.00000000
  16.46281750 11.26403303  2.74000000
  15.59635342  5.19878447  5.47999999
  14.72988934 16.46281750  8.22000001
  13.86342526 10.39756895 10.96000001
  12.99696118  4.33232039 13.70000000
   1.73292816 12.13049710  0.00000000
   0.86646408  6.06524855  2.74000000
   0.00000000  0.00000000  5.47999999
  16.46281750 11.26403303  8.22000001
  15.59635342  5.19878447 10.96000001
  14.72988934 16.46281750 13.70000000
   3.46585632  6.93171263  0.00000000
   2.59939224  0.86646408  2.74000000
   1.73292816 12.13049710  5.47999999
   0.86646408  6.06524855  8.22000001
   0.00000000  0.00000000 10.96000001
  16.46281750 11.26403303 13.70000000
   5.19878447  1.73292816  0.00000000
   4.33232039 12.99696118  2.74000000
   3.46585632  6.93171263  5.47999999
   2.59939224  0.86646408  8.22000001
   1.73292816 12.13049710 10.96000001
   0.86646408  6.06524855 13.70000000
   6.93171263 13.86342526  0.00000000
   6.06524855  7.79817671  2.74000000
   5.19878447  1.73292816  5.47999999
   4.33232039 12.99696118  8.22000001
   3.46585632  6.93171263 10.96000001
   2.59939224  0.86646408 13.70000000
   8.66464079  8.66464079  0.00000000
   7.79817671  2.59939224  2.74000000
   6.93171263 13.86342526  5.47999999
   6.06524855  7.79817671  8.22000001
   5.19878447  1.73292816 10.96000001
   4.33232039 12.99696118 13.70000000
  10.39756895  3.46585632  0.00000000
   9.53110487 14.72988934  2.74000000
   8.66464079  8.66464079  5.47999999
   7.79817671  2.59939224  8.22000001
   6.93171263 13.86342526 10.96000001
   6.06524855  7.79817671 13.70000000
  12.13049710 15.59635342  0.00000000
  11.26403303  9.53110487  2.74000000
  10.39756895  3.46585632  5.47999999
   9.53110487 14.72988934  8.22000001
   8.66464079  8.66464079 10.96000001
   7.79817671  2.59939224 13.70000000
  13.86342526 10.39756895  0.00000000
  12.99696118  4.33232039  2.74000000
  12.13049710 15.59635342  5.47999999
  11.26403303  9.53110487  8.22000001
  10.39756895  3.46585632 10.96000001
   9.53110487 14.72988934 13.70000000
  15.59635342  5.19878447  0.00000000
  14.72988934 16.46281750  2.74000000
  13.86342526 10.39756895  5.47999999
  12.99696118  4.33232039  8.22000001
  12.13049710 15.59635342 10.96000001
  11.26403303  9.53110487 13.70000000
   0.00000000  8.66464079  0.00000000
  16.46281750  2.59939224  2.74000000
  15.59635342 13.86342526  5.47999999
  14.72988934  7.79817671  8.22000001
  13.86342526  1.73292816 10.96000001
  12.99696118 12.99696118 13.70000000
   1.73292816  3.46585632  0.00000000
   0.86646408 14.72988934  2.74000000
   0.00000000  8.66464079  5.47999999
  16.46281750  2.59939224  8.22000001
  15.59635342 13.86342526 10.96000001
  14.72988934  7.79817671 13.70000000
   3.46585632 15.59635342  0.00000000
   2.59939224  9.53110487  2.74000000
   1.73292816  3.46585632  5.47999999
   0.86646408 14.72988934  8.22000001
   0.00000000  8.66464079 10.96000001
  16.46281750  2.59939224 13.70000000
   5.19878447 10.39756895  0.00000000
   4.33232039  4.33232039  2.74000000
   3.46585632 15.59635342  5.47999999
   2.59939224  9.53110487  8.22000001
   1.73292816  3.46585632 10.96000001
   0.86646408 14.72988934 13.70000000
   6.93171263  5.19878447  0.00000000
   6.06524855 16.46281750  2.74000000
   5.19878447 10.39756895  5.47999999
   4.33232039  4.33232039  8.22000001
   3.46585632 15.59635342 10.96000001
   2.59939224  9.53110487 13.70000000
   8.66464079  0.00000000  0.00000000
   7.79817671 11.26403303  2.74000000
   6.93171263  5.19878447  5.47999999
   6.06524855 16.46281750  8.22000001
   5.19878447 10.39756895 10.96000001
   4.33232039  4.33232039 13.70000000
  10.39756895 12.13049710  0.00000000
   9.53110487  6.06524855  2.74000000
   8.66464079  0.00000000  5.47999999
   7.79817671 11.26403303  8.22000001
   6.93171263  5.19878447 10.96000001
   6.06524855 16.46281750 13.70000000
  12.13049710  6.93171263  0.00000000
  11.26403303  0.86646408  2.74000000
  10.39756895 12.13049710  5.47999999
   9.53110487  6.06524855  8.22000001
   8.66464079  0.00000000 10.96000001
   7.79817671 11.26403303 13.70000000
  13.86342526  1.73292816  0.00000000
  12.99696118 12.99696118  2.74000000
  12.13049710  6.93171263  5.47999999
  11.26403303  0.86646408  8.22000001
  10.39756895 12.13049710 10.96000001
   9.53110487  6.06524855 13.70000000
  15.59635342 13.86342526  0.00000000
  14.72988934  7.79817671  2.74000000
  13.86342526  1.73292816  5.47999999
  12.99696118 12.99696118  8.22000001
  12.13049710  6.93171263 10.96000001
  11.26403303  0.86646408 13.70000000
   0.00000000  4.33232039  1.37000000
  16.46281750 15.59635342  4.10999999
  15.59635342  9.53110487  6.84999999
  14.72988934  3.46585632  9.59000001
  13.86342526 14.72988934 12.33000001
   1.73292816 16.46281750  1.37000000
   0.86646408 10.39756895  4.10999999
   0.00000000  4.33232039  6.84999999
  16.46281750 15.59635342  9.59000001
  15.59635342  9.53110487 12.33000001
   3.46585632 11.26403303  1.37000000
   2.59939224  5.19878447  4.10999999
   1.73292816 16.46281750  6.84999999
   0.86646408 10.39756895  9.59000001
   0.00000000  4.33232039 12.33000001
   5.19878447  6.06524855  1.37000000
   4.33232039  0.00000000  4.10999999
   3.46585632 11.26403303  6.84999999
   2.59939224  5.19878447  9.59000001
   1.73292816 16.46281750 12.33000001
   6.93171263  0.86646408  1.37000000
   6.06524855 12.13049710  4.10999999
   5.19878447  6.06524855  6.84999999
   4.33232039  0.00000000  9.59000001
   3.46585632 11.26403303 12.33000001
   8.66464079 12.99696118  1.37000000
   7.79817671  6.93171263  4.10999999
   6.93171263  0.86646408  6.84999999
   6.06524855 12.13049710  9.59000001
   5.19878447  6.06524855 12.33000001
  10.39756895  7.79817671  1.37000000
   9.53110487  1.73292816  4.10999999
   8.66464079 12.99696118  6.84999999
   7.79817671  6.93171263  9.59000001
   6.93171263  0.86646408 12.33000001
  12.13049710  2.59939224  1.37000000
  11.26403303 13.86342526  4.10999999
  10.39756895  7.79817671  6.84999999
   9.53110487  1.73292816  9.59000001
   8.66464079 12.99696118 12.33000001
  13.86342526 14.72988934  1.37000000
  12.99696118  8.66464079  4.10999999
  12.13049710  2.59939224  6.84999999
  11.26403303 13.86342526  9.59000001
  10.39756895  7.79817671 12.33000001
  15.59635342  9.53110487  1.37000000
  14.72988934  3.46585632  4.10999999
  13.86342526 14.72988934  6.84999999
  12.99696118  8.66464079  9.59000001
  12.13049710  2.59939224 12.33000001
   0.00000000 12.99696118  1.37000000
  16.46281750  6.93171263  4.10999999
  15.59635342  0.86646408  6.84999999
  14.72988934 12.13049710  9.59000001
  13.86342526  6.06524855 12.33000001
   1.73292816  7.79817671  1.37000000
   0.86646408  1.73292816  4.10999999
   0.00000000 12.99696118  6.84999999
  16.46281750  6.93171263  9.59000001
  15.59635342  0.86646408 12.33000001
   3.46585632  2.59939224  1.37000000
   2.59939224 13.86342526  4.10999999
   1.73292816  7.79817671  6.84999999
   0.86646408  1.73292816  9.59000001
   0.00000000 12.99696118 12.33000001
   5.19878447 14.72988934  1.37000000
   4.33232039  8.66464079  4.10999999
   3.46585632  2.59939224  6.84999999
   2.59939224 13.86342526  9.59000001
   1.73292816  7.79817671 12.33000001
   6.93171263  9.53110487  1.37000000
   6.06524855  3.46585632  4.10999999
   5.19878447 14.72988934  6.84999999
   4.33232039  8.66464079  9.59000001
   3.46585632  2.59939224 12.33000001
   8.66464079  4.33232039  1.37000000
   7.79817671 15.59635342  4.10999999
   6.93171263  9.53110487  6.84999999
   6.06524855  3.46585632  9.59000001
   5.19878447 14.72988934 12.33000001
  10.39756895 16.46281750  1.37000000
   9.53110487 10.39756895  4.10999999
   8.66464079  4.33232039  6.84999999
   7.79817671 15.59635342  9.59000001
   6.93171263  9.53110487 12.33000001
  12.13049710 11.26403303  1.37000000
  11.26403303  5.19878447  4.10999999
  10.39756895 16.46281750  6.84999999
   9.53110487 10.39756895  9.59000001
   8.66464079  4.33232039 12.33000001
  13.86342526  6.06524855  1.37000000
  12.99696118  0.00000000  4.10999999
  12.13049710 11.26403303  6.84999999
  11.26403303  5.19878447  9.59000001
  10.39756895 16.46281750 12.33000001
  15.59635342  0.86646408  1.37000000
  14.72988934 12.13049710  4.10999999
  13.86342526  6.06524855  6.84999999
  12.99696118  0.00000000  9.59000001
  12.13049710 11.26403303 12.33000001
  10.84759292  2.61954257 15.60000001
   7.95937934  2.61954257 18.42999999
   5.07116573  2.61954257 21.26000000
  10.84759292  8.39596976 15.60000001
   7.95937934  8.39596976 18.42999999
   5.07116573  8.39596976 21.26000000
  10.84759292 14.17239694 15.60000001
   7.95937934 14.17239694 18.42999999
   5.07116573 14.17239694 21.26000000
   5.07116573  2.61954257 15.60000001
   2.18295213  2.61954257 18.42999999
  16.62402013  2.61954257 21.26000000
   5.07116573  8.39596976 15.60000001
   2.18295213  8.39596976 18.42999999
  16.62402013  8.39596976 21.26000000
   5.07116573 14.17239694 15.60000001
   2.18295213 14.17239694 18.42999999
  16.62402013 14.17239694 21.26000000
  16.62402013  2.61954257 15.60000001
  13.73580652  2.61954257 18.42999999
  10.84759292  2.61954257 21.26000000
  16.62402013  8.39596976 15.60000001
  13.73580652  8.39596976 18.42999999
  10.84759292  8.39596976 21.26000000
  16.62402013 14.17239694 15.60000001
  13.73580652 14.17239694 18.42999999
  10.84759292 14.17239694 21.26000000
  13.73580652  5.50775615 15.60000001
  10.84759292  5.50775615 18.42999999
   7.95937934  5.50775615 21.26000000
  13.73580652 11.28418336 15.60000001
  10.84759292 11.28418336 18.42999999
   7.95937934 11.28418336 21.26000000
  13.73580652 17.06061055 15.60000001
  10.84759292 17.06061055 18.42999999
   7.95937934 17.06061055 21.26000000
   7.95937934  5.50775615 15.60000001
   5.07116573  5.50775615 18.42999999
   2.18295213  5.50775615 21.26000000
   7.95937934 11.28418336 15.60000001
   5.07116573 11.28418336 18.42999999
   2.18295213 11.28418336 21.26000000
   7.95937934 17.06061055 15.60000001
   5.07116573 17.06061055 18.42999999
   2.18295213 17.06061055 21.26000000
   2.18295213  5.50775615 15.60000001
  16.62402013  5.50775615 18.42999999
  13.73580652  5.50775615 21.26000000
   2.18295213 11.28418336 15.60000001
  16.62402013 11.28418336 18.42999999
  13.73580652 11.28418336 21.26000000
   2.18295213 17.06061055 15.60000001
  16.62402013 17.06061055 18.42999999
  13.73580652 17.06061055 21.26000000
  15.17991332  4.06364936 17.01500000
  12.29169973  4.06364936 19.84500001
   9.40348613  4.06364936 22.67500000
  15.17991332  9.84007655 17.01500000
  12.29169973  9.84007655 19.84500001
   9.40348613  9.84007655 22.67500000
  15.17991332 15.61650375 17.01500000
  12.29169973 15.61650375 19.84500001
   9.40348613 15.61650375 22.67500000
   9.40348613  4.06364936 17.01500000
   6.51527253  4.06364936 19.84500001
   3.62705894  4.06364936 22.67500000
   9.40348613  9.84007655 17.01500000
   6.51527253  9.84007655 19.84500001
   3.62705894  9.84007655 22.67500000
   9.40348613 15.61650375 17.01500000
   6.51527253 15.61650375 19.84500001
   3.62705894 15.61650375 22.67500000
   3.62705894  4.06364936 17.01500000
   0.73884534  4.06364936 19.84500001
  15.17991332  4.06364936 22.67500000
   3.62705894  9.84007655 17.01500000
   0.73884534  9.84007655 19.84500001
  15.17991332  9.84007655 22.67500000
   3.62705894 15.61650375 17.01500000
   0.73884534 15.61650375 19.84500001
  15.17991332 15.61650375 22.67500000
  12.29169973  6.95186296 17.01500000
   9.40348613  6.95186296 19.84500001
   6.51527253  6.95186296 22.67500000
  12.29169973 12.72829015 17.01500000
   9.40348613 12.72829015 19.84500001
   6.51527253 12.72829015 22.67500000
  12.29169973  1.17543576 17.01500000
   9.40348613  1.17543576 19.84500001
   6.51527253  1.17543576 22.67500000
   6.51527253  6.95186296 17.01500000
   3.62705894  6.95186296 19.84500001
   0.73884534  6.95186296 22.67500000
   6.51527253 12.72829015 17.01500000
   3.62705894 12.72829015 19.84500001
   0.73884534 12.72829015 22.67500000
   6.51527253  1.17543576 17.01500000
   3.62705894  1.17543576 19.84500001
   0.73884534  1.17543576 22.67500000
   0.73884534  6.95186296 17.01500000
  15.17991332  6.95186296 19.84500001
  12.29169973  6.95186296 22.67500000
   0.73884534 12.72829015 17.01500000
  15.17991332 12.72829015 19.84500001
  12.29169973 12.72829015 22.67500000
   0.73884534  1.17543576 17.01500000
  15.17991332  1.17543576 19.84500001
  12.29169973  1.17543576 22.67500000
 


--------------------------------------------------------------------------------------------------------


 k-point     1 :   0.0000 0.0000 0.0000  plane waves:  310407
 k-point     2 :   0.5000 0.0000 0.0000  plane waves:  310346
 k-point     3 :   0.0000 0.5000 0.0000  plane waves:  310346
 k-point     4 :   0.5000 0.5000 0.0000  plane waves:  310280

 maximum and minimum number of plane-waves per node :     19440    19367

 maximum number of plane-waves:    310407
 maximum index in each direction: 
   IXMAX=   37   IYMAX=   37   IZMAX=   53
   IXMIN=  -37   IYMIN=  -37   IZMIN=  -53


 real space projection operators:
  total allocation   :      42386.69 KBytes
  max/ min on nodes  :       2656.69       2640.38


 parallel 3D FFT for wavefunctions:
    minimum data exchange during FFTs selected (reduces bandwidth)
 parallel 3D FFT for charge:
    minimum data exchange during FFTs selected (reduces bandwidth)


 total amount of memory used by VASP MPI-rank0  2267107. kBytes
=======================================================================

   base      :      30000. kBytes
   nonlr-proj:      15764. kBytes
   fftplans  :     150401. kBytes
   grid      :      90743. kBytes
   one-center:        340. kBytes
   wavefun   :    1979859. kBytes
 
     INWAV:  cpu time      0.0001: real time      0.0005
 Broyden mixing: mesh for mixing (old mesh)
   NGX = 75   NGY = 75   NGZ =107
  (NGX  =224   NGY  =224   NGZ  =320)
  gives a total of 601875 points

 initial charge density was supplied:
 charge density of overlapping atoms calculated
 number of electron    1312.0000000 magnetization       1.0000000
 keeping initial charge density in first step


--------------------------------------------------------------------------------------------------------


 Maximum index for non-local projection operator          204
 Maximum index for augmentation-charges         7408 (set IRDMAX)


--------------------------------------------------------------------------------------------------------


 First call to EWALD:  gamma=   0.091
 Maximum number of real-space cells 3x 3x 2
 Maximum number of reciprocal cells 2x 2x 3

    FEWALD:  cpu time      0.0354: real time      0.0355


--------------------------------------- Ionic step        1  -------------------------------------------




--------------------------------------- Iteration      1(   1)  ---------------------------------------


    POTLOK:  cpu time      2.0216: real time      2.0382
    SETDIJ:  cpu time      8.0884: real time      8.1294
