  20  20   0   0
  0.1857877E+02  0.3920200E-09  0.3920200E-09  0.2791901E-08  0.5000000E-15
  1.000000000000000E-004
  CAR 
 Si and Ge interface calculation         
      8.38811586     -8.76496402  301      4.14375859      1.00000000
     -8.765  0.0000E+00  0.0000E+00
     -8.708  0.0000E+00  0.0000E+00
     -8.651  0.0000E+00  0.0000E+00
     -8.593  0.0000E+00  0.0000E+00
     -8.536  0.0000E+00  0.0000E+00
     -8.479  0.0000E+00  0.0000E+00
     -8.422  0.0000E+00  0.0000E+00
     -8.365  0.0000E+00  0.0000E+00
     -8.308  0.0000E+00  0.0000E+00
     -8.250  0.3125E-14  0.1787E-15
     -8.193  0.2019E-09  0.1155E-10
     -8.136  0.1020E-05  0.5835E-07
     -8.079  0.4221E-03  0.2419E-04
     -8.022  0.1575E-01  0.9247E-03
     -7.964  0.6483E-01  0.4631E-02
     -7.907  0.6668E-01  0.8444E-02
     -7.850  0.5982E-01  0.1186E-01
     -7.793  0.1092E-01  0.1249E-01
     -7.736  0.2235E-02  0.1262E-01
     -7.679  0.3277E-01  0.1449E-01
     -7.621  0.6058E-01  0.1795E-01
     -7.564  0.1361E-01  0.1873E-01
     -7.507  0.4477E-03  0.1876E-01
     -7.450  0.1594E-01  0.1967E-01
     -7.393  0.2250E+00  0.3253E-01
     -7.336  0.4763E+00  0.5976E-01
     -7.278  0.4592E+00  0.8602E-01
     -7.221  0.2273E+00  0.9901E-01
     -7.164  0.2021E-01  0.1002E+00
     -7.107  0.9545E-01  0.1056E+00
     -7.050  0.3953E+00  0.1282E+00
     -6.992  0.2364E+00  0.1417E+00
     -6.935  0.4443E-01  0.1443E+00
     -6.878  0.2570E-01  0.1458E+00
     -6.821  0.5651E-01  0.1490E+00
     -6.764  0.2420E+00  0.1628E+00
     -6.707  0.3476E+00  0.1827E+00
     -6.649  0.8134E-01  0.1874E+00
     -6.592  0.3562E-02  0.1876E+00
     -6.535  0.3461E-01  0.1895E+00
     -6.478  0.1902E+00  0.2004E+00
     -6.421  0.2600E+00  0.2153E+00
     -6.364  0.2353E+00  0.2287E+00
     -6.306  0.4011E+00  0.2517E+00
     -6.249  0.6679E+00  0.2899E+00
     -6.192  0.7528E+00  0.3329E+00
     -6.135  0.4733E+00  0.3600E+00
     -6.078  0.3134E+00  0.3779E+00
     -6.020  0.4384E+00  0.4029E+00
     -5.963  0.3933E+00  0.4254E+00
     -5.906  0.1979E+00  0.4367E+00
     -5.849  0.1719E+00  0.4466E+00
     -5.792  0.2239E+00  0.4594E+00
     -5.735  0.4296E+00  0.4839E+00
     -5.677  0.5633E+00  0.5161E+00
     -5.620  0.3274E+00  0.5349E+00
     -5.563  0.1530E+00  0.5436E+00
     -5.506  0.1752E+00  0.5536E+00
     -5.449  0.4946E+00  0.5819E+00
     -5.392  0.5616E+00  0.6140E+00
     -5.334  0.3724E+00  0.6353E+00
     -5.277  0.3813E+00  0.6571E+00
     -5.220  0.3643E+00  0.6779E+00
     -5.163  0.2134E+00  0.6901E+00
     -5.106  0.1959E+00  0.7013E+00
     -5.048  0.3367E+00  0.7206E+00
     -4.991  0.4330E+00  0.7453E+00
     -4.934  0.4067E+00  0.7686E+00
     -4.877  0.3103E+00  0.7863E+00
     -4.820  0.1206E+00  0.7932E+00
     -4.763  0.4572E-01  0.7959E+00
     -4.705  0.1579E+00  0.8049E+00
     -4.648  0.2980E+00  0.8219E+00
     -4.591  0.3254E+00  0.8405E+00
     -4.534  0.4357E+00  0.8654E+00
     -4.477  0.5132E+00  0.8948E+00
     -4.420  0.2209E+00  0.9074E+00
     -4.362  0.1984E+00  0.9188E+00
     -4.305  0.2871E+00  0.9352E+00
     -4.248  0.1357E+00  0.9429E+00
     -4.191  0.3007E-01  0.9446E+00
     -4.134  0.1287E+00  0.9520E+00
     -4.076  0.2129E+00  0.9642E+00
     -4.019  0.3576E+00  0.9846E+00
     -3.962  0.4616E+00  0.1011E+01
     -3.905  0.2529E+00  0.1025E+01
     -3.848  0.3201E+00  0.1044E+01
     -3.791  0.1950E+00  0.1055E+01
     -3.733  0.2409E-01  0.1056E+01
     -3.676  0.4722E-01  0.1059E+01
     -3.619  0.2570E+00  0.1074E+01
     -3.562  0.4140E+00  0.1097E+01
     -3.505  0.2386E+00  0.1111E+01
     -3.448  0.2573E-01  0.1113E+01
     -3.390  0.1233E-01  0.1113E+01
     -3.333  0.7150E-01  0.1117E+01
     -3.276  0.1064E+00  0.1123E+01
     -3.219  0.1809E+00  0.1134E+01
     -3.162  0.4292E+00  0.1158E+01
     -3.104  0.7434E+00  0.1201E+01
     -3.047  0.7661E+00  0.1245E+01
     -2.990  0.3999E+00  0.1267E+01
     -2.933  0.1582E+00  0.1276E+01
     -2.876  0.2086E+00  0.1288E+01
     -2.819  0.2636E+00  0.1303E+01
     -2.761  0.2806E+00  0.1320E+01
     -2.704  0.2937E+00  0.1336E+01
     -2.647  0.3811E+00  0.1358E+01
     -2.590  0.4835E+00  0.1386E+01
     -2.533  0.3746E+00  0.1407E+01
     -2.476  0.3128E+00  0.1425E+01
     -2.418  0.3033E+00  0.1442E+01
     -2.361  0.2110E+00  0.1454E+01
     -2.304  0.2585E+00  0.1469E+01
     -2.247  0.3473E+00  0.1489E+01
     -2.190  0.4054E+00  0.1512E+01
     -2.132  0.3115E+00  0.1530E+01
     -2.075  0.1235E+00  0.1537E+01
     -2.018  0.1698E+00  0.1547E+01
     -1.961  0.2292E+00  0.1560E+01
     -1.904  0.3613E+00  0.1581E+01
     -1.847  0.3473E+00  0.1600E+01
     -1.789  0.2607E+00  0.1615E+01
     -1.732  0.2507E+00  0.1630E+01
     -1.675  0.3369E+00  0.1649E+01
     -1.618  0.2346E+00  0.1662E+01
     -1.561  0.2433E+00  0.1676E+01
     -1.503  0.2513E+00  0.1691E+01
     -1.446  0.2124E+00  0.1703E+01
     -1.389  0.3028E+00  0.1720E+01
     -1.332  0.3868E+00  0.1742E+01
     -1.275  0.3439E+00  0.1762E+01
     -1.218  0.1152E+00  0.1769E+01
     -1.160  0.3022E-01  0.1770E+01
     -1.103  0.1423E-01  0.1771E+01
     -1.046  0.6384E-01  0.1775E+01
     -0.989  0.1466E+00  0.1783E+01
     -0.932  0.2462E+00  0.1797E+01
     -0.875  0.1792E+00  0.1807E+01
     -0.817  0.5792E-01  0.1811E+01
     -0.760  0.3976E-02  0.1811E+01
     -0.703  0.2011E-03  0.1811E+01
     -0.646  0.5012E-02  0.1811E+01
     -0.589  0.1747E-01  0.1812E+01
     -0.531  0.2510E-01  0.1814E+01
     -0.474  0.7969E-01  0.1818E+01
     -0.417  0.1696E+00  0.1828E+01
     -0.360  0.1890E+00  0.1839E+01
     -0.303  0.1518E+00  0.1847E+01
     -0.246  0.2701E+00  0.1863E+01
     -0.188  0.5207E+00  0.1893E+01
     -0.131  0.6243E+00  0.1928E+01
     -0.074  0.4721E+00  0.1955E+01
     -0.017  0.1800E+00  0.1966E+01
      0.040  0.9056E-01  0.1971E+01
      0.097  0.3053E+00  0.1988E+01
      0.155  0.2817E+00  0.2004E+01
      0.212  0.2180E+00  0.2017E+01
      0.269  0.4635E+00  0.2043E+01
      0.326  0.7560E+00  0.2087E+01
      0.383  0.9713E+00  0.2142E+01
      0.441  0.5434E+00  0.2173E+01
      0.498  0.2412E+00  0.2187E+01
      0.555  0.3456E+00  0.2207E+01
      0.612  0.4974E+00  0.2235E+01
      0.669  0.7755E+00  0.2279E+01
      0.726  0.7609E+00  0.2323E+01
      0.784  0.6927E+00  0.2363E+01
      0.841  0.6985E+00  0.2403E+01
      0.898  0.8007E+00  0.2448E+01
      0.955  0.8314E+00  0.2496E+01
      1.012  0.6667E+00  0.2534E+01
      1.069  0.4010E+00  0.2557E+01
      1.127  0.4150E+00  0.2581E+01
      1.184  0.6124E+00  0.2616E+01
      1.241  0.5296E+00  0.2646E+01
      1.298  0.3722E+00  0.2667E+01
      1.355  0.5076E+00  0.2696E+01
      1.413  0.7268E+00  0.2738E+01
      1.470  0.8073E+00  0.2784E+01
      1.527  0.6436E+00  0.2821E+01
      1.584  0.6095E+00  0.2856E+01
      1.641  0.4528E+00  0.2881E+01
      1.698  0.4134E+00  0.2905E+01
      1.756  0.5380E+00  0.2936E+01
      1.813  0.5243E+00  0.2966E+01
      1.870  0.6148E+00  0.3001E+01
      1.927  0.4264E+00  0.3025E+01
      1.984  0.3718E+00  0.3047E+01
      2.041  0.4826E+00  0.3074E+01
      2.099  0.6834E+00  0.3113E+01
      2.156  0.7025E+00  0.3153E+01
      2.213  0.6917E+00  0.3193E+01
      2.270  0.7615E+00  0.3237E+01
      2.327  0.6229E+00  0.3272E+01
      2.385  0.5425E+00  0.3303E+01
      2.442  0.6166E+00  0.3338E+01
      2.499  0.6987E+00  0.3378E+01
      2.556  0.6071E+00  0.3413E+01
      2.613  0.6052E+00  0.3448E+01
      2.670  0.5817E+00  0.3481E+01
      2.728  0.4531E+00  0.3507E+01
      2.785  0.4005E+00  0.3530E+01
      2.842  0.4042E+00  0.3553E+01
      2.899  0.6836E+00  0.3592E+01
      2.956  0.7257E+00  0.3633E+01
      3.013  0.5875E+00  0.3667E+01
      3.071  0.8577E+00  0.3716E+01
      3.128  0.8149E+00  0.3763E+01
      3.185  0.3263E+00  0.3781E+01
      3.242  0.3745E+00  0.3803E+01
      3.299  0.4502E+00  0.3828E+01
      3.357  0.3508E+00  0.3849E+01
      3.414  0.2613E+00  0.3863E+01
      3.471  0.2165E+00  0.3876E+01
      3.528  0.3568E+00  0.3896E+01
      3.585  0.4741E+00  0.3923E+01
      3.642  0.4944E+00  0.3952E+01
      3.700  0.3352E+00  0.3971E+01
      3.757  0.1330E+00  0.3978E+01
      3.814  0.5373E-01  0.3981E+01
      3.871  0.6192E-01  0.3985E+01
      3.928  0.7401E-01  0.3989E+01
      3.985  0.6408E-01  0.3993E+01
      4.043  0.1425E-01  0.3994E+01
      4.100  0.1532E-01  0.3995E+01
      4.157  0.1461E+00  0.4003E+01
      4.214  0.2603E+00  0.4018E+01
      4.271  0.2066E+00  0.4030E+01
      4.329  0.1685E+00  0.4039E+01
      4.386  0.1503E+00  0.4048E+01
      4.443  0.8514E-01  0.4053E+01
      4.500  0.1110E+00  0.4059E+01
      4.557  0.2998E+00  0.4076E+01
      4.614  0.4419E+00  0.4102E+01
      4.672  0.5448E+00  0.4133E+01
      4.729  0.3657E+00  0.4154E+01
      4.786  0.2075E+00  0.4165E+01
      4.843  0.1951E+00  0.4177E+01
      4.900  0.1366E+00  0.4184E+01
      4.957  0.6295E-01  0.4188E+01
      5.015  0.2525E-01  0.4189E+01
      5.072  0.7269E-01  0.4194E+01
      5.129  0.1849E+00  0.4204E+01
      5.186  0.4209E+00  0.4228E+01
      5.243  0.5578E+00  0.4260E+01
      5.301  0.2600E+00  0.4275E+01
      5.358  0.2164E+00  0.4287E+01
      5.415  0.4660E+00  0.4314E+01
      5.472  0.5340E+00  0.4345E+01
      5.529  0.6080E+00  0.4379E+01
      5.586  0.5497E+00  0.4411E+01
      5.644  0.6467E+00  0.4448E+01
      5.701  0.5229E+00  0.4478E+01
      5.758  0.4059E+00  0.4501E+01
      5.815  0.5504E+00  0.4532E+01
      5.872  0.5086E+00  0.4561E+01
      5.930  0.3724E+00  0.4583E+01
      5.987  0.2966E+00  0.4600E+01
      6.044  0.5515E+00  0.4631E+01
      6.101  0.7380E+00  0.4673E+01
      6.158  0.5673E+00  0.4706E+01
      6.215  0.3610E+00  0.4726E+01
      6.273  0.2996E+00  0.4744E+01
      6.330  0.3428E+00  0.4763E+01
      6.387  0.4102E+00  0.4787E+01
      6.444  0.2922E+00  0.4803E+01
      6.501  0.1797E+00  0.4814E+01
      6.558  0.2987E+00  0.4831E+01
      6.616  0.4044E+00  0.4854E+01
      6.673  0.3304E+00  0.4873E+01
      6.730  0.2904E+00  0.4889E+01
      6.787  0.2830E+00  0.4905E+01
      6.844  0.1860E+00  0.4916E+01
      6.902  0.1892E+00  0.4927E+01
      6.959  0.3298E+00  0.4946E+01
      7.016  0.3274E+00  0.4965E+01
      7.073  0.3722E+00  0.4986E+01
      7.130  0.3950E+00  0.5008E+01
      7.187  0.2337E+00  0.5022E+01
      7.245  0.1093E+00  0.5028E+01
      7.302  0.1122E+00  0.5034E+01
      7.359  0.9426E-01  0.5040E+01
      7.416  0.1674E+00  0.5049E+01
      7.473  0.2397E+00  0.5063E+01
      7.530  0.2970E+00  0.5080E+01
      7.588  0.2400E+00  0.5094E+01
      7.645  0.9653E-01  0.5099E+01
      7.702  0.1192E-01  0.5100E+01
      7.759  0.2500E-03  0.5100E+01
      7.816  0.5692E-06  0.5100E+01
      7.874  0.1127E-09  0.5100E+01
      7.931  0.1778E-14  0.5100E+01
      7.988  0.0000E+00  0.5100E+01
      8.045  0.0000E+00  0.5100E+01
      8.102  0.0000E+00  0.5100E+01
      8.159  0.0000E+00  0.5100E+01
      8.217  0.0000E+00  0.5100E+01
      8.274  0.0000E+00  0.5100E+01
      8.331  0.0000E+00  0.5100E+01
      8.388  0.0000E+00  0.5100E+01
