   20   20   20    1
  0.1857877E+02  0.3920200E-09  0.3920200E-09  0.2791900E-08  0.5000000E-15
  1.000000000000000E-004
  CAR 
 Si and Ge interface calculation         
     80     36     51
 
  0.0000000E+00  0.0000000E+00  0.0000000E+00  0.1562500E-01
      1         -7.985279   1.000000
      2         -7.893383   1.000000
      3         -7.666284   1.000000
      4         -7.330793   1.000000
      5         -7.097869   1.000000
      6         -6.787863   1.000000
      7         -6.420189   1.000000
      8         -5.946384   1.000000
      9         -5.677543   1.000000
     10         -5.055500   1.000000
     11         -2.909055   1.000000
     12         -2.039660   1.000000
     13         -2.010977   1.000000
     14         -0.614661   1.000000
     15         -0.532753   1.000000
     16          0.897957   1.000000
     17          1.482791   1.000000
     18          2.037648   1.000000
     19          2.174075   1.000000
     20          2.224287   1.000000
     21          2.353961   1.000000
     22          2.531086   1.000000
     23          2.581858   1.000000
     24          2.742649   1.000000
     25          2.876233   1.000000
     26          2.998366   1.000000
     27          3.037812   1.000000
     28          3.106385   1.000000
     29          3.209471   1.000000
     30          3.277441   1.000000
     31          3.372968   1.000000
     32          3.378984   1.000000
     33          3.442376   1.000000
     34          3.556925   1.000000
     35          3.614888   1.000000
     36          3.683459   1.000000
     37          3.752885   1.000000
     38          3.868867   1.000000
     39          3.935532   1.000000
     40          4.172773   0.205926
     41          4.329230   0.000000
     42          4.358456   0.000000
     43          4.513020   0.000000
     44          4.550255   0.000000
     45          4.658835   0.000000
     46          4.878959   0.000000
     47          4.959020   0.000000
     48          5.167117   0.000000
     49          5.535177   0.000000
     50          5.884482   0.000000
     51          6.049892   0.000000
 
  0.2500000E+00 -0.8196982E-17  0.0000000E+00  0.3125000E-01
      1         -7.388618   1.000000
      2         -7.297242   1.000000
      3         -7.080420   1.000000
      4         -6.743853   1.000000
      5         -6.509201   1.000000
      6         -6.210266   1.000000
      7         -5.846145   1.000000
      8         -5.355686   1.000000
      9         -5.123076   1.000000
     10         -4.502626   1.000000
     11         -3.113458   1.000000
     12         -2.477072   1.000000
     13         -2.358493   1.000000
     14         -1.579211   1.000000
     15         -1.438812   1.000000
     16         -0.882666   1.000000
     17         -0.394634   1.000000
     18         -0.061849   1.000000
     19          0.122605   1.000000
     20          0.244992   1.000000
     21          0.383384   1.000000
     22          0.713803   1.000000
     23          0.838508   1.000000
     24          1.116460   1.000000
     25          1.352052   1.000000
     26          1.441946   1.000000
     27          1.636622   1.000000
     28          1.853534   1.000000
     29          2.087970   1.000000
     30          2.227776   1.000000
     31          2.326276   1.000000
     32          2.486731   1.000000
     33          2.585502   1.000000
     34          2.681031   1.000000
     35          2.877219   1.000000
     36          3.092645   1.000000
     37          3.208268   1.000000
     38          3.328182   1.000000
     39          3.558319   1.000000
     40          3.597786   1.000000
     41          4.530907   0.000000
     42          4.660098   0.000000
     43          5.208902   0.000000
     44          5.360891   0.000000
     45          5.461694   0.000000
     46          5.613074   0.000000
     47          5.858579   0.000000
     48          5.956630   0.000000
     49          6.117703   0.000000
     50          6.379541   0.000000
     51          6.590561   0.000000
 
  0.2500000E+00  0.2500000E+00  0.0000000E+00  0.3125000E-01
      1         -7.370827   1.000000
      2         -7.282356   1.000000
      3         -7.064722   1.000000
      4         -6.725035   1.000000
      5         -6.495739   1.000000
      6         -6.193391   1.000000
      7         -5.827535   1.000000
      8         -5.334970   1.000000
      9         -5.107922   1.000000
     10         -4.487118   1.000000
     11         -3.141061   1.000000
     12         -2.472061   1.000000
     13         -2.419566   1.000000
     14         -1.654460   1.000000
     15         -1.454643   1.000000
     16         -0.964266   1.000000
     17         -0.446588   1.000000
     18         -0.106956   1.000000
     19          0.100067   1.000000
     20          0.210842   1.000000
     21          0.330467   1.000000
     22          0.669400   1.000000
     23          0.771973   1.000000
     24          1.139760   1.000000
     25          1.390877   1.000000
     26          1.441782   1.000000
     27          1.561589   1.000000
     28          1.840212   1.000000
     29          2.151108   1.000000
     30          2.271072   1.000000
     31          2.328221   1.000000
     32          2.536132   1.000000
     33          2.586379   1.000000
     34          2.738948   1.000000
     35          2.870885   1.000000
     36          3.127439   1.000000
     37          3.230422   1.000000
     38          3.430785   1.000000
     39          3.499389   1.000000
     40          3.630696   1.000000
     41          4.536177   0.000000
     42          4.652625   0.000000
     43          5.238860   0.000000
     44          5.360254   0.000000
     45          5.495558   0.000000
     46          5.645038   0.000000
     47          5.894481   0.000000
     48          5.969042   0.000000
     49          6.199718   0.000000
     50          6.408778   0.000000
     51          6.549169   0.000000
 
  0.0000000E+00  0.2500000E+00  0.0000000E+00  0.3125000E-01
      1         -7.377553   1.000000
      2         -7.287893   1.000000
      3         -7.063434   1.000000
      4         -6.733316   1.000000
      5         -6.500030   1.000000
      6         -6.201755   1.000000
      7         -5.828403   1.000000
      8         -5.338804   1.000000
      9         -5.108533   1.000000
     10         -4.487629   1.000000
     11         -3.131825   1.000000
     12         -2.486738   1.000000
     13         -2.414495   1.000000
     14         -1.610533   1.000000
     15         -1.462366   1.000000
     16         -0.909327   1.000000
     17         -0.407003   1.000000
     18         -0.178768   1.000000
     19          0.074859   1.000000
     20          0.224077   1.000000
     21          0.344474   1.000000
     22          0.620573   1.000000
     23          0.762058   1.000000
     24          1.137460   1.000000
     25          1.435936   1.000000
     26          1.514037   1.000000
     27          1.550248   1.000000
     28          1.915035   1.000000
     29          2.114674   1.000000
     30          2.250415   1.000000
     31          2.303979   1.000000
     32          2.512817   1.000000
     33          2.608519   1.000000
     34          2.669674   1.000000
     35          2.788952   1.000000
     36          3.071815   1.000000
     37          3.277193   1.000000
     38          3.387182   1.000000
     39          3.612524   1.000000
     40          3.669096   1.000000
     41          4.603898   0.000000
     42          4.728140   0.000000
     43          5.242485   0.000000
     44          5.397520   0.000000
     45          5.514608   0.000000
     46          5.634489   0.000000
     47          5.937721   0.000000
     48          5.988017   0.000000
     49          6.109167   0.000000
     50          6.281864   0.000000
     51          6.583093   0.000000
 
  0.5000000E+00 -0.1639396E-16  0.0000000E+00  0.1562500E-01
      1         -6.225579   1.000000
      2         -6.155863   1.000000
      3         -6.001195   1.000000
      4         -5.707180   1.000000
      5         -5.449542   1.000000
      6         -5.237156   1.000000
      7         -5.013918   1.000000
      8         -4.639426   1.000000
      9         -4.548023   1.000000
     10         -4.149327   1.000000
     11         -3.969733   1.000000
     12         -3.610304   1.000000
     13         -3.276977   1.000000
     14         -3.139040   1.000000
     15         -2.873253   1.000000
     16         -2.640533   1.000000
     17         -2.472037   1.000000
     18         -2.229093   1.000000
     19         -1.924672   1.000000
     20         -1.726768   1.000000
     21          0.339516   1.000000
     22          0.520078   1.000000
     23          0.850565   1.000000
     24          0.904013   1.000000
     25          0.926005   1.000000
     26          1.118266   1.000000
     27          1.265642   1.000000
     28          1.353276   1.000000
     29          1.557006   1.000000
     30          1.630294   1.000000
     31          1.721863   1.000000
     32          1.946132   1.000000
     33          2.086257   1.000000
     34          2.104719   1.000000
     35          2.307125   1.000000
     36          2.473813   1.000000
     37          2.712338   1.000000
     38          2.819082   1.000000
     39          3.001064   1.000000
     40          3.110876   1.000000
     41          4.150345   0.426112
     42          4.254285   0.000886
     43          4.601125   0.000000
     44          4.808593   0.000000
     45          5.142279   0.000000
     46          5.199117   0.000000
     47          5.339902   0.000000
     48          5.511219   0.000000
     49          5.642228   0.000000
     50          5.772752   0.000000
     51          6.034798   0.000000
 
  0.5000000E+00  0.5000000E+00  0.0000000E+00  0.1562500E-01
      1         -6.106031   1.000000
      2         -6.067379   1.000000
      3         -5.911442   1.000000
      4         -5.618214   1.000000
      5         -5.347743   1.000000
      6         -5.195243   1.000000
      7         -4.978146   1.000000
      8         -4.686078   1.000000
      9         -4.554231   1.000000
     10         -4.128654   1.000000
     11         -4.004546   1.000000
     12         -3.661573   1.000000
     13         -3.259141   1.000000
     14         -3.244328   1.000000
     15         -3.050563   1.000000
     16         -2.901668   1.000000
     17         -2.454836   1.000000
     18         -2.298595   1.000000
     19         -2.031702   1.000000
     20         -1.896205   1.000000
     21          0.360872   1.000000
     22          0.574944   1.000000
     23          0.859603   1.000000
     24          0.897546   1.000000
     25          0.924300   1.000000
     26          1.106513   1.000000
     27          1.238786   1.000000
     28          1.329428   1.000000
     29          1.582083   1.000000
     30          1.638403   1.000000
     31          1.721129   1.000000
     32          1.937342   1.000000
     33          2.121866   1.000000
     34          2.157203   1.000000
     35          2.247545   1.000000
     36          2.544788   1.000000
     37          2.709778   1.000000
     38          2.812744   1.000000
     39          3.038699   1.000000
     40          3.068024   1.000000
     41          4.155914   0.365493
     42          4.239622   0.003350
     43          4.601894   0.000000
     44          4.799411   0.000000
     45          5.152637   0.000000
     46          5.242080   0.000000
     47          5.349096   0.000000
     48          5.578398   0.000000
     49          5.621634   0.000000
     50          5.831668   0.000000
     51          6.037487   0.000000
 
  0.0000000E+00  0.5000000E+00  0.0000000E+00  0.1562500E-01
      1         -6.157580   1.000000
      2         -6.095146   1.000000
      3         -5.892364   1.000000
      4         -5.627233   1.000000
      5         -5.453104   1.000000
      6         -5.149871   1.000000
      7         -5.036075   1.000000
      8         -4.737772   1.000000
      9         -4.470065   1.000000
     10         -4.122068   1.000000
     11         -4.007699   1.000000
     12         -3.628192   1.000000
     13         -3.211909   1.000000
     14         -3.091894   1.000000
     15         -2.972309   1.000000
     16         -2.871578   1.000000
     17         -2.507154   1.000000
     18         -2.417840   1.000000
     19         -2.033724   1.000000
     20         -1.898811   1.000000
     21          0.315601   1.000000
     22          0.548332   1.000000
     23          0.871525   1.000000
     24          0.937965   1.000000
     25          0.990859   1.000000
     26          1.152410   1.000000
     27          1.218058   1.000000
     28          1.389648   1.000000
     29          1.573812   1.000000
     30          1.632567   1.000000
     31          1.710554   1.000000
     32          1.809538   1.000000
     33          2.088730   1.000000
     34          2.161594   1.000000
     35          2.295180   1.000000
     36          2.370914   1.000000
     37          2.770353   1.000000
     38          2.870960   1.000000
     39          3.048613   1.000000
     40          3.145563   1.000000
     41          4.210212   0.030082
     42          4.311401   0.000001
     43          4.612149   0.000000
     44          4.878662   0.000000
     45          5.178031   0.000000
     46          5.201137   0.000000
     47          5.384550   0.000000
     48          5.494045   0.000000
     49          5.691448   0.000000
     50          5.743090   0.000000
     51          6.008392   0.000000
 
  0.5000000E+00  0.2500000E+00  0.0000000E+00  0.3125000E-01
      1         -6.292351   1.000000
      2         -6.213341   1.000000
      3         -6.037652   1.000000
      4         -5.708606   1.000000
      5         -5.466325   1.000000
      6         -5.245488   1.000000
      7         -4.957213   1.000000
      8         -4.565790   1.000000
      9         -4.394342   1.000000
     10         -3.990041   1.000000
     11         -3.869669   1.000000
     12         -3.561390   1.000000
     13         -3.215324   1.000000
     14         -3.052928   1.000000
     15         -2.799144   1.000000
     16         -2.554210   1.000000
     17         -2.213191   1.000000
     18         -1.820313   1.000000
     19         -1.549088   1.000000
     20         -1.315926   1.000000
     21         -0.235428   1.000000
     22         -0.156523   1.000000
     23          0.271387   1.000000
     24          0.354470   1.000000
     25          0.618554   1.000000
     26          0.658338   1.000000
     27          0.717047   1.000000
     28          0.756994   1.000000
     29          0.900683   1.000000
     30          1.084462   1.000000
     31          1.187991   1.000000
     32          1.467793   1.000000
     33          1.554484   1.000000
     34          1.907058   1.000000
     35          1.939198   1.000000
     36          2.205369   1.000000
     37          2.439400   1.000000
     38          2.509527   1.000000
     39          2.916614   1.000000
     40          3.101008   1.000000
     41          5.658097   0.000000
     42          5.809709   0.000000
     43          6.112402   0.000000
     44          6.176959   0.000000
     45          6.661471   0.000000
     46          6.794773   0.000000
     47          6.811094   0.000000
     48          7.018622   0.000000
     49          7.185201   0.000000
     50          7.379413   0.000000
     51          7.505661   0.000000
 
  0.2500000E+00  0.5000000E+00  0.0000000E+00  0.3125000E-01
      1         -6.260201   1.000000
      2         -6.180053   1.000000
      3         -5.985238   1.000000
      4         -5.681049   1.000000
      5         -5.454553   1.000000
      6         -5.223323   1.000000
      7         -4.938319   1.000000
      8         -4.597693   1.000000
      9         -4.356539   1.000000
     10         -3.998960   1.000000
     11         -3.878247   1.000000
     12         -3.619742   1.000000
     13         -3.164958   1.000000
     14         -3.058136   1.000000
     15         -2.816034   1.000000
     16         -2.602350   1.000000
     17         -2.343459   1.000000
     18         -1.948400   1.000000
     19         -1.684196   1.000000
     20         -1.422230   1.000000
     21         -0.191349   1.000000
     22         -0.100858   1.000000
     23          0.334548   1.000000
     24          0.381379   1.000000
     25          0.657633   1.000000
     26          0.704146   1.000000
     27          0.774131   1.000000
     28          0.789849   1.000000
     29          0.970692   1.000000
     30          1.014328   1.000000
     31          1.236225   1.000000
     32          1.432536   1.000000
     33          1.521237   1.000000
     34          1.820435   1.000000
     35          1.948942   1.000000
     36          2.208254   1.000000
     37          2.510378   1.000000
     38          2.645991   1.000000
     39          2.871099   1.000000
     40          3.095627   1.000000
     41          5.682499   0.000000
     42          5.774876   0.000000
     43          6.109504   0.000000
     44          6.250599   0.000000
     45          6.553694   0.000000
     46          6.624649   0.000000
     47          6.841958   0.000000
     48          7.068674   0.000000
     49          7.164778   0.000000
     50          7.399470   0.000000
     51          7.558315   0.000000
 
 -0.2500000E+00  0.2500000E+00  0.0000000E+00  0.3125000E-01
      1         -6.309701   1.000000
      2         -6.225081   1.000000
      3         -6.031068   1.000000
      4         -5.728628   1.000000
      5         -5.501439   1.000000
      6         -5.249149   1.000000
      7         -4.972014   1.000000
      8         -4.563388   1.000000
      9         -4.379860   1.000000
     10         -3.994138   1.000000
     11         -3.864811   1.000000
     12         -3.559491   1.000000
     13         -3.139341   1.000000
     14         -3.017022   1.000000
     15         -2.733619   1.000000
     16         -2.547579   1.000000
     17         -2.194342   1.000000
     18         -1.896923   1.000000
     19         -1.576311   1.000000
     20         -1.349337   1.000000
     21         -0.228955   1.000000
     22         -0.134635   1.000000
     23          0.307342   1.000000
     24          0.369905   1.000000
     25          0.616335   1.000000
     26          0.661870   1.000000
     27          0.718080   1.000000
     28          0.751393   1.000000
     29          0.964166   1.000000
     30          0.993902   1.000000
     31          1.208244   1.000000
     32          1.425258   1.000000
     33          1.474009   1.000000
     34          1.833871   1.000000
     35          1.945084   1.000000
     36          2.229361   1.000000
     37          2.503781   1.000000
     38          2.644859   1.000000
     39          2.858807   1.000000
     40          3.049011   1.000000
     41          5.740055   0.000000
     42          5.845746   0.000000
     43          6.097201   0.000000
     44          6.270050   0.000000
     45          6.566185   0.000000
     46          6.654825   0.000000
     47          6.891690   0.000000
     48          7.075921   0.000000
     49          7.146877   0.000000
     50          7.455298   0.000000
     51          7.492333   0.000000
 
  0.0000000E+00  0.0000000E+00  0.2500000E+00  0.3125000E-01
      1         -7.984682   1.000000
      2         -7.895132   1.000000
      3         -7.661873   1.000000
      4         -7.348371   1.000000
      5         -7.053479   1.000000
      6         -6.843873   1.000000
      7         -6.360759   1.000000
      8         -6.016651   1.000000
      9         -5.630754   1.000000
     10         -5.067137   1.000000
     11         -2.879521   1.000000
     12         -2.271699   1.000000
     13         -1.720778   1.000000
     14         -0.957104   1.000000
     15         -0.185446   1.000000
     16          0.688828   1.000000
     17          1.690209   1.000000
     18          2.037028   1.000000
     19          2.171020   1.000000
     20          2.221433   1.000000
     21          2.327625   1.000000
     22          2.433760   1.000000
     23          2.578678   1.000000
     24          2.747825   1.000000
     25          2.889829   1.000000
     26          2.963546   1.000000
     27          3.061186   1.000000
     28          3.086278   1.000000
     29          3.198069   1.000000
     30          3.292313   1.000000
     31          3.312421   1.000000
     32          3.465609   1.000000
     33          3.488010   1.000000
     34          3.560943   1.000000
     35          3.648049   1.000000
     36          3.678894   1.000000
     37          3.735770   1.000000
     38          3.864433   1.000000
     39          3.948921   1.000000
     40          4.169404   0.234116
     41          4.327184   0.000000
     42          4.367720   0.000000
     43          4.457673   0.000000
     44          4.540370   0.000000
     45          4.623671   0.000000
     46          4.844208   0.000000
     47          5.063687   0.000000
     48          5.210633   0.000000
     49          5.522123   0.000000
     50          5.901083   0.000000
     51          6.045684   0.000000
 
  0.2500000E+00 -0.8196982E-17  0.2500000E+00  0.3125000E-01
      1         -7.388169   1.000000
      2         -7.298589   1.000000
      3         -7.077203   1.000000
      4         -6.756849   1.000000
      5         -6.476440   1.000000
      6         -6.252584   1.000000
      7         -5.801316   1.000000
      8         -5.416502   1.000000
      9         -5.076882   1.000000
     10         -4.515211   1.000000
     11         -3.095818   1.000000
     12         -2.565648   1.000000
     13         -2.259827   1.000000
     14         -1.676990   1.000000
     15         -1.331168   1.000000
     16         -0.946219   1.000000
     17         -0.290459   1.000000
     18         -0.160498   1.000000
     19          0.104378   1.000000
     20          0.275414   1.000000
     21          0.419071   1.000000
     22          0.681271   1.000000
     23          0.887908   1.000000
     24          1.021839   1.000000
     25          1.354030   1.000000
     26          1.441471   1.000000
     27          1.798209   1.000000
     28          1.859196   1.000000
     29          2.058612   1.000000
     30          2.116033   1.000000
     31          2.308117   1.000000
     32          2.426007   1.000000
     33          2.593264   1.000000
     34          2.777609   1.000000
     35          2.892120   1.000000
     36          3.064655   1.000000
     37          3.237900   1.000000
     38          3.359319   1.000000
     39          3.524008   1.000000
     40          3.586281   1.000000
     41          4.537751   0.000000
     42          4.644003   0.000000
     43          5.183149   0.000000
     44          5.409315   0.000000
     45          5.466568   0.000000
     46          5.588323   0.000000
     47          5.829470   0.000000
     48          6.002118   0.000000
     49          6.124553   0.000000
     50          6.355969   0.000000
     51          6.653941   0.000000
 
  0.2500000E+00  0.2500000E+00  0.2500000E+00  0.3125000E-01
      1         -7.370264   1.000000
      2         -7.283992   1.000000
      3         -7.060843   1.000000
      4         -6.741159   1.000000
      5         -6.453611   1.000000
      6         -6.247551   1.000000
      7         -5.767552   1.000000
      8         -5.418260   1.000000
      9         -5.044077   1.000000
     10         -4.506621   1.000000
     11         -3.112157   1.000000
     12         -2.615034   1.000000
     13         -2.269460   1.000000
     14         -1.735513   1.000000
     15         -1.388989   1.000000
     16         -0.981776   1.000000
     17         -0.465565   1.000000
     18         -0.055348   1.000000
     19          0.100716   1.000000
     20          0.189115   1.000000
     21          0.325086   1.000000
     22          0.665829   1.000000
     23          0.714860   1.000000
     24          1.295874   1.000000
     25          1.390912   1.000000
     26          1.429823   1.000000
     27          1.475242   1.000000
     28          1.840698   1.000000
     29          2.153143   1.000000
     30          2.220759   1.000000
     31          2.284174   1.000000
     32          2.537932   1.000000
     33          2.675236   1.000000
     34          2.778275   1.000000
     35          2.900083   1.000000
     36          3.122280   1.000000
     37          3.205189   1.000000
     38          3.358575   1.000000
     39          3.529649   1.000000
     40          3.615837   1.000000
     41          4.558299   0.000000
     42          4.658745   0.000000
     43          5.196374   0.000000
     44          5.388840   0.000000
     45          5.524561   0.000000
     46          5.690729   0.000000
     47          5.797732   0.000000
     48          6.031646   0.000000
     49          6.157386   0.000000
     50          6.353856   0.000000
     51          6.561732   0.000000
 
  0.0000000E+00  0.2500000E+00  0.2500000E+00  0.3125000E-01
      1         -7.377161   1.000000
      2         -7.289039   1.000000
      3         -7.060583   1.000000
      4         -6.744953   1.000000
      5         -6.471752   1.000000
      6         -6.237794   1.000000
      7         -5.789836   1.000000
      8         -5.393235   1.000000
      9         -5.066352   1.000000
     10         -4.499154   1.000000
     11         -3.113901   1.000000
     12         -2.596739   1.000000
     13         -2.287164   1.000000
     14         -1.730588   1.000000
     15         -1.331116   1.000000
     16         -0.977402   1.000000
     17         -0.316577   1.000000
     18         -0.253667   1.000000
     19          0.074627   1.000000
     20          0.243448   1.000000
     21          0.328597   1.000000
     22          0.620904   1.000000
     23          0.860763   1.000000
     24          0.958497   1.000000
     25          1.434901   1.000000
     26          1.517219   1.000000
     27          1.741719   1.000000
     28          1.917095   1.000000
     29          2.080713   1.000000
     30          2.144973   1.000000
     31          2.320102   1.000000
     32          2.433470   1.000000
     33          2.583337   1.000000
     34          2.698048   1.000000
     35          2.884289   1.000000
     36          3.077459   1.000000
     37          3.267783   1.000000
     38          3.452010   1.000000
     39          3.560676   1.000000
     40          3.656579   1.000000
     41          4.610147   0.000000
     42          4.707202   0.000000
     43          5.213834   0.000000
     44          5.477285   0.000000
     45          5.525218   0.000000
     46          5.580202   0.000000
     47          5.901559   0.000000
     48          6.024806   0.000000
     49          6.155225   0.000000
     50          6.226058   0.000000
     51          6.639529   0.000000
 
 -0.2500000E+00  0.8196982E-17  0.2500000E+00  0.3125000E-01
      1         -7.387991   1.000000
      2         -7.299123   1.000000
      3         -7.075834   1.000000
      4         -6.762226   1.000000
      5         -6.457800   1.000000
      6         -6.276213   1.000000
      7         -5.773939   1.000000
      8         -5.452635   1.000000
      9         -5.050650   1.000000
     10         -4.525781   1.000000
     11         -3.073266   1.000000
     12         -2.631685   1.000000
     13         -2.183844   1.000000
     14         -1.725828   1.000000
     15         -1.317556   1.000000
     16         -0.922439   1.000000
     17         -0.393403   1.000000
     18         -0.041253   1.000000
     19          0.140202   1.000000
     20          0.248687   1.000000
     21          0.349109   1.000000
     22          0.712557   1.000000
     23          0.764841   1.000000
     24          1.317519   1.000000
     25          1.358721   1.000000
     26          1.441560   1.000000
     27          1.485322   1.000000
     28          1.853474   1.000000
     29          2.096649   1.000000
     30          2.215343   1.000000
     31          2.280616   1.000000
     32          2.489906   1.000000
     33          2.594856   1.000000
     34          2.778752   1.000000
     35          2.920807   1.000000
     36          3.078141   1.000000
     37          3.186850   1.000000
     38          3.279061   1.000000
     39          3.540263   1.000000
     40          3.597829   1.000000
     41          4.551436   0.000000
     42          4.663890   0.000000
     43          5.189704   0.000000
     44          5.375646   0.000000
     45          5.483449   0.000000
     46          5.658293   0.000000
     47          5.773848   0.000000
     48          6.002663   0.000000
     49          6.095239   0.000000
     50          6.330738   0.000000
     51          6.581364   0.000000
 
 -0.2500000E+00 -0.2500000E+00  0.2500000E+00  0.3125000E-01
      1         -7.370226   1.000000
      2         -7.284098   1.000000
      3         -7.060609   1.000000
      4         -6.741913   1.000000
      5         -6.451544   1.000000
      6         -6.249732   1.000000
      7         -5.766011   1.000000
      8         -5.419467   1.000000
      9         -5.043725   1.000000
     10         -4.506575   1.000000
     11         -3.110956   1.000000
     12         -2.625071   1.000000
     13         -2.247457   1.000000