Si and Ge interface calculation         
           1
     3.920200    0.000000    0.000000
     1.960100    3.394993    0.000000
     0.000000    0.000000   27.919005
   Si   Ge
    10    10
Direct configuration=     1
   0.15634437  0.18473304  0.00093828
   0.15634437  0.18473304  0.08515542
   0.82301104  0.85139971  0.11322781
   0.82301104  0.85139971  0.19744495
   0.48967770  0.51806638  0.22551734
   0.48967770  0.51806638  0.30973448
   0.15634437  0.18473304  0.33780687
   0.15634437  0.18473304  0.42202402
   0.82301104  0.85139971  0.45009640
   0.82301104  0.85139971  0.53431355
   0.00161545  0.16329819  0.48975145
   0.00161545  0.16329819  0.57750479
   0.66828212  0.82996486  0.60675590
   0.66828212  0.82996486  0.69450924
   0.33494879  0.49663152  0.72376035
   0.33494879  0.49663152  0.81151369
   0.00161545  0.16329819  0.84076480
   0.00161545  0.16329819  0.92851814
   0.66828212  0.82996486  0.95776925
   0.66828212  0.82996486  0.04552259
Si and Ge interface calculation         
           1
     4.353374    0.031171    0.013179
     2.203682    3.722191    0.062951
     0.093857    0.463497   34.438498
   Si   Ge
    10    10
Direct configuration=     2
   0.09963981  0.23301143  0.00798033
   0.10344193  0.21414413  0.09275835
   0.85896667  0.86042798  0.12684829
   0.82346670  0.85174193  0.19833914
   0.48977088  0.51831111  0.22509664
   0.48968288  0.51875084  0.31015532
   0.15672552  0.18527942  0.33696569
   0.19517659  0.18636422  0.40903834
   0.79083361  0.80738893  0.44105399
   0.79673190  0.78773888  0.52692059
   0.02377351  0.23802210  0.50195299
   0.02829577  0.19500118  0.58458505
   0.63918873  0.83006382  0.61597692
   0.66742140  0.82883722  0.69480011
   0.33458895  0.49724355  0.72421023
   0.33490456  0.49606288  0.81107868
   0.00077540  0.16256761  0.84048575
   0.97525536  0.15730452  0.91893664
   0.71068028  0.80777068  0.95188136
   0.72694445  0.77094656  0.03356489
Si and Ge interface calculation         
           1
     4.140085    0.015823    0.006690
     2.083746    3.561083    0.031955
     0.047643    0.235278   31.228391
   Si   Ge
    10    10
Direct configuration=     3
   0.12504682  0.21146304  0.00519900
   0.12703912  0.20111399  0.08973825
   0.84278155  0.85718441  0.12142348
   0.82325089  0.85163446  0.19798248
   0.48973778  0.51818054  0.22526482
   0.48967748  0.51846434  0.30998786
   0.15657290  0.18499344  0.33730205
   0.17811089  0.18512801  0.41423066
   0.80506092  0.82659074  0.44462293
   0.80819346  0.81587263  0.52981585
   0.01413003  0.20514268  0.49714625
   0.01647867  0.18121047  0.58178853
   0.65199045  0.83037119  0.61229068
   0.66779339  0.82935512  0.69468291
   0.33474518  0.49698969  0.72403106
   0.33492824  0.49629649  0.81125189
   0.00114993  0.16287880  0.84059643
   0.98711797  0.15942174  0.92275291
   0.69177297  0.81760516  0.95422091
   0.70068625  0.79708207  0.03830036
Si and Ge interface calculation         
           1
     4.135684    0.015506    0.006556
     2.081271    3.557759    0.031315
     0.046690    0.230569   31.162157
   Si   Ge
    10    10
Direct configuration=     4
   0.12559528  0.21099720  0.00513540
   0.12754958  0.20083141  0.08966938
   0.84243278  0.85710668  0.12129992
   0.82324634  0.85163170  0.19797436
   0.48973698  0.51817792  0.22526865
   0.48967739  0.51845796  0.30998404
   0.15656943  0.18498766  0.33730970
   0.17773917  0.18510606  0.41434871
   0.80537007  0.82701024  0.44470457
   0.80844413  0.81648372  0.52988232
   0.01391886  0.20442714  0.49703621
   0.01622210  0.18090877  0.58172459
   0.65226913  0.83037453  0.61220686
   0.66780156  0.82936618  0.69468026
   0.33474860  0.49698402  0.72402697
   0.33492872  0.49630173  0.81125584
   0.00115804  0.16288567  0.84059896
   0.98737362  0.15947291  0.92283983
   0.69136391  0.81781841  0.95427426
   0.70011918  0.79764907  0.03840851
Si and Ge interface calculation         
           1
     4.128333    0.014977    0.006332
     2.077137    3.552206    0.030247
     0.045097    0.222703   31.051519
   Si   Ge
    10    10
Direct configuration=     5
   0.12651233  0.21021828  0.00502892
   0.12840313  0.20035888  0.08955408
   0.84184967  0.85697642  0.12109309
   0.82323874  0.85162707  0.19796077
   0.48973564  0.51817355  0.22527505
   0.48967724  0.51844730  0.30997765
   0.15656362  0.18497800  0.33732250
   0.17711754  0.18506955  0.41454631
   0.80588704  0.82771184  0.44484124
   0.80886338  0.81750560  0.52999361
   0.01356568  0.20323054  0.49685197
   0.01579307  0.18040418  0.58161753
   0.65273518  0.83037999  0.61206656
   0.66781522  0.82938467  0.69467581
   0.33475432  0.49697453  0.72402014
   0.33492951  0.49631051  0.81126244
   0.00117159  0.16289717  0.84060318
   0.98780106  0.15955868  0.92298533
   0.69067993  0.81817502  0.95436356
   0.69917102  0.79859721  0.03858956
Si and Ge interface calculation         
           1
     4.070608    0.001185    0.009727
     2.036377    3.515481    0.034577
     0.068908    0.242253   31.233938
   Si   Ge
    10    10
Direct configuration=     6
   0.11444880  0.20670144  0.00527509
   0.13149884  0.19782374  0.09171721
   0.84044627  0.85793959  0.12069483
   0.82322250  0.85250836  0.19915980
   0.49012714  0.51803089  0.22567506
   0.48974816  0.51854741  0.30960905
   0.15715095  0.18464993  0.33616733
   0.17584285  0.18230020  0.41448097
   0.80740910  0.83169195  0.44321132
   0.79406603  0.82017881  0.52921717
   0.02827949  0.20026653  0.49656395
   0.01277008  0.17618727  0.58294611
   0.65475770  0.83353858  0.61324289
   0.66691151  0.82960256  0.69510556
   0.33526891  0.49707679  0.72456671
   0.33449440  0.49597073  0.81076907
   0.00131159  0.16280234  0.84004785
   0.99021762  0.15746399  0.92216007
   0.68667550  0.82157514  0.95258110
   0.71161746  0.80212275  0.03943819
Si and Ge interface calculation         
           1
     3.945687   -0.028663    0.017075
     1.948169    3.436007    0.043946
     0.120438    0.284560   31.628701
   Si   Ge
    10    10
Direct configuration=     7
   0.08798567  0.19890598  0.00580892
   0.13823888  0.19228240  0.09637106
   0.83738485  0.86003825  0.11983805
   0.82318783  0.85442193  0.20173912
   0.49098050  0.51771780  0.22653560
   0.48990706  0.51877106  0.30881596
   0.15844201  0.18395043  0.33368203
   0.17302243  0.17623443  0.41434162
   0.81079556  0.84042627  0.43970298
   0.76168562  0.82590714  0.52754959
   0.06048120  0.19391346  0.49594156
   0.00609547  0.16692575  0.58580658
   0.65921266  0.84044943  0.61577212
   0.66493124  0.83006655  0.69603029
   0.33639341  0.49729869  0.72574244
   0.33354115  0.49522953  0.80970784
   0.00162107  0.16260236  0.83885309
   0.99549505  0.15291332  0.92038465
   0.67795130  0.82899596  0.94874616
   0.73891194  0.80992825  0.04125965
Si and Ge interface calculation         
           1
     3.943586   -0.021588    0.012090
     1.953315    3.445725    0.042304
     0.081200    0.293289   31.580880
   Si   Ge
    10    10
Direct configuration=     8
   0.07987366  0.19087666  0.00667532
   0.14640574  0.19308592  0.09786960
   0.83162876  0.85911701  0.12073794
   0.82389538  0.85510009  0.20229417
   0.49094511  0.51710264  0.22721444
   0.49078742  0.51959851  0.30815364
   0.15848141  0.18271792  0.33308794
   0.16824549  0.17526816  0.41357286
   0.81702840  0.84168562  0.43834273
   0.74735227  0.83042192  0.52636121
   0.07480386  0.18910135  0.49630507
   0.00235768  0.16665868  0.58675301
   0.66086795  0.84084534  0.61696058
   0.66494578  0.83193364  0.69648036
   0.33582730  0.49587738  0.72647746
   0.33348506  0.49686977  0.80902058
   0.00106455  0.16098237  0.83846928
   0.99995893  0.15423656  0.91897549
   0.67111970  0.82801339  0.94780326
   0.74719046  0.81748607  0.04107435
Si and Ge interface calculation         
           1
     3.940902   -0.012551    0.005723
     1.959888    3.458140    0.040207
     0.031078    0.304440   31.519795
   Si   Ge
    10    10
Direct configuration=     9
   0.06950693  0.18066756  0.00778149
   0.15687563  0.19408300  0.09978842
   0.82427740  0.85795569  0.12188794
   0.82480860  0.85596020  0.20300445
   0.49090948  0.51631691  0.22808284
   0.49190434  0.52065239  0.30730657
   0.15852317  0.18114985  0.33232783
   0.16212295  0.17405243  0.41258834
   0.82498313  0.84327787  0.43660391
   0.72899831  0.83621433  0.52483828
   0.09313232  0.18293298  0.49677268
   0.99758921  0.16632518  0.58796302
   0.66300271  0.84134137  0.61848136
   0.66497103  0.83431038  0.69705629
   0.33511339  0.49406601  0.72741757
   0.33340368  0.49896148  0.80814146
   0.00034687  0.15892160  0.83797805
   0.00564983  0.15591502  0.91717373
   0.66236602  0.82678290  0.94659552
   0.75777991  0.82709187  0.04083953
Si and Ge interface calculation         
           1
     3.979802   -0.016122    0.010131
     1.976210    3.475384    0.033913
     0.066423    0.231091   31.314668
   Si   Ge
    10    10
Direct configuration=    10
   0.07117516  0.17817905  0.00882232
   0.15815538  0.19561925  0.10003580
   0.82439226  0.85752215  0.12326937
   0.82440150  0.85570159  0.20287555
   0.49155995  0.51655691  0.22844333
   0.49164939  0.52049160  0.30692508
   0.15900083  0.18116930  0.33245982
   0.16065102  0.17642788  0.41166917
   0.82736271  0.84076409  0.43622117
   0.73538903  0.83422906  0.52406571
   0.08722817  0.18481948  0.49731107
   0.99612600  0.17006712  0.58803214
   0.66287348  0.83816979  0.61881990
   0.66473033  0.83561029  0.69768174
   0.33507862  0.49285243  0.72763224
   0.33290043  0.50025164  0.80791271
   0.00052037  0.15792753  0.83742386
   0.00244251  0.15806760  0.91652418
   0.66413040  0.82363170  0.94667873
   0.75649735  0.82892057  0.03982544
Si and Ge interface calculation         
           1
     4.037633   -0.021430    0.016683
     2.000475    3.501020    0.024555
     0.118969    0.122044   31.009710
   Si   Ge
    10    10
Direct configuration=    11
   0.07360613  0.17453216  0.01037870
   0.16002764  0.19790124  0.10040618
   0.82452285  0.85692326  0.12533637
   0.82380680  0.85531450  0.20268267
   0.49250618  0.51692392  0.22898270
   0.49128554  0.52024171  0.30635423
   0.15969985  0.18120281  0.33265722
   0.15850568  0.17991152  0.41029477
   0.83088112  0.83703730  0.43564717
   0.74481938  0.83127805  0.52290770
   0.07852073  0.18761793  0.49811849
   0.99396196  0.17560244  0.58813701
   0.66268135  0.83348832  0.61932554
   0.66435513  0.83755199  0.69861811
   0.33502429  0.49106373  0.72795311
   0.33216335  0.50215239  0.80757090
   0.00079390  0.15644032  0.83659422
   0.99773652  0.16122726  0.91555352
   0.66673182  0.81897535  0.94680192
   0.75463469  0.83159279  0.03830879
Si and Ge interface calculation         
           1
     4.023467   -0.016878    0.014294
     1.997423    3.509092    0.026576
     0.101298    0.151569   30.816666
   Si   Ge
    10    10
Direct configuration=    12
   0.07946095  0.17193404  0.01211763
   0.16048896  0.19772578  0.10080576
   0.82544718  0.85857961  0.12638508
   0.82465642  0.85392847  0.20320738
   0.49193042  0.51812933  0.22880755
   0.49190343  0.51886575  0.30651557
   0.15921279  0.18242041  0.33221664
   0.16056372  0.17953190  0.40963691
   0.82980575  0.83683231  0.43498582
   0.74820618  0.83455508  0.52142280
   0.07585950  0.18443845  0.49916053
   0.99447057  0.17616008  0.58849000
   0.65967884  0.83381985  0.61915082
   0.66625961  0.83516037  0.69977706
   0.33354948  0.49324028  0.72774408
   0.33339909  0.49952347  0.80775647
   0.99900681  0.15924409  0.83542762
   0.99591050  0.16056702  0.91545850
   0.66655441  0.81857226  0.94668666
   0.74990028  0.83375045  0.03687644
Si and Ge interface calculation         
           1
     4.006810   -0.011525    0.011485
     1.993835    3.518583    0.028952
     0.080518    0.186288   30.589668
   Si   Ge
    10    10
Direct configuration=    13
   0.08638580  0.16885945  0.01417596
   0.16103729  0.19751519  0.10127863
   0.82655282  0.86051077  0.12762594
   0.82566181  0.85229578  0.20382843
   0.49125152  0.51954615  0.22860016
   0.49263155  0.51724891  0.30670665
   0.15863598  0.18385411  0.33169518
   0.16298635  0.17909011  0.40885872
   0.82852890  0.83660015  0.43420318
   0.75219764  0.83840968  0.51966583
   0.07272056  0.18070171  0.50039353
   0.99507590  0.17680995  0.58890768
   0.65613254  0.83421510  0.61894379
   0.66851465  0.83233988  0.70114874
   0.33181082  0.49579815  0.72749645
   0.33485423  0.49643547  0.80797636
   0.99689121  0.16254801  0.83404686
   0.99375197  0.15979615  0.91534595
   0.66634289  0.81810080  0.94655028
   0.74430047  0.83630349  0.03518101
Si and Ge interface calculation         
           1
     4.010083   -0.007600    0.008809
     1.998888    3.516853    0.028432
     0.059884    0.192144   30.752368
   Si   Ge
    10    10
Direct configuration=    14
   0.08676080  0.17185579  0.01635707
   0.15934652  0.19865620  0.10200526
   0.82861330  0.86147057  0.12737318
   0.82563844  0.85336386  0.20507795
   0.49169267  0.51836492  0.22848551
   0.49249510  0.51832225  0.30691561
   0.15902927  0.18297179  0.33077564
   0.16445869  0.17736596  0.40888255
   0.82815753  0.83652634  0.43329505
   0.75091210  0.83977595  0.51759341
   0.07523026  0.18019411  0.50170555
   0.99378671  0.17638693  0.58953196
   0.65344267  0.83620910  0.61900888
   0.66791953  0.83148329  0.70142034
   0.33285343  0.49608909  0.72752268
   0.33313439  0.49754027  0.80795716
   0.99853541  0.16132007  0.83361274
   0.99290108  0.15789981  0.91550413
   0.66503990  0.81818892  0.94590149
   0.74631709  0.83299380  0.03370314
Si and Ge interface calculation         
           1
     4.015367   -0.001264    0.004489
     2.007043    3.514061    0.027592
     0.026580    0.201597   31.014978
   Si   Ge
    10    10
Direct configuration=    15
   0.08737943  0.17668898  0.01985904
   0.15662237  0.20050023  0.10317169
   0.83193347  0.86301733  0.12696768
   0.82561004  0.85508594  0.20708411
   0.49240631  0.51645687  0.22830146
   0.49227430  0.52005532  0.30725111
   0.15965728  0.18154827  0.32929933
   0.16683894  0.17457897  0.40892097
   0.82754979  0.83640983  0.43183696
   0.74881462  0.84198916  0.51426594
   0.07929379  0.17936698  0.50381239
   0.99171338  0.17570477  0.59053407
   0.64909794  0.83943385  0.61911305
   0.66696387  0.83010050  0.70185630
   0.33453539  0.49655698  0.72756495
   0.33035631  0.49932753  0.80792613
   0.00118743  0.15933508  0.83291595
   0.99153414  0.15483868  0.91575791
   0.66293093  0.81833502  0.94485966
   0.74956517  0.82764873  0.03133059
Si and Ge interface calculation         
           1
     4.024780   -0.002083    0.004780
     2.011036    3.518140    0.027362
     0.028838    0.198490   31.020498
   Si   Ge
    10    10
Direct configuration=    16
   0.08718188  0.17671485  0.02139758
   0.15614851  0.20122645  0.10359628
   0.83205781  0.86353020  0.12702746
   0.82543150  0.85545061  0.20735288
   0.49275733  0.51624022  0.22858801
   0.49210043  0.52031150  0.30707408
   0.15994273  0.18129502  0.32911809
   0.16663167  0.17354534  0.40867800
   0.82809809  0.83614934  0.43133245
   0.74890922  0.84215736  0.51274909
   0.08027012  0.17969847  0.50478878
   0.99023192  0.17566946  0.59094514
   0.64843610  0.84037873  0.61935366
   0.66665547  0.83021323  0.70168428
   0.33515483  0.49613847  0.72769972
   0.32984463  0.49953862  0.80774729
   0.00184843  0.15891921  0.83303783
   0.99093718  0.15393266  0.91570624
   0.66214663  0.81832089  0.94440631
   0.75148041  0.82754836  0.03034613
Si and Ge interface calculation         
           1
     4.053022   -0.004540    0.005651
     2.023013    3.530377    0.026669
     0.035614    0.189169   31.037060
   Si   Ge
    10    10
Direct configuration=    17
   0.08658603  0.17679635  0.02601236
   0.15472824  0.20340340  0.10486985
   0.83242910  0.86506730  0.12720675
   0.82489594  0.85654397  0.20815908
   0.49380722  0.51559205  0.22944750
   0.49158031  0.52107857  0.30654309
   0.16079786  0.18053585  0.32857443
   0.16601337  0.17044726  0.40794922
   0.82974079  0.83536778  0.42981916
   0.74919670  0.84265738  0.50819934
   0.08318857  0.18069506  0.50771741
   0.98579727  0.17556372  0.59217818
   0.64645355  0.84321027  0.62007539
   0.66573293  0.83055037  0.70116834
   0.33700870  0.49488521  0.72810394
   0.32831361  0.50017034  0.80721089
   0.00382673  0.15767381  0.83340339
   0.98915197  0.15121720  0.91555124
   0.65980088  0.81827681  0.94304650
   0.75721513  0.82724629  0.02739323
Si and Ge interface calculation         
           1
     4.109505   -0.009453    0.007395
     2.046967    3.554851    0.025284
     0.049165    0.170528   31.070183
   Si   Ge
    10    10
Direct configuration=    18
   0.08537518  0.17698256  0.03523702
   0.15189552  0.20774703  0.10741582
   0.83316141  0.86813230  0.12756521
   0.82382513  0.85872665  0.20977070
   0.49588807  0.51430624  0.23116545
   0.49054899  0.52260384  0.30548174
   0.16250071  0.17902107  0.32748762
   0.16479778  0.16426786  0.40649232
   0.83301316  0.83380429  0.42679408
   0.74979349  0.84363008  0.49910472
   0.08896280  0.18270097  0.51357142
   0.97698567  0.17535345  0.59464317
   0.64250620  0.84885482  0.62151833
   0.66390360  0.83121830  0.70013709
   0.34068997  0.49239207  0.72891178
   0.32527565  0.50142443  0.80613878
   0.00775524  0.15519634  0.83413395
   0.98561524  0.14580184  0.91524135
   0.65515194  0.81817848  0.94032847
   0.76861915  0.82663640  0.02149027
Si and Ge interface calculation         
           1
     4.110293   -0.009450    0.007193
     2.047361    3.554512    0.024584
     0.047572    0.165083   31.104092
   Si   Ge
    10    10
Direct configuration=    19
   0.08569953  0.17665369  0.03614125
   0.15182525  0.20809085  0.10773715
   0.83296823  0.86849696  0.12769537
   0.82381369  0.85875908  0.20985723
   0.49598145  0.51436087  0.23131025
   0.49054291  0.52258703  0.30540578
   0.16255155  0.17899684  0.32742124
   0.16474617  0.16375821  0.40627934
   0.83323132  0.83355243  0.42642393
   0.75004004  0.84380888  0.49822099
   0.08926200  0.18279752  0.51423677
   0.97629217  0.17549351  0.59488464
   0.64206991  0.84927975  0.62164884
   0.66391187  0.83125650  0.70007047
   0.34083696  0.49223119  0.72893448
   0.32526566  0.50138288  0.80608116
   0.00790130  0.15512563  0.83421012
   0.98530992  0.14543313  0.91518327
   0.65480197  0.81802024  0.94007128
   0.76921299  0.82689382  0.02081574
Si and Ge interface calculation         
           1
     4.112655   -0.009441    0.006586
     2.048543    3.553493    0.022487
     0.042795    0.148747   31.205819
   Si   Ge
    10    10
Direct configuration=    20
   0.08667152  0.17567126  0.03885097
   0.15161396  0.20912392  0.10870012
   0.83238849  0.86959166  0.12808544
   0.82377926  0.85885678  0.21011652
   0.49626134  0.51452546  0.23174419
   0.49052477  0.52253625  0.30517816
   0.16270413  0.17892384  0.32722233
   0.16459181  0.16222810  0.40564107
   0.83388619  0.83279503  0.42531467
   0.75078051  0.84434113  0.49557269
   0.09015861  0.18309035  0.51623067
   0.97421170  0.17591489  0.59560825
   0.64076097  0.85055528  0.62203996
   0.66393674  0.83137080  0.69987083
   0.34127790  0.49174863  0.72900247
   0.32523578  0.50125794  0.80590848
   0.00833933  0.15491386  0.83443840
   0.98439437  0.14432662  0.91500919
   0.65375266  0.81754425  0.93930051
   0.77099486  0.82766295  0.01879439
