 vasp.6.4.3 19Mar24 (build Oct 22 2024 11:23:12) complex                        
  
 executed on             LinuxIFC date 2025.06.08  18:47:10
 running   64 mpi-ranks, on    4 nodes
 distrk:  each k-point on   64 cores,    1 groups
 distr:  one band on NCORE=  16 cores,    4 groups


--------------------------------------------------------------------------------------------------------


 INCAR:
   SYSTEM = Si and Ge interface calculation
   ISTART = 0
   ICHARG = 2
   LWAVE = .FALSE.
   LREAL = AUTO
   ENCUT = 700
   ENAUG = 900
   ADDGRID = .TRUE.
   LMAXMIX = 6
   LASPH = .TRUE.
   LMIXTAU = .TRUE.
   NCORE = 16
   NELM = 100
   NBANDS = 375
   EDIFF = 1d-7
   AMIX = 0.6
   ISMEAR = 0
   SIGMA = 0.01
   NELECT = 624
   ISPIN = 2
   NUPDOWN = 1
   LVTOT = .FALSE.
   LVHAR = .TRUE.

 POTCAR:    PAW_PBE Si 05Jan2001                  
 POTCAR:    PAW_PBE Ge 05Jan2001                  
 -----------------------------------------------------------------------------
|                                                                             |
|           W    W    AA    RRRRR   N    N  II  N    N   GGGG   !!!           |
|           W    W   A  A   R    R  NN   N  II  NN   N  G    G  !!!           |
|           W    W  A    A  R    R  N N  N  II  N N  N  G       !!!           |
|           W WW W  AAAAAA  RRRRR   N  N N  II  N  N N  G  GGG   !            |
|           WW  WW  A    A  R   R   N   NN  II  N   NN  G    G                |
|           W    W  A    A  R    R  N    N  II  N    N   GGGG   !!!           |
|                                                                             |
|     You use a magnetic or noncollinear calculation, but did not specify     |
|     the initial magnetic moment with the MAGMOM tag. Note that a            |
|     default of 6.41e-3 will be used for all atoms. This ferromagnetic       |
|     setup may break the symmetry of the crystal, in particular it may       |
|     rule out finding an antiferromagnetic solution. Thence, we              |
|     recommend setting the initial magnetic moment manually or verifying     |
|     carefully that this magnetic setup is desired.                          |
|                                                                             |
 -----------------------------------------------------------------------------

 POTCAR:    PAW_PBE Si 05Jan2001                  
   VRHFIN =Si: s2p2                                                                                 
   LEXCH  = PE                                                                                      
   EATOM  =   103.0669 eV,    7.5752 Ry                                                             
                                                                                                    
   TITEL  = PAW_PBE Si 05Jan2001                                                                    
   LULTRA =        F    use ultrasoft PP ?                                                          
   IUNSCR =        1    unscreen: 0-lin 1-nonlin 2-no                                               
   RPACOR =    1.500    partial core radius                                                         
   POMASS =   28.085; ZVAL   =    4.000    mass and valenz                                          
   RCORE  =    1.900    outmost cutoff radius                                                       
   RWIGS  =    2.480; RWIGS  =    1.312    wigner-seitz radius (au A)                               
   ENMAX  =  245.345; ENMIN  =  184.009 eV                                                          
   ICORE  =        2    local potential                                                             
   LCOR   =        T    correct aug charges                                                         
   LPAW   =        T    paw PP                                                                      
   EAUG   =  322.069                                                                                
   DEXC   =    0.000                                                                                
   RMAX   =    1.950    core radius for proj-oper                                                   
   RAUG   =    1.300    factor for augmentation sphere                                              
   RDEP   =    1.993    radius for radial grids                                                     
   RDEPT  =    1.837    core radius for aug-charge                                                  
                                                                                                    
   Atomic configuration                                                                             
    6 entries                                                                                       
     n  l   j            E        occ.                                                              
     1  0  0.50     -1785.8828   2.0000                                                             
     2  0  0.50      -139.4969   2.0000                                                             
     2  1  1.50       -95.5546   6.0000                                                             
     3  0  0.50       -10.8127   2.0000                                                             
     3  1  0.50        -4.0811   2.0000                                                             
     3  2  1.50        -4.0817   0.0000                                                             
   Description                                                                                      
     l       E           TYP  RCUT    TYP  RCUT                                                     
     0    -10.8127223     23  1.900                                                                 
     0     -7.6451159     23  1.900                                                                 
     1     -4.0811372     23  1.900                                                                 
     1      2.4879257     23  1.900                                                                 
     2     -4.0817478      7  1.900                                                                 
  local pseudopotential read in
  partial core-charges read in
  partial kinetic energy density read in
  atomic valenz-charges read in
  non local Contribution for L=           0  read in
    real space projection operators read in
  non local Contribution for L=           0  read in
    real space projection operators read in
  non local Contribution for L=           1  read in
    real space projection operators read in
  non local Contribution for L=           1  read in
    real space projection operators read in
    PAW grid and wavefunctions read in
 
   number of l-projection  operators is LMAX  =           4
   number of lm-projection operators is LMMAX =           8
 
 POTCAR:    PAW_PBE Ge 05Jan2001                  
   VRHFIN =Ge: s2p2                                                                                 
   LEXCH  = PE                                                                                      
   EATOM  =   104.9960 eV,    7.7170 Ry                                                             
                                                                                                    
   TITEL  = PAW_PBE Ge 05Jan2001                                                                    
   LULTRA =        F    use ultrasoft PP ?                                                          
   IUNSCR =        1    unscreen: 0-lin 1-nonlin 2-no                                               
   RPACOR =    2.170    partial core radius                                                         
   POMASS =   72.610; ZVAL   =    4.000    mass and valenz                                          
   RCORE  =    2.300    outmost cutoff radius                                                       
   RWIGS  =    2.300; RWIGS  =    1.217    wigner-seitz radius (au A)                               
   ENMAX  =  173.807; ENMIN  =  130.355 eV                                                          
   ICORE  =        3    local potential                                                             
   LCOR   =        T    correct aug charges                                                         
   LPAW   =        T    paw PP                                                                      
   EAUG   =  385.843                                                                                
   DEXC   =    0.000                                                                                
   RMAX   =    2.342    core radius for proj-oper                                                   
   RAUG   =    1.300    factor for augmentation sphere                                              
   RDEP   =    2.318    radius for radial grids                                                     
   RDEPT  =    2.103    core radius for aug-charge                                                  
                                                                                                    
   Atomic configuration                                                                             
   10 entries                                                                                       
     n  l   j            E        occ.                                                              
     1  0  0.50    -10959.8463   2.0000                                                             
     2  0  0.50     -1371.6056   2.0000                                                             
     2  1  1.50     -1198.4791   6.0000                                                             
     3  0  0.50      -168.4733   2.0000                                                             
     3  1  1.50      -115.6019   6.0000                                                             
     3  2  2.50       -29.3106  10.0000                                                             
     4  0  0.50       -11.7309   2.0000                                                             
     4  1  0.50        -3.8952   2.0000                                                             
     4  2  1.50        -4.0817   0.0000                                                             
     4  3  2.50        -4.0817   0.0000                                                             
   Description                                                                                      
     l       E           TYP  RCUT    TYP  RCUT                                                     
     0    -11.7309493     23  2.300                                                                 
     0     -7.4578696     23  2.300                                                                 
     1     -3.8952261     23  2.300                                                                 
     1      6.1178114     23  2.300                                                                 
     2     -4.0817478     23  2.300                                                                 
     3     -1.3605826      7  2.300                                                                 
  local pseudopotential read in
  partial core-charges read in
  partial kinetic energy density read in
  atomic valenz-charges read in
  non local Contribution for L=           0  read in
    real space projection operators read in
  non local Contribution for L=           0  read in
    real space projection operators read in
  non local Contribution for L=           1  read in
    real space projection operators read in
  non local Contribution for L=           1  read in
    real space projection operators read in
  non local Contribution for L=           2  read in
    real space projection operators read in
    PAW grid and wavefunctions read in
 
   number of l-projection  operators is LMAX  =           5
   number of lm-projection operators is LMMAX =          13
 
 Optimization of the real space projectors (new method)

 maximal supplied QI-value         = 19.84
 optimisation between [QCUT,QGAM] = [ 13.49, 26.99] = [ 50.98,203.92] Ry 
 Optimized for a Real-space Cutoff    1.07 Angstroem

   l    n(q)    QCUT    max X(q) W(low)/X(q) W(high)/X(q)  e(spline) 
   0      9    13.493   159.560    0.22E-03    0.15E-03    0.72E-07
   0      9    13.493   115.863    0.21E-03    0.15E-03    0.71E-07
   1      8    13.493    88.339    0.15E-03    0.11E-03    0.13E-06
   1      8    13.493    48.592    0.15E-03    0.10E-03    0.13E-06
 Optimization of the real space projectors (new method)

 maximal supplied QI-value         = 16.25
 optimisation between [QCUT,QGAM] = [ 13.49, 26.98] = [ 50.95,203.80] Ry 
 Optimized for a Real-space Cutoff    1.25 Angstroem

   l    n(q)    QCUT    max X(q) W(low)/X(q) W(high)/X(q)  e(spline) 
   0     10    13.489    65.336    0.91E-04    0.11E-03    0.34E-06
   0     10    13.489    52.220    0.89E-04    0.11E-03    0.34E-06
   1     10    13.489    36.409    0.22E-03    0.27E-03    0.14E-06
   1     10    13.489    21.334    0.21E-03    0.27E-03    0.14E-06
   2      9    13.489     4.673    0.11E-03    0.12E-03    0.19E-06
  PAW_PBE Si 05Jan2001                  :
 energy of atom  1       EATOM= -103.0669
 kinetic energy error for atom=    0.0003 (will be added to EATOM!!)
  PAW_PBE Ge 05Jan2001                  :
 energy of atom  2       EATOM= -104.9960
 kinetic energy error for atom=    0.0001 (will be added to EATOM!!)
 
 
 POSCAR: Si+Ge
  positions in direct lattice
  No initial velocities read in


 exchange-correlation table for PE
   RHO(1)=    0.500       N(1)  =     2000
   RHO(2)=  100.500       N(2)  =     4000
 


--------------------------------------------------------------------------------------------------------


 ion  position               nearest neighbor table
   1  0.742  0.603  0.000- 147 1.53 123 2.22  32 2.35  61 2.35  56 2.35 102 2.70
   2  0.103  0.297  0.088- 150 2.05  33 2.35  62 2.35  57 2.35  87 2.68 111 2.82
   3  0.464  0.992  0.176-  34 2.35  63 2.35  58 2.35  31 2.35 138 2.46
   4  0.825  0.686  0.264-  35 2.35  59 2.35  64 2.35  32 2.35  76 2.44
   5  0.186  0.381  0.352-  85 2.06  36 2.35  60 2.35  65 2.35  33 2.35 148 2.70 124 2.86
   6  0.547  0.075  0.439-  88 1.49 112 2.17  66 2.35  34 2.35 133 2.77
   7  0.409  0.270  0.000- 153 1.52 129 2.28  62 2.35  67 2.35  20 2.35 111 2.70
   8  0.770  0.964  0.088- 114 1.94  63 2.35  68 2.35  21 2.35 117 2.62 141 2.79
   9  0.131  0.659  0.176-  64 2.35  69 2.35  22 2.35  19 2.35 144 2.69
  10  0.492  0.353  0.264- 127 2.24  65 2.35  23 2.35  70 2.35  20 2.35
  11  0.853  0.047  0.352-  71 2.35  66 2.35  24 2.35  21 2.35  91 2.51 115 2.85
  12  0.214  0.742  0.439- 118 0.85 142 1.83  72 2.35  22 2.35
  13  0.075  0.936  0.000-  96 0.82  93 1.85  26 2.35  55 2.35  68 2.35
  14  0.436  0.631  0.088-  27 2.35  56 2.35  69 2.35 144 2.57  99 2.82
  15  0.797  0.325  0.176- 108 2.23  57 2.35  70 2.35  28 2.35  25 2.35
  16  0.159  0.020  0.264-  29 2.35  58 2.35  71 2.35  26 2.35  91 2.73
  17  0.520  0.714  0.352- 121 1.90  30 2.35  59 2.35  72 2.35  27 2.35  97 2.62  73 2.80
  18  0.881  0.409  0.439-  82 1.59 106 2.31  60 2.35  28 2.35 124 2.65
  19  0.075  0.686  0.000- 144 2.09 102 2.10  37 2.35   9 2.35  78 2.63 120 2.71
  20  0.436  0.381  0.088- 105 1.89  38 2.35  43 2.35   7 2.35  10 2.35 129 2.57 153 2.73
  21  0.797  0.075  0.176-  39 2.35  44 2.35   8 2.35  11 2.35 114 2.80
  22  0.159  0.770  0.264- 118 2.25  45 2.35   9 2.35  40 2.35  12 2.35
  23  0.520  0.464  0.352-  41 2.35  10 2.35  46 2.35 127 2.40 103 2.96  82 2.98
  24  0.881  0.159  0.439- 130 1.03 154 1.90  11 2.35  47 2.35  42 2.35
  25  0.742  0.353  0.000- 108 1.04  84 1.97  43 2.35  15 2.35
  26  0.103  0.047  0.088- 156 2.19  13 2.35  44 2.35  49 2.35  16 2.35  93 2.82  96 2.99
  27  0.464  0.742  0.176-  14 2.35  45 2.35  50 2.35  17 2.35  99 2.39
  28  0.825  0.436  0.264-  46 2.35  51 2.35  15 2.35  18 2.35  82 2.41
  29  0.186  0.131  0.352- 133 2.13  16 2.35  47 2.35  52 2.35 109 2.80  85 2.99
  30  0.547  0.825  0.439-  73 1.11  97 1.98  17 2.35  48 2.35  53 2.35
  31  0.409  0.020  0.000- 138 1.05 135 1.94  49 2.35   3 2.35
  32  0.770  0.714  0.088-   1 2.35  50 2.35  37 2.35   4 2.35 141 2.38  78 2.93
  33  0.131  0.409  0.176- 150 2.26   2 2.35   5 2.35  51 2.35  38 2.35
  34  0.492  0.103  0.264-   3 2.35  52 2.35  39 2.35   6 2.35  88 2.76
  35  0.853  0.797  0.352-  76 1.87   4 2.35  53 2.35  40 2.35 139 2.58 115 2.76
  36  0.214  0.492  0.439-  79 2.05 124 2.17   5 2.35  54 2.35  41 2.35 103 2.57 148 2.75
  37  0.909  0.770  0.000- 141 1.32  78 1.76  68 2.35  19 2.35  32 2.35 102 2.91
  38  0.270  0.464  0.088- 105 1.85  69 2.35  20 2.35  33 2.35 150 2.74
  39  0.631  0.159  0.176-  70 2.35  21 2.35  34 2.35  67 2.35 153 2.91
  40  0.992  0.853  0.264-  71 2.35  35 2.35  22 2.35  68 2.35
  41  0.353  0.547  0.352-  79 1.24  72 2.35  23 2.35  69 2.35  36 2.35 103 2.94
  42  0.714  0.242  0.439- 130 2.15  24 2.35  70 2.35  88 2.35 106 2.49 151 2.59  86 2.95
  43  0.575  0.436  0.000- 105 2.22 147 2.31  56 2.35  25 2.35  20 2.35  84 2.53 129 2.53 149 2.95

  44  0.936  0.131  0.088- 156 1.22  57 2.35  21 2.35  26 2.35 132 2.95
  45  0.297  0.825  0.176-  27 2.35  58 2.35  22 2.35  55 2.35
  46  0.659  0.520  0.264-  28 2.35  59 2.35  23 2.35  56 2.35  82 2.89
  47  0.020  0.214  0.352- 130 1.91  60 2.35  24 2.35  29 2.35  57 2.35  85 2.69
  48  0.381  0.909  0.439-  73 1.27 136 1.75  30 2.35  58 2.35 133 2.93
  49  0.242  0.103  0.000- 111 1.37 135 1.76  62 2.35  31 2.35  26 2.35 138 2.89
  50  0.603  0.797  0.088-  99 1.69  63 2.35  32 2.35  27 2.35 141 2.95
  51  0.964  0.492  0.176-  28 2.35  33 2.35  64 2.35  61 2.35
  52  0.325  0.186  0.264-  65 2.35  34 2.35  29 2.35  62 2.35
  53  0.686  0.881  0.352- 115 1.65  35 2.35  30 2.35  66 2.35  63 2.35  73 3.01
  54  0.047  0.575  0.439- 124 1.39 100 1.79  36 2.35  64 2.35  76 2.93
  55  0.242  0.853  0.000-  96 1.71 120 2.08  13 2.35  45 2.35 138 2.88 140 3.01
  56  0.603  0.547  0.088- 147 1.43  14 2.35  43 2.35   1 2.35  46 2.35
  57  0.964  0.242  0.176-  15 2.35  44 2.35   2 2.35  47 2.35
  58  0.325  0.936  0.264-  45 2.35  16 2.35   3 2.35  48 2.35  73 3.02
  59  0.686  0.631  0.352- 121 1.47  46 2.35   4 2.35  17 2.35
  60  0.047  0.325  0.439-  85 1.64 148 2.05   5 2.35  18 2.35  47 2.35 130 2.93
  61  0.909  0.520  0.000- 102 1.79 126 2.08   1 2.35  51 2.35 147 2.78 104 3.02
  62  0.270  0.214  0.088- 111 1.32   2 2.35   7 2.35  49 2.35  52 2.35  87 2.98
  63  0.631  0.909  0.176-   3 2.35   8 2.35  50 2.35  53 2.35
  64  0.992  0.603  0.264-   9 2.35   4 2.35  51 2.35  54 2.35 124 2.89
  65  0.353  0.297  0.352- 127 2.14  10 2.35  52 2.35   5 2.35  85 2.44
  66  0.714  0.992  0.439- 115 1.16 112 1.65  11 2.35   6 2.35  53 2.35  88 2.86
  67  0.575  0.186  0.000- 153 1.19  90 1.64   7 2.35  39 2.35 114 2.83
  68  0.936  0.881  0.088- 141 2.18  37 2.35   8 2.35  13 2.35  40 2.35  96 2.37
  69  0.297  0.575  0.176-  38 2.35   9 2.35  14 2.35  41 2.35 144 2.90
  70  0.659  0.270  0.264-  39 2.35  15 2.35  10 2.35  42 2.35
  71  0.020  0.964  0.352-  91 1.31  40 2.35  11 2.35  16 2.35  94 2.96
  72  0.381  0.659  0.439-  79 1.82 142 2.13  41 2.35  17 2.35  12 2.35 121 2.71  97 3.00  77 3.01

  73  0.463  0.857  0.439-  30 1.11  48 1.27  97 2.45 136 2.45  17 2.80  53 3.01  58 3.02
  74  0.963  0.857  0.664-  94 2.39 139 2.39  98 2.45 137 2.45
  75  0.463  0.857  0.888-  95 2.39 140 2.39  99 2.45 138 2.45
  76  0.892  0.714  0.439-  35 1.87   4 2.44 100 2.45 139 2.45  54 2.93
  77  0.392  0.714  0.664- 142 2.39  97 2.39 140 2.45 101 2.45  72 3.01
  78  0.892  0.714  0.888-  37 1.76 143 2.39  98 2.39 141 2.45 102 2.45  19 2.63  32 2.93
  79  0.320  0.571  0.439-  41 1.24  72 1.82  36 2.05 103 2.45 142 2.45
  80  0.820  0.571  0.664- 145 2.39 100 2.39 104 2.45 143 2.45
  81  0.320  0.571  0.888- 146 2.39 101 2.39 144 2.45 105 2.45
  82  0.749  0.429  0.439-  18 1.59  28 2.41 145 2.45 106 2.45  46 2.89  23 2.98
  83  0.249  0.429  0.664- 103 2.39 148 2.39 107 2.45 146 2.45
  84  0.749  0.429  0.888-  25 1.97 104 2.39 149 2.39 108 2.45 147 2.45  43 2.53
  85  0.177  0.286  0.439-  60 1.64   5 2.06  65 2.44 148 2.45 109 2.45  47 2.69  29 2.99
  86  0.677  0.286  0.664- 151 2.39 106 2.39 149 2.45 110 2.45  42 2.95
  87  0.177  0.286  0.888- 152 2.39 107 2.39 150 2.45 111 2.45   2 2.68  62 2.98
  88  0.606  0.143  0.439-   6 1.49  42 2.35 151 2.45 112 2.45  34 2.76  66 2.86
  89  0.106  0.143  0.664- 154 2.39 109 2.39 152 2.45 113 2.45
  90  0.606  0.143  0.888-  67 1.64 155 2.39 110 2.39 114 2.45 153 2.45
  91  0.035  0.000  0.439-  71 1.31 154 2.45  94 2.45  11 2.51  16 2.73
  92  0.535  1.000  0.664- 136 2.39 112 2.39 155 2.45  95 2.45
  93  0.035  1.000  0.888-  13 1.85 137 2.39 113 2.39 156 2.45  96 2.45  26 2.82
  94  0.106  0.893  0.552- 116 2.39  74 2.39 118 2.45  91 2.45  71 2.96
  95  0.606  0.893  0.776-  75 2.39 117 2.39  92 2.45 119 2.45
  96  0.106  0.893  0.000-  13 0.82  55 1.71  68 2.37 120 2.45  93 2.45  26 2.99
  97  0.535  0.750  0.552-  30 1.98 119 2.39  77 2.39  73 2.45 121 2.45  17 2.62  72 3.00
  98  0.035  0.750  0.776- 120 2.39  78 2.39  74 2.45 122 2.45
  99  0.535  0.750  0.000-  50 1.69  27 2.39  75 2.45 123 2.45  14 2.82
 100  0.963  0.607  0.552-  54 1.79 122 2.39  80 2.39 124 2.45  76 2.45
 101  0.463  0.607  0.776- 123 2.39  81 2.39 125 2.45  77 2.45
 102  0.963  0.607  0.000-  61 1.79  19 2.10  78 2.45 126 2.45   1 2.70  37 2.91
 103  0.392  0.464  0.552- 125 2.39  83 2.39 127 2.45  79 2.45  36 2.57  41 2.94  23 2.96
 104  0.892  0.464  0.776-  84 2.39 126 2.39  80 2.45 128 2.45  61 3.02
 105  0.392  0.464  0.000-  38 1.85  20 1.89  43 2.22 129 2.45  81 2.45
 106  0.820  0.321  0.552-  18 2.31 128 2.39  86 2.39 130 2.45  82 2.45  42 2.49
 107  0.320  0.321  0.776- 129 2.39  87 2.39  83 2.45 131 2.45
 108  0.820  0.321  0.000-  25 1.04  15 2.23 132 2.45  84 2.45
 109  0.249  0.179  0.552- 131 2.39  89 2.39 133 2.45  85 2.45  29 2.80
 110  0.749  0.179  0.776- 132 2.39  90 2.39 134 2.45  86 2.45
 111  0.249  0.179  0.000-  62 1.32  49 1.37 135 2.45  87 2.45   7 2.70   2 2.82
 112  0.677  0.036  0.552-  66 1.65   6 2.17 134 2.39  92 2.39 115 2.45  88 2.45
 113  0.177  0.036  0.776- 135 2.39  93 2.39 116 2.45  89 2.45
 114  0.677  0.036  0.000-   8 1.94  90 2.45 117 2.45  21 2.80  67 2.83
 115  0.749  0.929  0.439-  66 1.16  53 1.65 112 2.45 139 2.45  35 2.76  11 2.85
 116  0.249  0.929  0.664-  94 2.39 136 2.39 113 2.45 140 2.45
 117  0.749  0.929  0.888-  95 2.39 137 2.39 114 2.45 141 2.45   8 2.62
 118  0.177  0.786  0.439-  12 0.85  22 2.25 142 2.45  94 2.45
 119  0.677  0.786  0.664-  97 2.39 139 2.39 143 2.45  95 2.45
 120  0.177  0.786  0.888-  55 2.08  98 2.39 140 2.39 144 2.45  96 2.45  19 2.71
 121  0.606  0.643  0.439-  59 1.47  17 1.90 145 2.45  97 2.45  72 2.71
 122  0.106  0.643  0.664- 100 2.39 142 2.39 146 2.45  98 2.45
 123  0.606  0.643  0.888-   1 2.22 101 2.39 143 2.39 147 2.45  99 2.45
 124  0.035  0.500  0.439-  54 1.39  36 2.17 148 2.45 100 2.45  18 2.65   5 2.86  64 2.89
 125  0.535  0.500  0.664- 103 2.39 145 2.39 149 2.45 101 2.45
 126  0.035  0.500  0.888-  61 2.08 104 2.39 146 2.39 150 2.45 102 2.45
 127  0.463  0.357  0.439-  65 2.14  10 2.24  23 2.40 103 2.45 151 2.45
 128  0.963  0.357  0.664- 148 2.39 106 2.39 152 2.45 104 2.45
 129  0.463  0.357  0.888-   7 2.28 149 2.39 107 2.39 153 2.45 105 2.45  43 2.53  20 2.57
 130  0.892  0.214  0.439-  24 1.03  47 1.91  42 2.15 154 2.45 106 2.45  60 2.93
 131  0.392  0.214  0.664- 151 2.39 109 2.39 155 2.45 107 2.45
 132  0.892  0.214  0.888- 110 2.39 152 2.39 108 2.45 156 2.45  44 2.95
 133  0.320  0.071  0.439-  29 2.13 136 2.45 109 2.45   6 2.77  48 2.93
 134  0.820  0.071  0.664- 112 2.39 154 2.39 137 2.45 110 2.45
 135  0.320  0.071  0.888-  49 1.76  31 1.94 113 2.39 155 2.39 138 2.45 111 2.45
 136  0.392  0.964  0.552-  48 1.75  92 2.39 116 2.39 133 2.45  73 2.45
 137  0.892  0.964  0.776-  93 2.39 117 2.39 134 2.45  74 2.45
 138  0.392  0.964  0.000-  31 1.05 135 2.45  75 2.45   3 2.46  55 2.88  49 2.89
 139  0.820  0.821  0.552-  74 2.39 119 2.39  76 2.45 115 2.45  35 2.58
 140  0.320  0.821  0.776-  75 2.39 120 2.39  77 2.45 116 2.45  55 3.01
 141  0.820  0.821  0.000-  37 1.32  68 2.18  32 2.38 117 2.45  78 2.45   8 2.79  50 2.95
 142  0.249  0.679  0.552-  12 1.83  72 2.13  77 2.39 122 2.39 118 2.45  79 2.45
 143  0.749  0.679  0.776-  78 2.39 123 2.39 119 2.45  80 2.45
 144  0.249  0.679  0.000-  19 2.09 120 2.45  81 2.45  14 2.57   9 2.69  69 2.90
 145  0.677  0.536  0.552-  80 2.39 125 2.39 121 2.45  82 2.45
 146  0.177  0.536  0.776-  81 2.39 126 2.39 122 2.45  83 2.45
 147  0.677  0.536  0.000-  56 1.43   1 1.53  43 2.31 123 2.45  84 2.45  61 2.78
 148  0.106  0.393  0.552-  60 2.05 128 2.39  83 2.39 124 2.45  85 2.45   5 2.70  36 2.75
 149  0.606  0.393  0.776- 129 2.39  84 2.39 125 2.45  86 2.45  43 2.95
 150  0.106  0.393  0.000-   2 2.05  33 2.26 126 2.45  87 2.45  38 2.74
 151  0.535  0.250  0.552- 131 2.39  86 2.39  88 2.45 127 2.45  42 2.59
 152  0.035  0.250  0.776- 132 2.39  87 2.39 128 2.45  89 2.45
 153  0.535  0.250  0.000-  67 1.19   7 1.52  90 2.45 129 2.45  20 2.73  39 2.91
 154  0.963  0.107  0.552-  24 1.90  89 2.39 134 2.39 130 2.45  91 2.45
 155  0.463  0.107  0.776-  90 2.39 135 2.39 131 2.45  92 2.45
 156  0.963  0.107  0.000-  44 1.22  26 2.19  93 2.45 132 2.45
 
 -----------------------------------------------------------------------------
|                                                                             |
|           W    W    AA    RRRRR   N    N  II  N    N   GGGG   !!!           |
|           W    W   A  A   R    R  NN   N  II  NN   N  G    G  !!!           |
|           W    W  A    A  R    R  N N  N  II  N N  N  G       !!!           |
|           W WW W  AAAAAA  RRRRR   N  N N  II  N  N N  G  GGG   !            |
|           WW  WW  A    A  R   R   N   NN  II  N   NN  G    G                |
|           W    W  A    A  R    R  N    N  II  N    N   GGGG   !!!           |
|                                                                             |
|     The distance between some ions is very small. Please check the          |
|     nearest-neighbor list in the OUTCAR file.                               |
|     I HOPE YOU KNOW WHAT YOU ARE DOING!                                     |
|                                                                             |
 -----------------------------------------------------------------------------

  LATTYP: Found a simple monoclinic cell.
 ALAT       =    12.1440858840
 B/A-ratio  =     1.0387976375
 C/A-ratio  =     1.4832397720
 COS(beta)  =    -0.1348399578
  
  Lattice vectors:
  
 A1 = (  12.1440858840,   0.0000000000,   0.0000000000)
 A2 = (   0.0000000000,   0.0000000000,  12.6152477260)
 A3 = (  -2.4288170340, -17.8480892180,   0.0000000000)


Analysis of symmetry for initial positions (statically):
=====================================================================
 Subroutine PRICEL returns:
 Original cell was already a primitive cell.
 

 Routine SETGRP: Setting up the symmetry group for a 
 simple monoclinic supercell.


 Subroutine GETGRP returns: Found  1 space group operations
 (whereof  1 operations were pure point group operations)
 out of a pool of  4 trial point group operations.


The static configuration has the point symmetry C_1 .


Analysis of symmetry for dynamics (positions and initial velocities):
=====================================================================
 Subroutine PRICEL returns:
 Original cell was already a primitive cell.
 

 Routine SETGRP: Setting up the symmetry group for a 
 simple monoclinic supercell.


 Subroutine GETGRP returns: Found  1 space group operations
 (whereof  1 operations were pure point group operations)
 out of a pool of  4 trial point group operations.


The dynamic configuration has the point symmetry C_1 .


Analysis of structural, dynamic, and magnetic symmetry:
=====================================================================
 Subroutine PRICEL returns:
 Original cell was already a primitive cell.
 

 Routine SETGRP: Setting up the symmetry group for a 
 simple monoclinic supercell.


 Subroutine GETGRP returns: Found  1 space group operations
 (whereof  1 operations were pure point group operations)
 out of a pool of  4 trial point group operations.


The overall configuration has the point symmetry C_1 .


 Subroutine INISYM returns: Found  1 space group operations
 (whereof  1 operations are pure point group operations),
 and found     1 'primitive' translations


----------------------------------------------------------------------------------------

                                     Primitive cell                                     

  volume of cell :    2734.3389

  direct lattice vectors                    reciprocal lattice vectors
    12.144085884  0.000000000  0.000000000     0.082344609 -0.011205681  0.000000000
     2.428817034 17.848089218  0.000000000     0.000000000  0.056028407  0.000000000
     0.000000000  0.000000000 12.615247726     0.000000000  0.000000000  0.079269153

  length of vectors
    12.144085884 18.012591177 12.615247726     0.083103561  0.056028407  0.079269153

  position of ions in fractional coordinates (direct lattice)
     0.741898179  0.603009343  0.000000000
     0.103009462  0.297453642  0.087877706
     0.464120746  0.991897881  0.175755456
     0.825231791  0.686342239  0.263633162
     0.186342955  0.380786479  0.351510793
     0.547454357  0.075230718  0.439388573
     0.408564806  0.269675940  0.000000016
     0.769676089  0.964120209  0.087877728
     0.130787373  0.658564508  0.175755456
     0.491898417  0.353008866  0.263633162
     0.853009701  0.047453105  0.351510912
     0.214120865  0.741897464  0.439388573
     0.075231500  0.936342597  0.000000027
     0.436342746  0.630786896  0.087877728
     0.797453940  0.325231075  0.175755456
     0.158565044  0.019675493  0.263633162
     0.519676328  0.714119792  0.351510793
     0.880787611  0.408563972  0.439388663
     0.075231485  0.686342716  0.000000026
     0.436342746  0.380787015  0.087877706
     0.797453940  0.075231291  0.175755411
     0.158565164  0.769675612  0.263633132
     0.519676328  0.464119911  0.351510853
     0.880787730  0.158564150  0.439388484
     0.741898119  0.353009284  0.000000017
     0.103009343  0.047453564  0.087877758
     0.464120507  0.741897821  0.175755426
     0.825231671  0.436342239  0.263633132
     0.186342955  0.130786359  0.351510853
     0.547454119  0.825230718  0.439388543
     0.408564866  0.019675912  0.000000025
     0.769676089  0.714120150  0.087877728
     0.130787373  0.408564389  0.175755501
     0.491898537  0.103008866  0.263633251
     0.853009701  0.797453165  0.351510853
     0.214120865  0.491897225  0.439388663
     0.908564866  0.769676030  0.000000058
     0.269676208  0.464120358  0.087877758
     0.630787373  0.158564568  0.175755456
     0.991898417  0.853008926  0.263633162
     0.353009939  0.547453225  0.351510912
     0.714120865  0.241897523  0.439388573
     0.575231552  0.436342627  0.000000033
     0.936342716  0.130786896  0.087877728
     0.297454000  0.825231194  0.175755456
     0.658565164  0.519675553  0.263633162
     0.019676447  0.214119852  0.351510793
     0.380787611  0.908564091  0.439388663
     0.241898149  0.103009269  0.000000022
     0.603009403  0.797453523  0.087877758
     0.964120626  0.491897762  0.175755456
     0.325231791  0.186342180  0.263633162
     0.686342955  0.880786419  0.351510912
     0.047454119  0.575230718  0.439388573
     0.241898149  0.853009343  0.000000026
     0.603009343  0.547453642  0.087877750
     0.964120626  0.241897911  0.175755456
     0.325231791  0.936342239  0.263633162
     0.686343074  0.630786538  0.351510853
     0.047454357  0.325230837  0.439388573
     0.908564866  0.519675970  0.000000040
     0.269676089  0.214120299  0.087877765
     0.630787373  0.908564568  0.175755456
     0.991898537  0.603008926  0.263633132
     0.353009701  0.297453225  0.351510853
     0.714121103  0.991897464  0.439388663
     0.575231493  0.186342612  0.000000022
     0.936342776  0.880786896  0.087877765
     0.297454000  0.575231135  0.175755456
     0.658565164  0.269675553  0.263633132
     0.019676208  0.964119792  0.351510853
     0.380787611  0.658564091  0.439388663
     0.463086307  0.857142866  0.439388633
     0.963086367  0.857142806  0.663633168
     0.463086367  0.857142806  0.887877703
     0.891657829  0.714285731  0.439388633
     0.391657829  0.714285672  0.663633168
     0.891657948  0.714285612  0.887877703
     0.320229113  0.571428537  0.439388633
     0.820229113  0.571428478  0.663633168
     0.320229292  0.571428478  0.887877703
     0.748800576  0.428571463  0.439388633
     0.248800635  0.428571373  0.663633168
     0.748800755  0.428571314  0.887877703
     0.177371994  0.285714298  0.439388633
     0.677371979  0.285714179  0.663633168
     0.177372098  0.285714149  0.887877703
     0.605943382  0.142857134  0.439388633
     0.105943441  0.142857060  0.663633168
     0.605943561  0.142856985  0.887877703
     0.034514848  0.000000000  0.439388633
     0.534514904  0.999999940  0.663633168
     0.034514904  0.999999881  0.887877703
     0.105943441  0.892857134  0.551510870
     0.605943441  0.892857075  0.775755465
     0.105943680  0.892857015  0.000000000
     0.534514904  0.750000060  0.551510870
     0.034515023  0.750000000  0.775755465
     0.534515023  0.749999940  0.000000000
     0.963086426  0.607142866  0.551510870
     0.463086486  0.607142806  0.775755465
     0.963086605  0.607142746  0.000000000
     0.391657740  0.464285702  0.551510870
     0.891657829  0.464285642  0.775755465
     0.391657829  0.464285582  0.000000000
     0.820229232  0.321428597  0.551510870
     0.320229292  0.321428537  0.775755465
     0.820229292  0.321428448  0.000000000
     0.248800635  0.178571418  0.551510870
     0.748800755  0.178571329  0.775755465
     0.248800755  0.178571239  0.000000000
     0.677372038  0.035714284  0.551510870
     0.177372098  0.035714220  0.775755465
     0.677372098  0.035714172  0.000000000
     0.748800516  0.928571463  0.439388633
     0.248800516  0.928571403  0.663633168
     0.748800635  0.928571343  0.887877703
     0.177371964  0.785714269  0.439388633
     0.677372038  0.785714209  0.663633168
     0.177372098  0.785714149  0.887877703
     0.605943501  0.642857134  0.439388633
     0.105943561  0.642857015  0.663633168
     0.605943561  0.642857015  0.887877703
     0.034514830  0.499999970  0.439388633
     0.534514844  0.499999881  0.663633168
     0.034515023  0.499999821  0.887877703
     0.463086307  0.357142866  0.439388633
     0.963086367  0.357142746  0.663633168
     0.463086486  0.357142717  0.887877703
     0.891657710  0.214285716  0.439388633
     0.391657829  0.214285627  0.663633168
     0.891657829  0.214285612  0.887877703
     0.320229173  0.071428552  0.439388633
     0.820229232  0.071428478  0.663633168
     0.320229292  0.071428433  0.887877703
     0.391657740  0.964285851  0.551510870
     0.891657829  0.964285791  0.775755465
     0.391657829  0.964285731  0.000000000
     0.820229173  0.821428597  0.551510870
     0.320229292  0.821428537  0.775755465
     0.820229292  0.821428478  0.000000000
     0.248800635  0.678571463  0.551510870
     0.748800755  0.678571403  0.775755465
     0.248800755  0.678571343  0.000000000
     0.677372038  0.535714328  0.551510870
     0.177372098  0.535714269  0.775755465
     0.677372217  0.535714209  0.000000000
     0.105943322  0.392857134  0.551510870
     0.605943441  0.392857075  0.775755465
     0.105943441  0.392857015  0.000000000
     0.534514844  0.249999955  0.551510870
     0.034514904  0.249999925  0.775755465
     0.534514904  0.249999806  0.000000000
     0.963086307  0.107142873  0.551510870
     0.463086486  0.107142814  0.775755465
     0.963086605  0.107142717  0.000000000

  ion indices of the primitive-cell ions
   primitive index   ion index
                 1           1
                 2           2
                 3           3
                 4           4
                 5           5
                 6           6
                 7           7
                 8           8
                 9           9
                10          10
                11          11
                12          12
                13          13
                14          14
                15          15
                16          16
                17          17
                18          18
                19          19
                20          20
                21          21
                22          22
                23          23
                24          24
                25          25
                26          26
                27          27
                28          28
                29          29
                30          30
                31          31
                32          32
                33          33
                34          34
                35          35
                36          36
                37          37
                38          38
                39          39
                40          40
                41          41
                42          42
                43          43
                44          44
                45          45
                46          46
                47          47
                48          48
                49          49
                50          50
                51          51
                52          52
                53          53
                54          54
                55          55
                56          56
                57          57
                58          58
                59          59
                60          60
                61          61
                62          62
                63          63
                64          64
                65          65
                66          66
                67          67
                68          68
                69          69
                70          70
                71          71
                72          72
                73          73
                74          74
                75          75
                76          76
                77          77
                78          78
                79          79
                80          80
                81          81
                82          82
                83          83
                84          84
                85          85
                86          86
                87          87
                88          88
                89          89
                90          90
                91          91
                92          92
                93          93
                94          94
                95          95
                96          96
                97          97
                98          98
                99          99
               100         100
               101         101
               102         102
               103         103
               104         104
               105         105
               106         106
               107         107
               108         108
               109         109
               110         110
               111         111
               112         112
               113         113
               114         114
               115         115
               116         116
               117         117
               118         118
               119         119
               120         120
               121         121
               122         122
               123         123
               124         124
               125         125
               126         126
               127         127
               128         128
               129         129
               130         130
               131         131
               132         132
               133         133
               134         134
               135         135
               136         136
               137         137
               138         138
               139         139
               140         140
               141         141
               142         142
               143         143
               144         144
               145         145
               146         146
               147         147
               148         148
               149         149
               150         150
               151         151
               152         152
               153         153
               154         154
               155         155
               156         156

----------------------------------------------------------------------------------------

 
 
 KPOINTS: Automatic KPOINTS generated             

Automatic generation of k-mesh.
 Grid dimensions read from file:
 generate k-points for:    3    2    2

 Generating k-lattice:

  Cartesian coordinates                     Fractional coordinates (reciprocal lattice)
     0.027448203 -0.003735227  0.000000000     0.333333333  0.000000000  0.000000000
     0.000000000  0.028014203  0.000000000     0.000000000  0.500000000  0.000000000
     0.000000000  0.000000000  0.039634576     0.000000000  0.000000000  0.500000000

  Length of vectors
     0.027701187  0.028014203  0.039634576

  Shift w.r.t. Gamma in fractional coordinates (k-lattice)
     0.000000000  0.000000000  0.000000000

 
 Subroutine IBZKPT returns following result:
 ===========================================
 
 Found      8 irreducible k-points:
 
 Following reciprocal coordinates:
            Coordinates               Weight
  0.000000  0.000000  0.000000      1.000000
  0.333333  0.000000  0.000000      2.000000
  0.000000  0.500000  0.000000      1.000000
  0.333333  0.500000  0.000000      2.000000
  0.000000  0.000000  0.500000      1.000000
  0.333333  0.000000  0.500000      2.000000
  0.000000  0.500000  0.500000      1.000000
  0.333333  0.500000  0.500000      2.000000
 
 Following cartesian coordinates:
            Coordinates               Weight
  0.000000  0.000000  0.000000      1.000000
  0.027448 -0.003735  0.000000      2.000000
  0.000000  0.028014  0.000000      1.000000
  0.027448  0.024279  0.000000      2.000000
  0.000000  0.000000  0.039635      1.000000
  0.027448 -0.003735  0.039635      2.000000
  0.000000  0.028014  0.039635      1.000000
  0.027448  0.024279  0.039635      2.000000
 
 -----------------------------------------------------------------------------
|                                                                             |
|           W    W    AA    RRRRR   N    N  II  N    N   GGGG   !!!           |
|           W    W   A  A   R    R  NN   N  II  NN   N  G    G  !!!           |
|           W    W  A    A  R    R  N N  N  II  N N  N  G       !!!           |
|           W WW W  AAAAAA  RRRRR   N  N N  II  N  N N  G  GGG   !            |
|           WW  WW  A    A  R   R   N   NN  II  N   NN  G    G                |
|           W    W  A    A  R    R  N    N  II  N    N   GGGG   !!!           |
|                                                                             |
|     The number of bands has been changed from the values supplied in        |
|     the INCAR file. This is a result of running the parallel version.       |
|     The orbitals not found in the WAVECAR file will be initialized with     |
|     random numbers, which is usually adequate. For correlated               |
|     calculations, however, you should redo the groundstate calculation.     |
|     I found NBANDS = 375. Now, NBANDS = 376.                                |
|                                                                             |
 -----------------------------------------------------------------------------



--------------------------------------------------------------------------------------------------------




 Dimension of arrays:
   k-points           NKPTS =      8   k-points in BZ     NKDIM =      8   number of bands    NBANDS=    376
   number of dos      NEDOS =    301   number of ions     NIONS =    156
   non local maximal  LDIM  =      5   non local SUM 2l+1 LMDIM =     13
   total plane-waves  NPLWV = 806400
   max r-space proj   IRMAX =   2440   max aug-charges    IRDMAX= 128415
   dimension x,y,z NGX =    80 NGY =  120 NGZ =   84
   dimension x,y,z NGXF=   160 NGYF=  240 NGZF=  168
   support grid    NGXF=   320 NGYF=  480 NGZF=  336
   ions per type =              72  84
   NGX,Y,Z   is equivalent  to a cutoff of  10.95, 11.08, 11.07 a.u.
   NGXF,Y,Z  is equivalent  to a cutoff of  21.90, 22.15, 22.14 a.u.

 SYSTEM =  Si and Ge interface calculation         
 POSCAR =  Si+Ge                                   

 Startparameter for this run:
   NWRITE =      2    write-flag & timer
   PREC   = normal    normal or accurate (medium, high low for compatibility)
   ISTART =      0    job   : 0-new  1-cont  2-samecut
   ICHARG =      2    charge: 1-file 2-atom 10-const
   ISPIN  =      2    spin polarized calculation?
   LNONCOLLINEAR =      F non collinear calculations
   LSORBIT =      F    spin-orbit coupling
   INIWAV =      1    electr: 0-lowe 1-rand  2-diag
   LASPH  =      T    aspherical Exc in radial PAW
 Electronic Relaxation 1
   ENCUT  =  700.0 eV  51.45 Ry    7.17 a.u.  26.20 38.86 27.21*2*pi/ulx,y,z
   ENINI  =  700.0     initial cutoff
   ENAUG  =  900.0 eV  augmentation charge cutoff
   NELM   =    100;   NELMIN=  2; NELMDL= -5     # of ELM steps 
   EDIFF  = 0.1E-06   stopping-criterion for ELM
   LREAL  =      T    real-space projection
   NLSPLINE    = F    spline interpolate recip. space projectors
   LCOMPAT=      F    compatible to vasp.4.4
   GGA_COMPAT  = T    GGA compatible to vasp.4.4-vasp.4.6
   LMAXPAW     = -100 max onsite density
   LMAXMIX     =    6 max onsite mixed and CHGCAR
   VOSKOWN=      0    Vosko Wilk Nusair interpolation
   ROPT   =   -0.00050  -0.00050
 Ionic relaxation
   EDIFFG = 0.1E-05   stopping-criterion for IOM
   NSW    =      0    number of steps for IOM
   NBLOCK =      1;   KBLOCK =      1    inner block; outer block 
   IBRION =     -1    ionic relax: 0-MD 1-quasi-New 2-CG
   NFREE  =      0    steps in history (QN), initial steepest desc. (CG)
   ISIF   =      2    stress and relaxation
   IWAVPR =     10    prediction:  0-non 1-charg 2-wave 3-comb
   ISYM   =      2    0-nonsym 1-usesym 2-fastsym
   LCORR  =      T    Harris-Foulkes like correction to forces

   POTIM  = 0.5000    time-step for ionic-motion
   TEIN   =    0.0    initial temperature
   TEBEG  =    0.0;   TEEND  =   0.0 temperature during run
   SMASS  =  -3.00    Nose mass-parameter (am)
   estimated Nose-frequenzy (Omega)   =  0.10E-29 period in steps = 0.13E+47 mass=  -0.337E-26a.u.
   SCALEE = 1.0000    scale energy and forces
   NPACO  =    256;   APACO  = 10.0  distance and # of slots for P.C.
   PSTRESS=    0.0 pullay stress

  Mass of Ions in am
   POMASS =  28.09 72.61
  Ionic Valenz
   ZVAL   =   4.00  4.00
  Atomic Wigner-Seitz radii
   RWIGS  =  -1.00 -1.00
  virtual crystal weights 
   VCA    =   1.00  1.00
   NELECT =     624.0000    total number of electrons
   NUPDOWN=       1.0000    fix difference up-down

 DOS related values:
   EMIN   =  10.00;   EMAX   =-10.00  energy-range for DOS
   EFERMI =   0.00;   METHOD = LEGACY      
   ISMEAR =     0;   SIGMA  =   0.01  broadening in eV -4-tet -1-fermi 0-gaus

 Electronic relaxation 2 (details)
   IALGO  =     38    algorithm
   LDIAG  =      T    sub-space diagonalisation (order eigenvalues)
   LSUBROT=      F    optimize rotation matrix (better conditioning)
   TURBO    =      0    0=normal 1=particle mesh
   IRESTART =      0    0=no restart 2=restart with 2 vectors
   NREBOOT  =      0    no. of reboots
   NMIN     =      0    reboot dimension
   EREF     =   0.00    reference energy to select bands
   IMIX   =      4    mixing-type and parameters
     AMIX     =   0.60;   BMIX     =  1.00
     AMIX_MAG =   2.40;   BMIX_MAG =  1.00
     AMIN     =   0.10
     WC   =   100.;   INIMIX=   1;  MIXPRE=   1;  MAXMIX= -45

 Intra band minimization:
   WEIMIN = 0.0000     energy-eigenvalue tresh-hold
   EBREAK =  0.66E-10  absolut break condition
   DEPER  =   0.30     relativ break condition  

   TIME   =   0.40     timestep for ELM

  volume/ion in A,a.u.               =      17.53       118.28
  Fermi-wavevector in a.u.,A,eV,Ry     =   1.000427  1.890534 13.617459  1.000855
  Thomas-Fermi vector in A             =   2.132783
 
 Write flags
   LWAVE        =      F    write WAVECAR
   LDOWNSAMPLE  =      F    k-point downsampling of WAVECAR
   LCHARG       =      T    write CHGCAR
   LVTOT        =      F    write LOCPOT, total local potential
   LVHAR        =      T    write LOCPOT, Hartree potential only
   WRT_POTENTIAL=  hartree ionic  ! write potential to hdf5 file
   LELF         =      F    write electronic localiz. function (ELF)
   LORBIT       =      0    0 simple, 1 ext, 2 COOP (PROOUT), +10 PAW based schemes


 Dipole corrections
   LMONO      =      F    monopole corrections only (constant potential shift)
   LDIPOL     =      F    correct potential (dipole corrections)
   IDIPOL     =      0    1-x, 2-y, 3-z, 4-all directions 
   EPSILON    =  1.0000000 bulk dielectric constant
   LVACPOTAV  =      F  vacuum potentials using an averaging scheme for the charge density
   VACPOTFLAT =  0.1000000 required flatness to determine vacuum potential
 Exchange correlation treatment:
   GGA     = PE    functional components
   XC_C    = 1    coefficients multiplying the functional components
   LIBXC   =     F    Libxc                    
   VOSKOWN =     0    Vosko Wilk Nusair interpolation
   LHFCALC =     F    Hartree Fock is set to
   LHFONE  =     F    Hartree Fock one center treatment
   AEXX    =    0.0000 exact exchange contribution

 Parameters of functionals:
   PE:
     No parameter
 
 Van der Waals corrections
   IVDW    =     0    specifies the selected vdW correction

 Linear response parameters
   LEPSILON=     F    determine dielectric tensor
   LRPA    =     F    only Hartree local field effects (RPA)
   LNABLA  =     F    use nabla operator in PAW spheres
   LVEL    =     F    velocity operator in full k-point grid
   CSHIFT  =0.1000    complex shift for real part using Kramers Kronig
   OMEGAMAX=  -1.0    maximum frequency
   DEG_THRESHOLD= 0.2000000E-02 threshold for treating states as degnerate
   RTIME   =   -0.100 relaxation time in fs
  (WPLASMAI=    0.000 imaginary part of plasma frequency in eV, 0.658/RTIME)
   DFIELD  = 0.0000000 0.0000000 0.0000000 field for delta impulse in time
 
  Optional k-point grid parameters
   LKPOINTS_OPT  =     F    use optional k-point grid
   KPOINTS_OPT_MODE=     1    mode for optional k-point grid
 
 Orbital magnetization related:
   ORBITALMAG=     F  switch on orbital magnetization
   LCHIMAG   =     F  perturbation theory with respect to B field
   DQ        =  0.001000  dq finite difference perturbation B field
   LLRAUG    =     F  two centre corrections for induced B field
   LBONE     =     F  B-component reconstruction in AE one-centre
   LVGVCALC  =     T  calculate vGv susceptibility
   LVGVAPPL  =     F  apply vGv susceptibility instead of pGv for G=0

 Random number generation:
   RANDOM_GENERATOR = DEFAULT
   PCG_SEED         = not used


--------------------------------------------------------------------------------------------------------


 Static calculation
 charge density and potential will be updated during run
 spin polarized calculation
 Variant of blocked Davidson
 Davidson routine will perform the subspace rotation
 perform sub-space diagonalisation
    after iterative eigenvector-optimisation
 modified Broyden-mixing scheme, WC =      100.0
 initial mixing is a Kerker type mixing with AMIX =  0.6000 and BMIX =      1.0000
 Hartree-type preconditioning will be used
 using additional bands           64
 real space projection scheme for non local part
 use partial core corrections
 calculate Harris-corrections to forces 
   (improved forces if not selfconsistent)
 use gradient corrections 
 use of overlap-Matrix (Vanderbilt PP)
 Gauss-broadening in eV      SIGMA  =   0.01


--------------------------------------------------------------------------------------------------------


  energy-cutoff  :      700.00
  volume of cell :     2734.34
      direct lattice vectors                 reciprocal lattice vectors
    12.144085884  0.000000000  0.000000000     0.082344609 -0.011205681  0.000000000
     2.428817034 17.848089218  0.000000000     0.000000000  0.056028407  0.000000000
     0.000000000  0.000000000 12.615247726     0.000000000  0.000000000  0.079269153

  length of vectors
    12.144085884 18.012591177 12.615247726     0.083103561  0.056028407  0.079269153


 
 k-points in units of 2pi/SCALE and weight: Automatic KPOINTS generated             
   0.00000000  0.00000000  0.00000000       0.083
   0.02744820 -0.00373523  0.00000000       0.167
   0.00000000  0.02801420  0.00000000       0.083
   0.02744820  0.02427898  0.00000000       0.167
   0.00000000  0.00000000  0.03963458       0.083
   0.02744820 -0.00373523  0.03963458       0.167
   0.00000000  0.02801420  0.03963458       0.083
   0.02744820  0.02427898  0.03963458       0.167
 
 k-points in reciprocal lattice and weights: Automatic KPOINTS generated             
   0.00000000  0.00000000  0.00000000       0.083
   0.33333333  0.00000000  0.00000000       0.167
   0.00000000  0.50000000  0.00000000       0.083
   0.33333333  0.50000000  0.00000000       0.167
   0.00000000  0.00000000  0.50000000       0.083
   0.33333333  0.00000000  0.50000000       0.167
   0.00000000  0.50000000  0.50000000       0.083
   0.33333333  0.50000000  0.50000000       0.167
 
 position of ions in fractional coordinates (direct lattice) 
   0.74189818  0.60300934  0.00000000
   0.10300946  0.29745364  0.08787771
   0.46412075  0.99189788  0.17575546
   0.82523179  0.68634224  0.26363316
   0.18634296  0.38078648  0.35151079
   0.54745436  0.07523072  0.43938857
   0.40856481  0.26967594  0.00000002
   0.76967609  0.96412021  0.08787773
   0.13078737  0.65856451  0.17575546
   0.49189842  0.35300887  0.26363316
   0.85300970  0.04745311  0.35151091
   0.21412086  0.74189746  0.43938857
   0.07523150  0.93634260  0.00000003
   0.43634275  0.63078690  0.08787773
   0.79745394  0.32523107  0.17575546
   0.15856504  0.01967549  0.26363316
   0.51967633  0.71411979  0.35151079
   0.88078761  0.40856397  0.43938866
   0.07523149  0.68634272  0.00000003
   0.43634275  0.38078702  0.08787771
   0.79745394  0.07523129  0.17575541
   0.15856516  0.76967561  0.26363313
   0.51967633  0.46411991  0.35151085
   0.88078773  0.15856415  0.43938848
   0.74189812  0.35300928  0.00000002
   0.10300934  0.04745356  0.08787776
   0.46412051  0.74189782  0.17575543
   0.82523167  0.43634224  0.26363313
   0.18634296  0.13078636  0.35151085
   0.54745412  0.82523072  0.43938854
   0.40856487  0.01967591  0.00000002
   0.76967609  0.71412015  0.08787773
   0.13078737  0.40856439  0.17575550
   0.49189854  0.10300887  0.26363325
   0.85300970  0.79745317  0.35151085
   0.21412086  0.49189723  0.43938866
   0.90856487  0.76967603  0.00000006
   0.26967621  0.46412036  0.08787776
   0.63078737  0.15856457  0.17575546
   0.99189842  0.85300893  0.26363316
   0.35300994  0.54745322  0.35151091
   0.71412086  0.24189752  0.43938857
   0.57523155  0.43634263  0.00000003
   0.93634272  0.13078690  0.08787773
   0.29745400  0.82523119  0.17575546
   0.65856516  0.51967555  0.26363316
   0.01967645  0.21411985  0.35151079
   0.38078761  0.90856409  0.43938866
   0.24189815  0.10300927  0.00000002
   0.60300940  0.79745352  0.08787776
   0.96412063  0.49189776  0.17575546
   0.32523179  0.18634218  0.26363316
   0.68634296  0.88078642  0.35151091
   0.04745412  0.57523072  0.43938857
   0.24189815  0.85300934  0.00000003
   0.60300934  0.54745364  0.08787775
   0.96412063  0.24189791  0.17575546
   0.32523179  0.93634224  0.26363316
   0.68634307  0.63078654  0.35151085
   0.04745436  0.32523084  0.43938857
   0.90856487  0.51967597  0.00000004
   0.26967609  0.21412030  0.08787777
   0.63078737  0.90856457  0.17575546
   0.99189854  0.60300893  0.26363313
   0.35300970  0.29745322  0.35151085
   0.71412110  0.99189746  0.43938866
   0.57523149  0.18634261  0.00000002
   0.93634278  0.88078690  0.08787777
   0.29745400  0.57523114  0.17575546
   0.65856516  0.26967555  0.26363313
   0.01967621  0.96411979  0.35151085
   0.38078761  0.65856409  0.43938866
   0.46308631  0.85714287  0.43938863
   0.96308637  0.85714281  0.66363317
   0.46308637  0.85714281  0.88787770
   0.89165783  0.71428573  0.43938863
   0.39165783  0.71428567  0.66363317
   0.89165795  0.71428561  0.88787770
   0.32022911  0.57142854  0.43938863
   0.82022911  0.57142848  0.66363317
   0.32022929  0.57142848  0.88787770
   0.74880058  0.42857146  0.43938863
   0.24880064  0.42857137  0.66363317
   0.74880075  0.42857131  0.88787770
   0.17737199  0.28571430  0.43938863
   0.67737198  0.28571418  0.66363317
   0.17737210  0.28571415  0.88787770
   0.60594338  0.14285713  0.43938863
   0.10594344  0.14285706  0.66363317
   0.60594356  0.14285699  0.88787770
   0.03451485  0.00000000  0.43938863
   0.53451490  0.99999994  0.66363317
   0.03451490  0.99999988  0.88787770
   0.10594344  0.89285713  0.55151087
   0.60594344  0.89285708  0.77575547
   0.10594368  0.89285701  0.00000000
   0.53451490  0.75000006  0.55151087
   0.03451502  0.75000000  0.77575547
   0.53451502  0.74999994  0.00000000
   0.96308643  0.60714287  0.55151087
   0.46308649  0.60714281  0.77575547
   0.96308661  0.60714275  0.00000000
   0.39165774  0.46428570  0.55151087
   0.89165783  0.46428564  0.77575547
   0.39165783  0.46428558  0.00000000
   0.82022923  0.32142860  0.55151087
   0.32022929  0.32142854  0.77575547
   0.82022929  0.32142845  0.00000000
   0.24880064  0.17857142  0.55151087
   0.74880075  0.17857133  0.77575547
   0.24880075  0.17857124  0.00000000
   0.67737204  0.03571428  0.55151087
   0.17737210  0.03571422  0.77575547
   0.67737210  0.03571417  0.00000000
   0.74880052  0.92857146  0.43938863
   0.24880052  0.92857140  0.66363317
   0.74880064  0.92857134  0.88787770
   0.17737196  0.78571427  0.43938863
   0.67737204  0.78571421  0.66363317
   0.17737210  0.78571415  0.88787770
   0.60594350  0.64285713  0.43938863
   0.10594356  0.64285701  0.66363317
   0.60594356  0.64285701  0.88787770
   0.03451483  0.49999997  0.43938863
   0.53451484  0.49999988  0.66363317
   0.03451502  0.49999982  0.88787770
   0.46308631  0.35714287  0.43938863
   0.96308637  0.35714275  0.66363317
   0.46308649  0.35714272  0.88787770
   0.89165771  0.21428572  0.43938863
   0.39165783  0.21428563  0.66363317
   0.89165783  0.21428561  0.88787770
   0.32022917  0.07142855  0.43938863
   0.82022923  0.07142848  0.66363317
   0.32022929  0.07142843  0.88787770
   0.39165774  0.96428585  0.55151087
   0.89165783  0.96428579  0.77575547
   0.39165783  0.96428573  0.00000000
   0.82022917  0.82142860  0.55151087
   0.32022929  0.82142854  0.77575547
   0.82022929  0.82142848  0.00000000
   0.24880064  0.67857146  0.55151087
   0.74880075  0.67857140  0.77575547
   0.24880075  0.67857134  0.00000000
   0.67737204  0.53571433  0.55151087
   0.17737210  0.53571427  0.77575547
   0.67737222  0.53571421  0.00000000
   0.10594332  0.39285713  0.55151087
   0.60594344  0.39285708  0.77575547
   0.10594344  0.39285701  0.00000000
   0.53451484  0.24999995  0.55151087
   0.03451490  0.24999992  0.77575547
   0.53451490  0.24999981  0.00000000
   0.96308631  0.10714287  0.55151087
   0.46308649  0.10714281  0.77575547
   0.96308661  0.10714272  0.00000000
 
 position of ions in cartesian coordinates  (Angst):
  10.47427457 10.76256455  0.00000000
   1.97341623  5.30897914  1.10859903
   8.04546067 17.70348188  2.21719862
  11.68868547 12.24989752  3.32579765
   3.18782554  6.79631105  4.43439573
   6.83105438  1.34272457  5.54299570
   5.61663961  4.81320024  0.00000020
  11.68868411 17.20770351  1.10859931
   3.18782579 11.75411809  2.21719862
   6.83105057  6.30053374  3.32579765
  10.47427798  0.84694725  4.43439723
   4.40223537 13.24145213  5.54299570
   3.18782265 16.71192621  0.00000034
   6.83104974 11.25834080  1.10859931
  10.47427591  5.80475324  2.21719862
   1.97341569  0.35116995  3.32579765
   8.04546027 12.74567376  4.43439573
  11.68868753  7.29208622  5.54299683
   2.58061849 12.24990603  0.00000033
   6.22384577  6.79632062  1.10859903
   9.86707218  1.34273479  2.21719805
   3.79503021 13.73723899  3.32579727
   7.43825630  8.28365358  4.43439649
  11.08148515  2.83006710  5.54299457
   9.86706944  6.30054120  0.00000021
   1.36621033  0.84695544  1.10859969
   7.43825336 13.24145850  2.21719824
  11.08147975  7.78787521  3.32579727
   2.58062099  2.33428660  4.43439649
   8.65266426 14.72879148  5.54299532
   5.00943601  0.35117743  0.00000032
  11.08147971 12.74568015  1.10859931
   2.58062124  7.29209367  2.21719918
   6.22384777  1.83851143  3.32579877
  12.29589090 14.23301524  4.43439649
   3.79503053  8.77942556  5.54299683
  12.90309202 13.73724645  0.00000073
   4.40223446  8.28366156  1.10859969
   8.04546036  2.83007456  2.21719862
  14.11750217 15.22457941  3.32579765
   5.61664674  9.77099400  4.43439723
   9.25986994  4.31740857  5.54299570
   8.04545778  7.78788214  0.00000042
  11.68868380  2.33429619  1.10859931
   5.61664250 14.72879998  2.21719862
   9.25986875  9.27521563  3.32579765
   0.75901041  3.82163022  4.43439573
   6.83105339 16.21613296  5.54299683
   3.18782256  1.83851862  0.00000028
   9.25986668 14.23302163  1.10859969
  12.90309335  8.77943514  2.21719862
   4.40223386  3.32585185  3.32579765
  10.47427685 15.72035459  4.43439723
   1.97341706 10.26676918  5.54299570
   5.00943552 15.22458686  0.00000033
   8.65266198  9.77100145  1.10859959
  12.29588945  4.31741550  2.21719862
   6.22384678 16.71191982  3.32579765
   9.86707432 11.25833441  4.43439649
   1.36621598  5.80474900  5.54299570
  12.29588761  9.27522308  0.00000050
   3.79502862  3.82163820  1.10859978
   9.86707313 16.21614147  2.21719862
  13.51029937 10.76255711  3.32579727
   5.00943959  5.30897170  4.43439649
  11.08148546 17.70347443  5.54299683
   7.43825276  3.32585956  0.00000028
  13.51029730 15.72036310  1.10859978
   5.00943810 10.26677662  2.21719862
   8.65266449  4.81319333  3.32579727
   2.58062013 17.20769606  4.43439649
   6.22384913 11.75411065  5.54299683
   7.70560308 15.29836234  5.54299645
  13.77764660 15.29836127  8.37189681
   7.70560366 15.29836127 11.20079717
  12.56323861 12.74863545  5.54299645
   6.49119552 12.74863440  8.37189681
  12.56323976 12.74863333 11.20079717
   5.27678522 10.19890751  5.54299645
  11.34882801 10.19890646  8.37189681
   5.27678725 10.19890646 11.20079717
  10.13442017  7.64918171  5.54299645
   4.06237773  7.64918010  8.37189681
  10.13442199  7.64917905 11.20079717
   2.84796848  5.09945428  5.54299645
   8.92001095  5.09945216  8.37189681
   2.84796938  5.09945162 11.20079717
   7.70560231  2.54972687  5.54299645
   1.63355991  2.54972555  8.37189681
   7.70560412  2.54972421 11.20079717
   0.41915128  0.00000000  5.54299645
   8.92001179 17.84808815  8.37189681
   2.84796870 17.84808709 11.20079717
   3.45517286 15.93579379  6.95744625
   9.52721566 15.93579273  9.78634737
   3.45517548 15.93579166  0.00000000
   8.31280782 13.38606798  6.95744625
   2.24076618 13.38606691  9.78634737
   8.31280898 13.38606584  0.00000000
  13.17044321 10.83634004  6.95744625
   7.09840085 10.83633897  9.78634737
  13.17044509 10.83633790  0.00000000
   5.88399025  8.28661263  6.95744625
  11.95603413  8.28661156  9.78634737
   5.88399104  8.28661049  0.00000000
  10.74162549  5.73688628  6.95744625
   4.66958313  5.73688521  9.78634737
  10.74162586  5.73688362  0.00000000
   3.45517358  3.18715860  6.95744625
   9.52721776  3.18715701  9.78634737
   3.45517460  3.18715541  0.00000000
   8.31280767  0.63743173  6.95744625
   2.24076530  0.63743058  9.78634737
   8.31280812  0.63742973  0.00000000
  11.34882796 16.57322632  5.54299645
   5.27678488 16.57322525  8.37189681
  11.34882912 16.57322418 11.20079717
   4.06237656 14.02349837  5.54299645
  10.13442026 14.02349730  8.37189681
   4.06237790 14.02349623 11.20079717
   8.92001227 11.47377148  5.54299645
   2.84796977 11.47376936  8.37189681
   8.92001271 11.47376936 11.20079717
   1.63355950  8.92404407  5.54299645
   7.70560240  8.92404249  8.37189681
   1.63356149  8.92404141 11.20079717
   6.49119456  6.37431774  5.54299645
  12.56323794  6.37431559  8.37189681
   6.49119637  6.37431508 11.20079717
  11.34882861  3.82459058  5.54299645
   5.27678689  3.82458899  8.37189681
  11.34882980  3.82458872 11.20079717
   4.06237746  1.27486317  5.54299645
  10.13442094  1.27486185  8.37189681
   4.06237862  1.27486104 11.20079717
   7.09839913 17.21065990  6.95744625
  13.17044301 17.21065883  9.78634737
   7.09839992 17.21065776  0.00000000
  11.95603329 14.66093089  6.95744625
   5.88399165 14.66092981  9.78634737
  11.95603445 14.66092876  0.00000000
   4.66958221 12.11120401  6.95744625
  10.74162646 12.11120294  9.78634737
   4.66958337 12.11120187  0.00000000
   9.52721629  9.56147712  6.95744625
   3.45517393  9.56147607  9.78634737
   9.52721817  9.56147500  0.00000000
   2.24076290  7.01174918  6.95744625
   8.31280714  7.01174812  9.78634737
   2.24076406  7.01174705  0.00000000
   7.09839832  4.46202150  6.95744625
   1.02635603  4.46202097  9.78634737
   7.09839869  4.46201884  0.00000000
  11.95603326  1.91229556  6.95744625
   5.88399235  1.91229450  9.78634737
  11.95603650  1.91229277  0.00000000
 


--------------------------------------------------------------------------------------------------------


 k-point     1 :   0.0000 0.0000 0.0000  plane waves:  114999
 k-point     2 :   0.3333 0.0000 0.0000  plane waves:  115002
 k-point     3 :   0.0000 0.5000 0.0000  plane waves:  115018
 k-point     4 :   0.3333 0.5000 0.0000  plane waves:  114996
 k-point     5 :   0.0000 0.0000 0.5000  plane waves:  114982
 k-point     6 :   0.3333 0.0000 0.5000  plane waves:  114974
 k-point     7 :   0.0000 0.5000 0.5000  plane waves:  115040
 k-point     8 :   0.3333 0.5000 0.5000  plane waves:  115022

 maximum and minimum number of plane-waves per node :      7224     7144

 maximum number of plane-waves:    115040
 maximum index in each direction: 
   IXMAX=   26   IYMAX=   38   IZMAX=   27
   IXMIN=  -26   IYMIN=  -39   IZMIN=  -27


 real space projection operators:
  total allocation   :      26481.98 KBytes
  max/ min on nodes  :       1659.64       1650.00


 parallel 3D FFT for wavefunctions:
    minimum data exchange during FFTs selected (reduces bandwidth)
 parallel 3D FFT for charge:
    minimum data exchange during FFTs selected (reduces bandwidth)


 total amount of memory used by VASP MPI-rank0   244694. kBytes
=======================================================================

   base      :      30000. kBytes
   nonlr-proj:       8442. kBytes
   fftplans  :      16603. kBytes
   grid      :      13820. kBytes
   one-center:        162. kBytes
   wavefun   :     175667. kBytes
 
     INWAV:  cpu time      0.0000: real time      0.0002
 Broyden mixing: mesh for mixing (old mesh)
   NGX = 53   NGY = 77   NGZ = 55
  (NGX  =160   NGY  =240   NGZ  =168)
  gives a total of 224455 points

 initial charge density was supplied:
 charge density of overlapping atoms calculated
 number of electron     624.0000000 magnetization       1.0000000
 keeping initial charge density in first step


--------------------------------------------------------------------------------------------------------


 Maximum index for non-local projection operator          211
 Maximum index for augmentation-charges         3007 (set IRDMAX)


--------------------------------------------------------------------------------------------------------


 First call to EWALD:  gamma=   0.127
 Maximum number of real-space cells 3x 2x 3
 Maximum number of reciprocal cells 2x 3x 3

    FEWALD:  cpu time      0.0037: real time      0.0037


--------------------------------------- Ionic step        1  -------------------------------------------




--------------------------------------- Iteration      1(   1)  ---------------------------------------


    POTLOK:  cpu time      0.1917: real time      0.1932
    SETDIJ:  cpu time      1.6634: real time      1.6717
     EDDAV:  cpu time     34.4130: real time     34.7285
       DOS:  cpu time      0.0026: real time      0.0026
    --------------------------------------------
      LOOP:  cpu time     36.2707: real time     36.5961

 eigenvalue-minimisations  : 12032
 total energy-change (2. order) : 0.4036543E+04  (-0.2945536E+05)
 number of electron     624.0000000 magnetization       1.0000000
 augmentation part      624.0000000 magnetization       1.0000000

 Free energy of the ion-electron system (eV)
  ---------------------------------------------------
  alpha Z        PSCENC =      1054.25927698
  Ewald energy   TEWEN  =    -16265.60621879
  -Hartree energ DENC   =     -1854.63555872
  -exchange      EXHF   =         0.00000000
  -V(xc)+E(xc)   XCENC  =     -1247.89735539
  PAW double counting   =     13749.10942522   -11265.43715961
  entropy T*S    EENTRO =        -0.00095870
  eigenvalues    EBANDS =      3626.29777590
  atomic energy  EATOM  =     16240.45333242
  Solvation  Ediel_sol  =         0.00000000
  ---------------------------------------------------
  free energy    TOTEN  =      4036.54255930 eV

  energy without entropy =     4036.54351800  energy(sigma->0) =     4036.54303865


--------------------------------------------------------------------------------------------------------




--------------------------------------- Iteration      1(   2)  ---------------------------------------


     EDDAV:  cpu time     39.0953: real time     39.4802
       DOS:  cpu time      0.0021: real time      0.0021
    --------------------------------------------
      LOOP:  cpu time     39.0974: real time     39.4823

 eigenvalue-minimisations  : 14192
 total energy-change (2. order) :-0.3477120E+04  (-0.3362395E+04)
 number of electron     624.0000000 magnetization       1.0000000
 augmentation part      624.0000000 magnetization       1.0000000

 Free energy of the ion-electron system (eV)
  ---------------------------------------------------
  alpha Z        PSCENC =      1054.25927698
  Ewald energy   TEWEN  =    -16265.60621879
  -Hartree energ DENC   =     -1854.63555872
  -exchange      EXHF   =         0.00000000
  -V(xc)+E(xc)   XCENC  =     -1247.89735539
  PAW double counting   =     13749.10942522   -11265.43715961
  entropy T*S    EENTRO =        -0.00265174
  eigenvalues    EBANDS =       149.17942173
  atomic energy  EATOM  =     16240.45333242
  Solvation  Ediel_sol  =         0.00000000
  ---------------------------------------------------
  free energy    TOTEN  =       559.42251209 eV

  energy without entropy =      559.42516384  energy(sigma->0) =      559.42383796


--------------------------------------------------------------------------------------------------------




--------------------------------------- Iteration      1(   3)  ---------------------------------------


     EDDAV:  cpu time     41.0757: real time     41.4876
       DOS:  cpu time      0.0022: real time      0.0022
    --------------------------------------------
      LOOP:  cpu time     41.0779: real time     41.4898

 eigenvalue-minimisations  : 15136
 total energy-change (2. order) :-0.3479519E+03  (-0.3336701E+03)
 number of electron     624.0000000 magnetization       1.0000000
 augmentation part      624.0000000 magnetization       1.0000000

 Free energy of the ion-electron system (eV)
  ---------------------------------------------------
  alpha Z        PSCENC =      1054.25927698
  Ewald energy   TEWEN  =    -16265.60621879
  -Hartree energ DENC   =     -1854.63555872
  -exchange      EXHF   =         0.00000000
  -V(xc)+E(xc)   XCENC  =     -1247.89735539
  PAW double counting   =     13749.10942522   -11265.43715961
  entropy T*S    EENTRO =        -0.00336971
  eigenvalues    EBANDS =      -198.77172592
  atomic energy  EATOM  =     16240.45333242
  Solvation  Ediel_sol  =         0.00000000
  ---------------------------------------------------
  free energy    TOTEN  =       211.47064647 eV

  energy without entropy =      211.47401618  energy(sigma->0) =      211.47233132


--------------------------------------------------------------------------------------------------------




--------------------------------------- Iteration      1(   4)  ---------------------------------------


     EDDAV:  cpu time     39.8578: real time     40.2601
       DOS:  cpu time      0.0020: real time      0.0020
    --------------------------------------------
      LOOP:  cpu time     39.8598: real time     40.2621

 eigenvalue-minimisations  : 14544
 total energy-change (2. order) :-0.1715553E+02  (-0.1665255E+02)
 number of electron     624.0000000 magnetization       1.0000000
 augmentation part      624.0000000 magnetization       1.0000000

 Free energy of the ion-electron system (eV)
  ---------------------------------------------------
  alpha Z        PSCENC =      1054.25927698
  Ewald energy   TEWEN  =    -16265.60621879
  -Hartree energ DENC   =     -1854.63555872
  -exchange      EXHF   =         0.00000000
  -V(xc)+E(xc)   XCENC  =     -1247.89735539
  PAW double counting   =     13749.10942522   -11265.43715961
  entropy T*S    EENTRO =        -0.00293142
  eigenvalues    EBANDS =      -215.92769746
  atomic energy  EATOM  =     16240.45333242
  Solvation  Ediel_sol  =         0.00000000
  ---------------------------------------------------
  free energy    TOTEN  =       194.31511322 eV

  energy without entropy =      194.31804465  energy(sigma->0) =      194.31657893


--------------------------------------------------------------------------------------------------------




--------------------------------------- Iteration      1(   5)  ---------------------------------------


     EDDAV:  cpu time     43.3346: real time     43.7403
       DOS:  cpu time      0.0020: real time      0.0020
    CHARGE:  cpu time      1.5107: real time      1.5248
    MIXING:  cpu time      0.0053: real time      0.0053
    --------------------------------------------
      LOOP:  cpu time     44.8526: real time     45.2724

 eigenvalue-minimisations  : 16088
 total energy-change (2. order) :-0.8335089E+00  (-0.8242017E+00)
 number of electron     623.9999996 magnetization       1.0000000
 augmentation part      -79.3688922 magnetization      -0.0656102

 Broyden mixing:
  rms(total) = 0.31077E+02    rms(broyden)= 0.31077E+02
  rms(prec ) = 0.31172E+02
  weight for this iteration     100.00

 Free energy of the ion-electron system (eV)
  ---------------------------------------------------
  alpha Z        PSCENC =      1054.25927698
  Ewald energy   TEWEN  =    -16265.60621879
  -Hartree energ DENC   =     -1854.63555872
  -exchange      EXHF   =         0.00000000
  -V(xc)+E(xc)   XCENC  =     -1247.89735539
  PAW double counting   =     13749.10942522   -11265.43715961
  entropy T*S    EENTRO =        -0.00281830
  eigenvalues    EBANDS =      -216.76131949
  atomic energy  EATOM  =     16240.45333242
  Solvation  Ediel_sol  =         0.00000000
  ---------------------------------------------------
  free energy    TOTEN  =       193.48160431 eV

  energy without entropy =      193.48442261  energy(sigma->0) =      193.48301346


--------------------------------------------------------------------------------------------------------




--------------------------------------- Iteration      1(   6)  ---------------------------------------


    POTLOK:  cpu time      0.1833: real time      0.1846
    SETDIJ:  cpu time      1.6452: real time      1.6538
     EDDAV:  cpu time     38.6696: real time     39.0089
       DOS:  cpu time      0.0022: real time      0.0022
    CHARGE:  cpu time      1.5032: real time      1.5145
    MIXING:  cpu time      0.0064: real time      0.0064
    --------------------------------------------
      LOOP:  cpu time     42.0099: real time     42.3704

 eigenvalue-minimisations  : 13976
 total energy-change (2. order) : 0.5499438E+02  (-0.3141560E+02)
 number of electron     623.9999996 magnetization       1.0000000
 augmentation part      -77.8901545 magnetization      -0.0800550

 Broyden mixing:
  rms(total) = 0.13334E+02    rms(broyden)= 0.13334E+02
  rms(prec ) = 0.13512E+02
  weight for this iteration     100.00

 eigenvalues of (default mixing * dielectric matrix)
  average eigenvalue GAMMA=   1.7086
  1.7086

 Free energy of the ion-electron system (eV)
  ---------------------------------------------------
  alpha Z        PSCENC =      1054.25927698
  Ewald energy   TEWEN  =    -16265.60621879
  -Hartree energ DENC   =     -2234.43146287
  -exchange      EXHF   =         0.00000000
  -V(xc)+E(xc)   XCENC  =     -1215.05790420
  PAW double counting   =    158602.57461070  -156158.03686864
  entropy T*S    EENTRO =        -0.00256544
  eigenvalues    EBANDS =       224.32378176
  atomic energy  EATOM  =     16240.45333242
  Solvation  Ediel_sol  =         0.00000000
  ---------------------------------------------------
  free energy    TOTEN  =       248.47598192 eV

  energy without entropy =      248.47854736  energy(sigma->0) =      248.47726464


--------------------------------------------------------------------------------------------------------




--------------------------------------- Iteration      1(   7)  ---------------------------------------


    POTLOK:  cpu time      0.1784: real time      0.1817
    SETDIJ:  cpu time      1.6450: real time      1.6536
     EDDAV:  cpu time     43.9535: real time     44.3568
       DOS:  cpu time      0.0023: real time      0.0023
    CHARGE:  cpu time      1.5069: real time      1.5183
    MIXING:  cpu time      0.0058: real time      0.0058
    --------------------------------------------
      LOOP:  cpu time     47.2918: real time     47.7186

 eigenvalue-minimisations  : 16336
 total energy-change (2. order) :-0.7194510E+02  (-0.3674428E+02)
 number of electron     623.9999996 magnetization       1.0000000
 augmentation part      -75.8558982 magnetization      -0.0673291

 Broyden mixing:
  rms(total) = 0.43364E+01    rms(broyden)= 0.43364E+01
  rms(prec ) = 0.85065E+01
  weight for this iteration     100.00

 eigenvalues of (default mixing * dielectric matrix)
  average eigenvalue GAMMA=   1.1955
  1.8395  0.5516

 Free energy of the ion-electron system (eV)
  ---------------------------------------------------
  alpha Z        PSCENC =      1054.25927698
  Ewald energy   TEWEN  =    -16265.60621879
  -Hartree energ DENC   =     -2176.17756932
  -exchange      EXHF   =         0.00000000
  -V(xc)+E(xc)   XCENC  =     -1195.76302121
  PAW double counting   =    402942.75057641  -400521.90496014
  entropy T*S    EENTRO =        -0.00308564
  eigenvalues    EBANDS =        98.52254926
  atomic energy  EATOM  =     16240.45333242
  Solvation  Ediel_sol  =         0.00000000
  ---------------------------------------------------
  free energy    TOTEN  =       176.53087997 eV

  energy without entropy =      176.53396561  energy(sigma->0) =      176.53242279


[...]
   0.301E+02 -.207E+02 0.652E+02   -.304E+02 0.220E+02 -.656E+02   -.182E+01 0.924E+00 -.185E+01   0.603E-04 -.649E-04 0.883E-04
   0.462E+02 0.316E+02 -.121E+02   -.586E+02 -.731E+02 0.114E+02   -.101E+02 -.306E+02 -.191E+00   0.173E-03 0.285E-04 -.396E-04
   -.226E+01 0.215E+01 -.148E+02   0.287E+01 -.210E+01 0.145E+02   -.234E+00 0.225E-01 0.101E+01   -.232E-04 -.606E-05 -.270E-04
   -.345E+02 0.145E+02 0.522E+02   0.350E+02 -.154E+02 -.532E+02   0.304E+01 -.695E+00 -.275E+01   -.325E-04 0.337E-04 0.144E-04
   -.165E+02 0.509E+01 -.584E+02   0.168E+02 -.568E+01 0.599E+02   0.140E+01 0.123E+01 0.360E+01   -.622E-04 0.925E-04 -.733E-04
   0.736E+00 0.230E+00 -.449E+02   -.703E+00 -.314E+00 0.450E+02   0.292E-01 0.183E+00 0.109E+01   0.227E-04 0.232E-04 -.895E-04
   0.738E+01 -.122E+02 0.812E+02   -.756E+01 0.127E+02 -.825E+02   0.328E+00 0.897E+00 -.190E+01   0.155E-04 -.839E-04 0.241E-03
   -.354E+01 -.402E+02 -.270E+02   0.406E+02 0.186E+03 0.282E+02   0.542E+01 0.302E+02 0.297E+01   -.242E-04 -.190E-03 -.298E-04
   0.189E+01 -.151E+01 -.905E+01   -.243E+01 0.187E+01 0.865E+01   0.406E+00 -.108E+00 0.104E+01   0.139E-04 -.777E-05 0.148E-04
   -.188E+01 0.119E+01 0.367E+02   0.226E+01 -.157E+01 -.366E+02   0.269E+00 0.239E+00 -.802E+00   -.189E-04 -.683E-04 -.759E-05
   -.282E+01 0.449E+01 -.360E+02   0.351E+01 -.436E+01 0.354E+02   0.214E+01 -.121E+01 0.239E+01   -.317E-05 0.378E-04 -.394E-04
   -.469E+01 0.370E+01 -.396E+02   0.433E+01 -.405E+01 0.399E+02   0.356E+00 0.374E+00 0.909E+00   0.204E-04 0.196E-04 -.464E-04
   -.104E+02 0.102E+01 0.112E+03   0.124E+02 -.274E+01 -.118E+03   0.327E+01 -.828E-01 -.166E+02   -.666E-04 0.167E-03 0.684E-04
   0.910E+01 -.396E+02 -.764E+02   -.906E+01 0.441E+02 0.817E+02   0.181E+01 0.823E+01 0.113E+02   0.182E-04 0.854E-04 0.378E-04
   0.599E+01 -.454E+01 0.241E+02   -.605E+01 0.459E+01 -.239E+02   0.729E-01 -.150E+00 -.841E+00   0.442E-05 -.154E-04 0.367E-04
   -.103E+01 0.670E+02 0.196E+02   -.447E+02 -.201E+03 -.202E+02   -.107E+02 -.345E+02 0.960E+00   -.608E-04 -.433E-04 0.162E-04
   -.147E+02 0.111E+02 -.536E+02   0.146E+02 -.113E+02 0.538E+02   0.832E-02 -.268E+00 0.783E+00   0.964E-05 -.130E-04 0.250E-04
   -.744E+01 0.623E+01 0.226E+02   0.774E+01 -.596E+01 -.223E+02   0.495E-02 -.547E-02 -.128E+01   -.215E-04 -.218E-04 0.410E-04
   0.599E+02 -.462E+02 0.355E+02   -.100E+03 0.855E+02 -.358E+02   -.250E+02 0.238E+02 -.851E+00   0.791E-04 -.744E-04 0.622E-05
   0.211E+02 0.150E+02 -.966E+02   -.216E+02 -.163E+02 0.999E+02   -.671E+00 -.730E+01 0.116E+02   0.326E-04 -.137E-03 -.848E-04
   0.447E+01 -.578E+01 0.385E+02   -.502E+01 0.613E+01 -.384E+02   0.639E+00 0.905E-02 -.101E+01   0.235E-04 0.265E-04 0.529E-04
   -.318E+02 0.432E+01 0.295E+02   0.331E+02 -.426E+01 -.292E+02   0.389E+01 -.704E+00 -.539E+00   -.520E-04 0.752E-04 -.825E-05
   -.186E+01 0.207E+01 -.368E+02   0.127E+01 -.223E+01 0.371E+02   -.166E+00 -.153E+00 0.424E+00   -.160E-04 0.275E-05 -.383E-04
   -.285E+01 0.329E+01 0.880E+01   0.362E+01 -.305E+01 -.890E+01   -.587E+00 -.972E-01 -.492E+00   -.525E-05 0.938E-06 -.397E-04
   -.292E+01 0.322E+02 0.503E+02   0.118E+02 -.548E+02 -.781E+02   0.370E+01 -.200E+02 -.203E+02   -.395E-04 0.172E-05 0.102E-03
   -.138E+02 -.731E+01 -.847E+02   0.138E+02 0.895E+01 0.863E+02   0.239E+01 0.239E+01 0.414E+01   0.938E-05 0.815E-04 -.209E-03
   0.195E+01 0.978E-01 0.452E+02   -.230E+01 -.338E+00 -.457E+02   0.193E+00 0.562E-01 -.678E+00   -.333E-04 0.128E-04 0.893E-04
   0.647E+01 -.178E+02 0.573E+02   -.668E+01 0.185E+02 -.583E+02   0.488E+00 0.313E+01 -.429E+01   0.539E-04 -.409E-04 0.432E-04
   0.196E+02 -.929E+01 -.389E+02   -.196E+02 0.938E+01 0.389E+02   -.347E+00 0.450E+00 0.276E+00   0.264E-04 -.370E-04 -.397E-04
   0.993E+00 -.894E+00 0.118E+02   -.149E+01 0.909E+00 -.116E+02   0.269E+00 0.903E-01 -.803E+00   0.207E-04 -.323E-04 -.155E-04
   -.473E+02 -.233E+02 0.108E+02   0.451E+02 0.106E+03 -.107E+02   0.903E+01 0.284E+02 0.477E+00   -.183E-03 -.333E-04 0.272E-04
   -.333E+02 0.293E+02 -.813E+02   0.342E+02 -.312E+02 0.824E+02   0.450E+01 -.479E+01 0.784E+01   -.981E-04 0.135E-03 -.152E-03
   -.435E+01 0.298E+01 0.322E+02   0.397E+01 -.241E+01 -.329E+02   0.411E+00 -.284E+00 -.436E+00   0.265E-04 0.410E-04 0.425E-04
   0.192E+02 -.747E+01 0.811E+02   -.327E+01 -.207E+02 -.155E+03   0.856E+01 -.122E+02 -.364E+02   0.547E-05 -.687E-04 0.249E-04
 -----------------------------------------------------------------------------------------------
   -.153E+01 0.612E+01 -.830E+00   -.430E-12 0.387E-12 -.796E-12   0.153E+01 -.604E+01 0.915E+00   -.179E-03 0.144E-03 -.154E-03
 
 
 POSITION                                       TOTAL-FORCE (eV/Angst)
 -----------------------------------------------------------------------------------
     10.47427     10.76256      0.00000        27.995776     34.269975      1.475729
      1.97342      5.30898      1.10860        -1.577193     -3.921818      4.011139
      8.04546     17.70348      2.21720         0.325986      0.105008      0.986914
     11.68869     12.24990      3.32580        -0.339232     -0.525098     -1.006325
      3.18783      6.79631      4.43440         1.817182      5.003455     -4.357057
      6.83105      1.34272      5.54300       -33.076033    -40.011374     -3.027634
      5.61664      4.81320      0.00000       -44.152910     10.461288      1.699564
     11.68868     17.20770      1.10860         4.368595     -5.048913      5.900184
      3.18783     11.75412      2.21720        -0.220027     -0.207603      1.009924
      6.83105      6.30053      3.32580         0.995317      0.109239     -3.059048
     10.47428      0.84695      4.43440        -0.972014      1.397011     -1.123594
      4.40224     13.24145      5.54300       113.028583   -257.065559    -11.655041
      3.18782     16.71193      0.00000       -99.463300    285.978838     10.367906
      6.83105     11.25834      1.10860        -0.660845      0.230939      0.079194
     10.47428      5.80475      2.21720        -0.195120     -0.033289      2.728045
      1.97342      0.35117      3.32580        -0.136044      0.395213     -1.349924
      8.04546     12.74567      4.43440        -4.777922      6.848066     -8.016787
     11.68869      7.29209      5.54300        35.434374     -6.160827     -1.632401
      2.58062     12.24991      0.00000        -1.043738      2.384501      1.229199
      6.22385      6.79632      1.10860         1.593670     -9.488710      8.808997
      9.86707      1.34273      2.21720        -0.028917      0.103518      1.294745
      3.79503     13.73724      3.32580        -0.258810      0.041595     -1.845838
      7.43826      8.28365      4.43440         1.383181      0.612379     -0.797779
     11.08149      2.83007      5.54299       -51.612098   -171.137823     -8.086595
      9.86707      6.30054      0.00000      -150.870261     92.441187      6.084665
      1.36621      0.84696      1.10860         2.438766     -2.095388      2.227787
      7.43825     13.24146      2.21720        -0.699000     -0.372452      1.300776
     11.08148      7.78788      3.32580         0.706202      0.096527     -1.873582
      2.58062      2.33429      4.43440        -2.401581      0.961640     -2.117763
      8.65266     14.72879      5.54300       131.021418    -74.103569     -5.904210
      5.00944      0.35118      0.00000        61.773034    162.021757      7.298489
     11.08148     12.74568      1.10860        -0.497660     -1.536690      1.565650
      2.58062      7.29209      2.21720         0.258336      0.331217      2.441380
      6.22385      1.83851      3.32580        -0.346190     -0.025665     -0.835772
     12.29589     14.23302      4.43440        -1.023507      8.511810     -7.934266
      3.79503      8.77943      5.54300        -0.241993     -3.805345      0.079190
     12.90309     13.73725      0.00000        66.626717    -52.124779     15.276061
      4.40223      8.28366      1.10860       -10.856301      0.253898      8.425950
      8.04546      2.83007      2.21720         0.346482     -0.625478      0.637866
     14.11750     15.22458      3.32580        -0.252466     -0.018035     -0.514596
      5.61665      9.77099      4.43440        31.041985    -38.735405   -102.623896
      9.25987      4.31741      5.54300        -3.365198      0.732569     -1.050342
      8.04546      7.78788      0.00000         0.834467     -1.392581      1.081085
     11.68868      2.33430      1.10860       -26.410773     40.854311    109.724987
      5.61664     14.72880      2.21720         0.303958     -0.193262      0.361592
      9.25987      9.27522      3.32580         0.028154     -0.038095     -0.584909
      0.75901      3.82163      4.43440         7.023678     -0.433189     -6.638039
      6.83105     16.21613      5.54300       -73.028224     62.688312    -16.022801
      3.18782      1.83852      0.00000       -24.116720    -65.834831     15.270654
      9.25987     14.23302      1.10860        14.719720     12.303335     17.049613
     12.90309      8.77944      2.21720         0.034934     -0.041874      0.441078
      4.40223      3.32585      3.32580         0.060207     -0.025695     -0.485763
     10.47428     15.72035      4.43440       -14.495155    -14.922835    -19.645365
      1.97342     10.26677      5.54300        26.164521     66.042899    -13.284444
      5.00944     15.22459      0.00000        21.888425     -5.938651      3.946013
      8.65266      9.77100      1.10860       -39.061250      9.016224     50.630992
     12.29589      4.31742      2.21720         0.104081      0.084218      0.480342
      6.22385     16.71192      3.32580        -0.593602      0.480491     -0.424057
      9.86707     11.25833      4.43440        35.439060     -7.803954    -41.821345
      1.36622      5.80475      5.54300       -28.992738      9.433961     -4.529375
     12.29589      9.27522      0.00000       -10.178571    -13.817977      3.907181
      3.79503      3.82164      1.10860        23.396018     43.220229     75.715456
      9.86707     16.21614      2.21720         0.089154      0.160862      0.218229
     13.51030     10.76256      3.32580        -0.022065      0.491420     -0.400875
      5.00944      5.30897      4.43440        -2.159086     -1.712769     -2.378241
     11.08149     17.70347      5.54300       -23.939208    116.886984    -24.767346
      7.43825      3.32586      0.00000        32.005573   -107.013068     26.491508
     13.51030     15.72036      1.10860         1.762697      2.402851      2.506432
      5.00944     10.26678      2.21720         0.015719     -0.085713      0.759874
      8.65266      4.81319      3.32580        -0.132085      0.018605     -0.628061
      2.58062     17.20770      4.43440       -19.225258    -45.535475    -80.871156
      6.22385     11.75411      5.54300         9.944758     11.222884     -3.082784
      7.70560     15.29836      5.54300       -59.853705      4.652562     -0.481291
     13.77765     15.29836      8.37190         0.118354     -0.027545      0.498832
      7.70560     15.29836     11.20080        -0.453913     -0.875152     -0.058350
     12.56324     12.74864      5.54300         2.211023     -8.714739      7.592047
      6.49120     12.74863      8.37190         0.078490      0.233475      1.128841
     12.56324     12.74863     11.20080        -4.091417    -11.437718    -17.305106
      5.27679     10.19891      5.54300       -34.545188     30.240577    100.244391
     11.34883     10.19891      8.37190        -0.114179     -0.121352      0.369780
      5.27679     10.19891     11.20080         0.088072      0.445563     -0.258929
     10.13442      7.64918      5.54300       -35.753838      8.610636      0.861269
      4.06238      7.64918      8.37190         0.102023     -0.259122      0.930602
     10.13442      7.64918     11.20080         1.566525      6.028481     -6.943757
      2.84797      5.09945      5.54300        25.820831    -18.232669      3.600894
      8.92001      5.09945      8.37190        -0.133920     -0.074839      0.987495
      2.84797      5.09945     11.20080         0.312104      0.427530     -1.033100
      7.70560      2.54973      5.54300        29.042938     42.715876     -0.691510
      1.63356      2.54973      8.37190         0.043108      0.265071      0.494859
      7.70560      2.54972     11.20080         5.488869    -15.780276    -26.995973
      0.41915      0.00000      5.54300        19.479966     45.460848     80.993862
      8.92001     17.84809      8.37190        -0.009496     -0.299127      0.889011
      2.84797     17.84809     11.20080        -3.179222      9.000325    -11.099940
      3.45517     15.93579      6.95745         0.140454      0.270760      0.385209
      9.52722     15.93579      9.78635         0.014947     -0.207797     -0.437238
      3.45518     15.93579      0.00000        82.701570   -285.186381      0.420911
      8.31281     13.38607      6.95745        -0.339883     -5.948969      6.835904
      2.24077     13.38607      9.78635         0.009906      0.219505     -1.170450
      8.31281     13.38607      0.00000       -14.125973    -11.776863    -18.190862
     13.17044     10.83634      6.95745        -8.615995      6.240949     13.406222
      7.09840     10.83634      9.78635        -0.153505     -0.262784     -0.639601
     13.17045     10.83634      0.00000         6.057123     11.656350      0.972590
      5.88399      8.28661      6.95745         0.355492     -0.857934      1.143786
     11.95603      8.28661      9.78635         0.209426     -0.169331     -1.019583
      5.88399      8.28661      0.00000         5.553028     10.570118    -14.667964
     10.74163      5.73689      6.95745        -0.510126     -0.947579      1.875853
      4.66958      5.73689      9.78635        -0.200473     -0.214550     -0.791077
     10.74163      5.73688      0.00000       150.500956    -98.616339     -1.292991
      3.45517      3.18716      6.95745         0.447429     -0.245615      0.359135
      9.52722      3.18716      9.78635        -0.005640      0.116485     -0.669019
      3.45517      3.18716      0.00000        -9.780219     30.045613    -73.992196
      8.31281      0.63743      6.95745        -3.448251     12.778378     28.444165
      2.24077      0.63743      9.78635        -0.325971     -0.270030     -1.302641
      8.31281      0.63743      0.00000        -4.951384      5.065048     -4.830351
     11.34883     16.57323      5.54300        45.427250   -117.506683     17.971003
      5.27678     16.57323      8.37190        -0.113717     -0.225895      0.841531
     11.34883     16.57322     11.20080        -0.291327      0.197928     -0.737082
      4.06238     14.02350      5.54300      -115.515757    267.286276      1.021894
     10.13442     14.02350      8.37190         0.165115      0.168570      0.862507
      4.06238     14.02350     11.20080        -1.269573     -3.159220     -3.979018
      8.92001     11.47377      5.54300       -29.271685      0.212796     47.024649
      2.84797     11.47377      8.37190        -0.009955     -0.057147      1.199286
      8.92001     11.47377     11.20080        -2.076654      2.223779     -2.285038
      1.63356      8.92404      5.54300       -22.493874    -72.059154     -0.858866
      7.70560      8.92404      8.37190         0.373156      0.073992      0.635473
      1.63356      8.92404     11.20080         3.504851     -1.639482     -3.793288
      6.49119      6.37432      5.54300         1.702936      0.638330      5.097427
     12.56324      6.37432      8.37190         0.062547      0.098664      1.222273
      6.49120      6.37432     11.20080         0.149654      1.339239     -3.233384
     11.34883      3.82459      5.54300        42.436168    175.760979      4.153300
      5.27679      3.82459      8.37190        -0.129460      0.257155      0.641531
     11.34883      3.82459     11.20080         0.644463     -0.148552     -0.713291
      4.06238      1.27486      5.54300         2.819454     -1.086381      1.787014
     10.13442      1.27486      8.37190        -0.003115      0.020740      1.181664
      4.06238      1.27486     11.20080         5.241734     -1.797350    -22.907858
      7.09840     17.21066      6.95745         1.842411     12.699338     16.613408
     13.17044     17.21066      9.78635         0.016704     -0.105031     -0.716984
      7.09840     17.21066      0.00000       -56.406834   -168.908778      0.285736
     11.95603     14.66093      6.95745        -0.068663     -0.463373      0.964404
      5.88399     14.66093      9.78635         0.301598      0.266159     -1.033767
     11.95603     14.66093      0.00000       -65.231426     63.123161     -1.195251
      4.66958     12.11120      6.95745        -1.181546     -8.555601     14.960690
     10.74163     12.11120      9.78635         0.094778      0.361408     -0.958884
      4.66958     12.11120      0.00000         5.147955     -0.640328     -0.235522
      9.52722      9.56148      6.95745        -0.755136     -0.313956      0.639379
      3.45517      9.56148      9.78635         0.182660      0.139191     -0.594846
      9.52722      9.56147      0.00000        12.618647    -42.530371    -48.069410
      2.24076      7.01175      6.95745         2.318643      4.027920      5.797965
      8.31281      7.01175      9.78635        -0.150552     -0.184884     -1.229367
      2.24076      7.01175      0.00000         0.284733      3.849171     -5.307659
      7.09840      4.46202      6.95745        -0.345482      0.542456      0.256247
      1.02636      4.46202      9.78635        -0.223355      0.105051     -0.561964
      7.09840      4.46202      0.00000         6.879303    111.394855      0.580892
     11.95603      1.91230      6.95745         5.457544     -6.650820      8.894633
      5.88399      1.91229      9.78635         0.035735      0.282015     -1.121543
     11.95604      1.91229      0.00000        24.532106    -40.319030   -110.800992
 -----------------------------------------------------------------------------------
    total drift:                               -0.000757      0.080627      0.084424


--------------------------------------------------------------------------------------------------------



  FREE ENERGIE OF THE ION-ELECTRON SYSTEM (eV)
  ---------------------------------------------------
  free  energy   TOTEN  =       257.42975394 eV

  energy  without entropy=      257.43281699  energy(sigma->0) =      257.43128546
 


--------------------------------------------------------------------------------------------------------


    POTLOK:  cpu time      1.8202: real time      1.8301


--------------------------------------------------------------------------------------------------------


     LOOP+:  cpu time   1506.9336: real time   1520.6731
    4ORBIT:  cpu time      0.0000: real time      0.0000

 total amount of memory used by VASP MPI-rank0   244694. kBytes
=======================================================================

   base      :      30000. kBytes
   nonlr-proj:       8442. kBytes
   fftplans  :      16603. kBytes
   grid      :      13820. kBytes
   one-center:        162. kBytes
   wavefun   :     175667. kBytes
 
  
  
 General timing and accounting informations for this job:
 ========================================================
  
                  Total CPU time used (sec):     1584.142
                            User time (sec):     1519.002
                          System time (sec):       65.139
                         Elapsed time (sec):     1600.424
  
                   Maximum memory used (kb):      536932.
                   Average memory used (kb):          N/A
  
                          Minor page faults:       182554
                          Major page faults:           29
                 Voluntary context switches:         2238
