 120 120   0   0
  0.1350815E+02  0.1629300E-08  0.1629300E-08  0.8192404E-09  0.5000000E-15
  1.000000000000000E-004
  CAR 
 Si and Ge interface calculation         
      7.38723510    -15.05755321  301      4.02788919      1.00000000
    -15.058  0.0000E+00  0.0000E+00  0.0000E+00  0.0000E+00
    -14.983  0.0000E+00  0.0000E+00  0.0000E+00  0.0000E+00
    -14.908  0.0000E+00  0.0000E+00  0.0000E+00  0.0000E+00
    -14.833  0.0000E+00  0.0000E+00  0.0000E+00  0.0000E+00
    -14.758  0.0000E+00  0.0000E+00  0.0000E+00  0.0000E+00
    -14.683  0.0000E+00  0.0000E+00  0.0000E+00  0.0000E+00
    -14.609  0.0000E+00  0.0000E+00  0.0000E+00  0.0000E+00
    -14.534  0.0000E+00  0.0000E+00  0.0000E+00  0.0000E+00
    -14.459  0.0000E+00  0.0000E+00  0.0000E+00  0.0000E+00
    -14.384  0.0000E+00  0.0000E+00  0.0000E+00  0.0000E+00
    -14.309  0.0000E+00  0.0000E+00  0.0000E+00  0.0000E+00
    -14.235  0.0000E+00  0.0000E+00  0.0000E+00  0.0000E+00
    -14.160  0.0000E+00  0.0000E+00  0.0000E+00  0.0000E+00
    -14.085  0.1709E-10  0.1401E-14  0.1279E-11  0.1049E-15
    -14.010  0.2972E+01  0.2954E+01  0.2224E+00  0.2210E+00
    -13.935  0.1781E+02  0.1746E+02  0.1555E+01  0.1529E+01
    -13.860  0.4167E+01  0.8658E+00  0.1867E+01  0.1620E+01
    -13.786  0.1376E+02  0.1696E+02  0.2897E+01  0.2889E+01
    -13.711  0.1691E+02  0.1302E+02  0.4162E+01  0.3863E+01
    -13.636  0.1187E+02  0.1625E+02  0.5110E+01  0.5079E+01
    -13.561  0.1743E+02  0.1459E+02  0.6415E+01  0.6202E+01
    -13.486  0.4744E-06  0.2151E+01  0.6444E+01  0.6444E+01
    -13.412  0.8668E+01  0.6383E+01  0.7093E+01  0.6922E+01
    -13.337  0.2703E+02  0.2446E+02  0.9115E+01  0.8752E+01
    -13.262  0.1074E+02  0.1667E+02  0.1002E+02  0.1000E+02
    -13.187  0.5889E+01  0.5941E+01  0.1046E+02  0.1045E+02
    -13.112  0.1168E+02  0.1171E+02  0.1133E+02  0.1132E+02
    -13.038  0.6265E+01  0.5530E+01  0.1180E+02  0.1175E+02
    -12.963  0.2485E+02  0.2179E+02  0.1366E+02  0.1341E+02
    -12.888  0.1605E+02  0.1971E+02  0.1489E+02  0.1489E+02
    -12.813  0.2175E+02  0.2071E+02  0.1652E+02  0.1644E+02
    -12.738  0.1235E+02  0.1193E+02  0.1744E+02  0.1734E+02
    -12.663  0.4501E+01  0.5800E+01  0.1778E+02  0.1778E+02
    -12.589  0.1413E+02  0.1132E+02  0.1884E+02  0.1862E+02
    -12.514  0.1545E+02  0.1671E+02  0.2000E+02  0.1995E+02
    -12.439  0.2187E+00  0.5364E-02  0.2002E+02  0.2000E+02
    -12.364  0.2668E+02  0.2488E+02  0.2201E+02  0.2186E+02
    -12.289  0.1448E+02  0.1561E+02  0.2311E+02  0.2306E+02
    -12.215  0.4772E+01  0.9365E+00  0.2347E+02  0.2318E+02
    -12.140  0.1305E+02  0.1688E+02  0.2444E+02  0.2444E+02
    -12.065  0.1024E+02  0.5297E+01  0.2521E+02  0.2484E+02
    -11.990  0.3817E-01  0.6584E+01  0.2534E+02  0.2533E+02
    -11.915  0.1299E+02  0.1209E+02  0.2631E+02  0.2624E+02
    -11.840  0.1066E+02  0.1105E+02  0.2710E+02  0.2706E+02
    -11.766  0.1105E+02  0.8500E+01  0.2794E+02  0.2775E+02
    -11.691  0.2219E-12  0.3381E+01  0.2800E+02  0.2800E+02
    -11.616  0.2968E+01  0.2910E+01  0.2822E+02  0.2822E+02
    -11.541  0.5736E+01  0.4508E+01  0.2865E+02  0.2856E+02
    -11.466  0.1810E+00  0.1440E+01  0.2868E+02  0.2867E+02
    -11.392  0.1170E+02  0.1187E+02  0.2956E+02  0.2956E+02
    -11.317  0.1895E+02  0.1185E+02  0.3097E+02  0.3044E+02
    -11.242  0.2321E+02  0.2785E+02  0.3285E+02  0.3253E+02
    -11.167  0.3594E+01  0.7819E+01  0.3312E+02  0.3311E+02
    -11.092  0.1630E+02  0.1344E+02  0.3434E+02  0.3412E+02
    -11.017  0.2666E+02  0.2807E+02  0.3639E+02  0.3622E+02
    -10.943  0.1485E+02  0.1772E+02  0.3756E+02  0.3754E+02
    -10.868  0.5596E+01  0.3297E+01  0.3797E+02  0.3780E+02
    -10.793  0.1129E+02  0.1121E+02  0.3884E+02  0.3864E+02
    -10.718  0.1327E+02  0.1044E+02  0.3988E+02  0.3944E+02
    -10.643  0.9286E+01  0.1519E+02  0.4068E+02  0.4058E+02
    -10.569  0.1753E+02  0.1781E+02  0.4200E+02  0.4200E+02
    -10.494  0.6218E+01  0.5194E+01  0.4247E+02  0.4239E+02
    -10.419  0.5611E+01  0.5924E+01  0.4289E+02  0.4289E+02
    -10.344  0.1188E+02  0.1188E+02  0.4378E+02  0.4378E+02
    -10.269  0.2035E-01  0.2206E-03  0.4378E+02  0.4378E+02
    -10.195  0.1185E+02  0.1150E+02  0.4467E+02  0.4464E+02
    -10.120  0.7784E+01  0.6141E+01  0.4525E+02  0.4513E+02
    -10.045  0.1598E+02  0.1756E+02  0.4644E+02  0.4644E+02
     -9.970  0.1165E+02  0.9909E+01  0.4732E+02  0.4719E+02
     -9.895  0.2516E+01  0.2234E+01  0.4752E+02  0.4736E+02
     -9.820  0.1874E+02  0.1805E+02  0.4892E+02  0.4871E+02
     -9.746  0.7648E+01  0.8635E+01  0.4950E+02  0.4936E+02
     -9.671  0.2476E+02  0.2111E+02  0.5135E+02  0.5094E+02
     -9.596  0.2654E+02  0.3201E+02  0.5333E+02  0.5333E+02
     -9.521  0.1479E+02  0.1222E+02  0.5444E+02  0.5425E+02
     -9.446  0.1026E+02  0.9810E+01  0.5521E+02  0.5498E+02
     -9.372  0.2879E+02  0.2955E+02  0.5738E+02  0.5719E+02
     -9.297  0.2454E+02  0.2164E+02  0.5923E+02  0.5883E+02
     -9.222  0.1475E+02  0.1418E+02  0.6039E+02  0.5992E+02
     -9.147  0.1598E+02  0.1989E+02  0.6163E+02  0.6140E+02
     -9.072  0.3301E+02  0.2581E+02  0.6411E+02  0.6333E+02
     -8.997  0.2232E+02  0.3003E+02  0.6586E+02  0.6560E+02
     -8.923  0.1659E+02  0.1994E+02  0.6713E+02  0.6709E+02
     -8.848  0.1851E+02  0.1375E+02  0.6852E+02  0.6812E+02
     -8.773  0.1996E+02  0.2089E+02  0.7009E+02  0.6970E+02
     -8.698  0.1641E+02  0.1970E+02  0.7135E+02  0.7118E+02
     -8.623  0.1782E+02  0.1934E+02  0.7269E+02  0.7262E+02
     -8.549  0.1368E+02  0.1214E+02  0.7372E+02  0.7355E+02
     -8.474  0.3385E+02  0.3189E+02  0.7627E+02  0.7594E+02
     -8.399  0.1019E+02  0.1312E+02  0.7705E+02  0.7694E+02
     -8.324  0.2181E+02  0.2312E+02  0.7870E+02  0.7867E+02
     -8.249  0.1518E+02  0.1475E+02  0.7983E+02  0.7977E+02
     -8.174  0.1187E+02  0.1181E+02  0.8072E+02  0.8066E+02
     -8.100  0.1657E+02  0.1572E+02  0.8196E+02  0.8185E+02
     -8.025  0.5045E+01  0.4091E+01  0.8238E+02  0.8218E+02
     -7.950  0.5776E+00  0.3592E+01  0.8245E+02  0.8244E+02
     -7.875  0.1176E+02  0.1188E+02  0.8333E+02  0.8333E+02
     -7.800  0.0000E+00  0.0000E+00  0.8333E+02  0.8333E+02
     -7.726  0.5331E-02  0.1124E-03  0.8333E+02  0.8333E+02
     -7.651  0.9413E+01  0.6580E+01  0.8404E+02  0.8383E+02
     -7.576  0.2462E+01  0.5301E+01  0.8422E+02  0.8422E+02
     -7.501  0.2206E+01  0.4620E+00  0.8439E+02  0.8426E+02
     -7.426  0.3735E+01  0.5478E+01  0.8467E+02  0.8467E+02
     -7.352  0.2970E+01  0.2970E+01  0.8489E+02  0.8489E+02
     -7.277  0.5969E+01  0.5920E+01  0.8534E+02  0.8533E+02
     -7.202  0.1400E+02  0.1138E+02  0.8638E+02  0.8618E+02
     -7.127  0.6577E+01  0.9388E+01  0.8690E+02  0.8689E+02
     -7.052  0.1074E+02  0.8910E+01  0.8771E+02  0.8756E+02
     -6.977  0.6740E+01  0.7818E+01  0.8821E+02  0.8818E+02
     -6.903  0.2760E+01  0.2248E+01  0.8843E+02  0.8835E+02
     -6.828  0.1347E+02  0.1328E+02  0.8946E+02  0.8936E+02
     -6.753  0.1530E+01  0.2464E+01  0.8958E+02  0.8956E+02
     -6.678  0.1031E+02  0.8864E+01  0.9035E+02  0.9022E+02
     -6.603  0.1579E+02  0.1541E+02  0.9155E+02  0.9138E+02
     -6.529  0.1790E+02  0.1789E+02  0.9292E+02  0.9273E+02
     -6.454  0.1996E+02  0.1831E+02  0.9441E+02  0.9413E+02
     -6.379  0.3584E+02  0.3542E+02  0.9711E+02  0.9678E+02
     -6.304  0.2636E+02  0.2634E+02  0.9914E+02  0.9876E+02
     -6.229  0.2919E+02  0.3131E+02  0.1014E+03  0.1011E+03
     -6.154  0.3168E+02  0.3146E+02  0.1038E+03  0.1035E+03
     -6.080  0.1659E+02  0.1692E+02  0.1051E+03  0.1048E+03
     -6.005  0.2292E+02  0.2470E+02  0.1068E+03  0.1067E+03
     -5.930  0.3065E+02  0.2758E+02  0.1091E+03  0.1088E+03
     -5.855  0.2394E+02  0.2720E+02  0.1110E+03  0.1108E+03
     -5.780  0.3731E+02  0.3776E+02  0.1138E+03  0.1137E+03
     -5.706  0.1995E+02  0.1734E+02  0.1153E+03  0.1150E+03
     -5.631  0.3280E+02  0.3213E+02  0.1177E+03  0.1174E+03
     -5.556  0.2697E+02  0.2828E+02  0.1198E+03  0.1196E+03
     -5.481  0.2444E+02  0.2391E+02  0.1217E+03  0.1214E+03
     -5.406  0.2439E+02  0.2370E+02  0.1235E+03  0.1232E+03
     -5.331  0.2926E+02  0.2889E+02  0.1257E+03  0.1254E+03
     -5.257  0.2683E+02  0.2751E+02  0.1278E+03  0.1275E+03
     -5.182  0.3224E+02  0.3218E+02  0.1302E+03  0.1299E+03
     -5.107  0.2823E+02  0.2995E+02  0.1324E+03  0.1322E+03
     -5.032  0.2916E+02  0.2769E+02  0.1346E+03  0.1343E+03
     -4.957  0.3858E+02  0.3657E+02  0.1375E+03  0.1370E+03
     -4.883  0.3246E+02  0.3537E+02  0.1400E+03  0.1397E+03
     -4.808  0.2815E+02  0.2655E+02  0.1421E+03  0.1418E+03
     -4.733  0.1846E+02  0.2134E+02  0.1435E+03  0.1434E+03
     -4.658  0.2594E+02  0.2516E+02  0.1455E+03  0.1453E+03
     -4.583  0.2936E+02  0.2944E+02  0.1477E+03  0.1475E+03
     -4.509  0.3528E+02  0.3274E+02  0.1504E+03  0.1500E+03
     -4.434  0.3873E+02  0.3972E+02  0.1533E+03  0.1530E+03
     -4.359  0.3614E+02  0.3686E+02  0.1561E+03  0.1557E+03
     -4.284  0.3184E+02  0.3347E+02  0.1585E+03  0.1583E+03
     -4.209  0.3515E+02  0.3218E+02  0.1612E+03  0.1607E+03
     -4.134  0.2758E+02  0.3065E+02  0.1633E+03  0.1631E+03
     -4.060  0.2271E+02  0.2171E+02  0.1650E+03  0.1647E+03
     -3.985  0.2234E+02  0.2465E+02  0.1667E+03  0.1666E+03
     -3.910  0.2622E+02  0.2258E+02  0.1687E+03  0.1683E+03
     -3.835  0.3111E+02  0.3213E+02  0.1710E+03  0.1707E+03
     -3.760  0.3101E+02  0.3119E+02  0.1734E+03  0.1731E+03
     -3.686  0.3304E+02  0.3462E+02  0.1759E+03  0.1757E+03
     -3.611  0.1633E+02  0.1424E+02  0.1771E+03  0.1768E+03
     -3.536  0.2659E+02  0.2842E+02  0.1791E+03  0.1790E+03
     -3.461  0.2882E+02  0.2610E+02  0.1813E+03  0.1810E+03
     -3.386  0.3748E+02  0.3881E+02  0.1842E+03  0.1839E+03
     -3.311  0.3502E+02  0.3335E+02  0.1868E+03  0.1864E+03
     -3.237  0.2799E+02  0.3327E+02  0.1890E+03  0.1889E+03
     -3.162  0.2734E+02  0.2391E+02  0.1910E+03  0.1907E+03
     -3.087  0.3221E+02  0.3119E+02  0.1935E+03  0.1931E+03
     -3.012  0.2877E+02  0.3296E+02  0.1956E+03  0.1956E+03
     -2.937  0.2023E+02  0.1916E+02  0.1971E+03  0.1970E+03
     -2.863  0.1791E+02  0.1896E+02  0.1985E+03  0.1984E+03
     -2.788  0.1772E+02  0.1714E+02  0.1998E+03  0.1998E+03
     -2.713  0.1831E+02  0.1462E+02  0.2012E+03  0.2009E+03
     -2.638  0.2384E+02  0.2578E+02  0.2030E+03  0.2028E+03
     -2.563  0.2622E+02  0.2488E+02  0.2050E+03  0.2047E+03
     -2.488  0.3830E+02  0.3794E+02  0.2079E+03  0.2076E+03
     -2.414  0.2758E+02  0.2644E+02  0.2100E+03  0.2097E+03
     -2.339  0.3749E+02  0.3802E+02  0.2129E+03  0.2125E+03
     -2.264  0.3095E+02  0.3343E+02  0.2153E+03  0.2150E+03
     -2.189  0.3913E+02  0.3744E+02  0.2182E+03  0.2179E+03
     -2.114  0.3581E+02  0.3636E+02  0.2209E+03  0.2207E+03
     -2.040  0.3210E+02  0.3151E+02  0.2233E+03  0.2230E+03
     -1.965  0.3428E+02  0.3499E+02  0.2259E+03  0.2257E+03
     -1.890  0.3581E+02  0.3530E+02  0.2286E+03  0.2283E+03
     -1.815  0.3571E+02  0.3517E+02  0.2313E+03  0.2310E+03
     -1.740  0.3271E+02  0.2902E+02  0.2338E+03  0.2332E+03
     -1.665  0.4009E+02  0.4278E+02  0.2368E+03  0.2365E+03
     -1.591  0.4203E+02  0.4276E+02  0.2400E+03  0.2397E+03
     -1.516  0.3925E+02  0.3575E+02  0.2430E+03  0.2424E+03
     -1.441  0.5075E+02  0.5060E+02  0.2468E+03  0.2463E+03
     -1.366  0.3394E+02  0.3862E+02  0.2495E+03  0.2492E+03
     -1.291  0.4087E+02  0.3881E+02  0.2526E+03  0.2521E+03
     -1.217  0.4114E+02  0.4122E+02  0.2557E+03  0.2553E+03
     -1.142  0.3869E+02  0.3903E+02  0.2586E+03  0.2583E+03
     -1.067  0.3814E+02  0.3919E+02  0.2615E+03  0.2612E+03
     -0.992  0.3191E+02  0.3323E+02  0.2640E+03  0.2638E+03
     -0.917  0.4400E+02  0.4172E+02  0.2673E+03  0.2669E+03
     -0.843  0.4665E+02  0.4360E+02  0.2708E+03  0.2702E+03
     -0.768  0.3758E+02  0.4143E+02  0.2737E+03  0.2733E+03
     -0.693  0.4619E+02  0.4346E+02  0.2771E+03  0.2766E+03
     -0.618  0.4571E+02  0.4877E+02  0.2806E+03  0.2803E+03
     -0.543  0.2715E+02  0.2794E+02  0.2827E+03  0.2825E+03
     -0.468  0.3542E+02  0.3504E+02  0.2853E+03  0.2851E+03
     -0.394  0.3137E+02  0.2940E+02  0.2877E+03  0.2874E+03
     -0.319  0.3076E+02  0.3013E+02  0.2900E+03  0.2897E+03
     -0.244  0.3431E+02  0.3255E+02  0.2926E+03  0.2922E+03
     -0.169  0.2305E+02  0.2605E+02  0.2944E+03  0.2941E+03
     -0.094  0.3322E+02  0.3273E+02  0.2970E+03  0.2966E+03
     -0.020  0.2912E+02  0.2887E+02  0.2992E+03  0.2988E+03
      0.055  0.3203E+02  0.3253E+02  0.3016E+03  0.3012E+03
      0.130  0.3515E+02  0.3419E+02  0.3043E+03  0.3038E+03
      0.205  0.3133E+02  0.3395E+02  0.3067E+03  0.3064E+03
      0.280  0.3897E+02  0.3532E+02  0.3097E+03  0.3091E+03
      0.355  0.4701E+02  0.4937E+02  0.3133E+03  0.3128E+03
      0.429  0.2985E+02  0.3116E+02  0.3156E+03  0.3151E+03
      0.504  0.3297E+02  0.3490E+02  0.3181E+03  0.3178E+03
      0.579  0.2761E+02  0.2778E+02  0.3202E+03  0.3198E+03
      0.654  0.3782E+02  0.3859E+02  0.3231E+03  0.3227E+03
      0.729  0.3187E+02  0.3078E+02  0.3255E+03  0.3251E+03
      0.803  0.4177E+02  0.4217E+02  0.3287E+03  0.3282E+03
      0.878  0.4222E+02  0.4154E+02  0.3318E+03  0.3314E+03
      0.953  0.5194E+02  0.4982E+02  0.3357E+03  0.3351E+03
      1.028  0.3502E+02  0.3968E+02  0.3384E+03  0.3381E+03
      1.103  0.4660E+02  0.4157E+02  0.3419E+03  0.3413E+03
      1.178  0.4721E+02  0.4785E+02  0.3455E+03  0.3449E+03
      1.252  0.3121E+02  0.3259E+02  0.3478E+03  0.3475E+03
      1.327  0.3552E+02  0.3490E+02  0.3505E+03  0.3501E+03
      1.402  0.3876E+02  0.3552E+02  0.3534E+03  0.3528E+03
      1.477  0.4822E+02  0.5199E+02  0.3571E+03  0.3567E+03
      1.552  0.4285E+02  0.3950E+02  0.3603E+03  0.3597E+03
      1.626  0.4371E+02  0.4407E+02  0.3636E+03  0.3631E+03
      1.701  0.4431E+02  0.4401E+02  0.3670E+03  0.3664E+03
      1.776  0.3456E+02  0.3503E+02  0.3696E+03  0.3691E+03
      1.851  0.5116E+02  0.4986E+02  0.3734E+03  0.3728E+03
      1.926  0.4592E+02  0.4423E+02  0.3769E+03  0.3762E+03
      2.000  0.4229E+02  0.4363E+02  0.3801E+03  0.3795E+03
      2.075  0.4052E+02  0.4318E+02  0.3832E+03  0.3828E+03
      2.150  0.4775E+02  0.4684E+02  0.3868E+03  0.3863E+03
      2.225  0.4898E+02  0.4108E+02  0.3905E+03  0.3894E+03
      2.300  0.4975E+02  0.5184E+02  0.3943E+03  0.3934E+03
      2.375  0.5121E+02  0.5585E+02  0.3982E+03  0.3976E+03
      2.449  0.4459E+02  0.4386E+02  0.4016E+03  0.4010E+03
      2.524  0.5269E+02  0.5334E+02  0.4056E+03  0.4050E+03
      2.599  0.4522E+02  0.4634E+02  0.4090E+03  0.4085E+03
      2.674  0.5601E+02  0.5050E+02  0.4133E+03  0.4124E+03
      2.749  0.5476E+02  0.5308E+02  0.4174E+03  0.4165E+03
      2.823  0.4687E+02  0.4541E+02  0.4209E+03  0.4199E+03
      2.898  0.4880E+02  0.4823E+02  0.4247E+03  0.4236E+03
      2.973  0.5006E+02  0.5036E+02  0.4285E+03  0.4274E+03
      3.048  0.5506E+02  0.5984E+02  0.4327E+03  0.4320E+03
      3.123  0.5237E+02  0.5175E+02  0.4366E+03  0.4359E+03
      3.198  0.4222E+02  0.3954E+02  0.4398E+03  0.4389E+03
      3.272  0.4834E+02  0.5211E+02  0.4435E+03  0.4428E+03
      3.347  0.4388E+02  0.4550E+02  0.4468E+03  0.4463E+03
      3.422  0.4107E+02  0.3828E+02  0.4499E+03  0.4492E+03
      3.497  0.5078E+02  0.4840E+02  0.4537E+03  0.4529E+03
      3.572  0.3732E+02  0.4277E+02  0.4566E+03  0.4561E+03
      3.646  0.5266E+02  0.4948E+02  0.4605E+03  0.4599E+03
      3.721  0.5543E+02  0.5548E+02  0.4647E+03  0.4641E+03
      3.796  0.4581E+02  0.4254E+02  0.4682E+03  0.4674E+03
      3.871  0.5129E+02  0.5029E+02  0.4720E+03  0.4712E+03
      3.946  0.5310E+02  0.4921E+02  0.4760E+03  0.4749E+03
      4.021  0.4706E+02  0.5015E+02  0.4796E+03  0.4787E+03
      4.095  0.4837E+02  0.4795E+02  0.4833E+03  0.4824E+03
      4.170  0.5437E+02  0.5185E+02  0.4874E+03  0.4863E+03
      4.245  0.4928E+02  0.4860E+02  0.4911E+03  0.4900E+03
      4.320  0.5222E+02  0.5079E+02  0.4951E+03  0.4939E+03
      4.395  0.4524E+02  0.5148E+02  0.4985E+03  0.4978E+03
      4.469  0.3981E+02  0.3784E+02  0.5015E+03  0.5007E+03
      4.544  0.4084E+02  0.4346E+02  0.5046E+03  0.5039E+03
      4.619  0.3960E+02  0.3762E+02  0.5076E+03  0.5068E+03
      4.694  0.4586E+02  0.4414E+02  0.5111E+03  0.5102E+03
      4.769  0.4471E+02  0.4654E+02  0.5145E+03  0.5137E+03
      4.843  0.3762E+02  0.4148E+02  0.5173E+03  0.5168E+03
      4.918  0.3528E+02  0.3736E+02  0.5200E+03  0.5196E+03
      4.993  0.4105E+02  0.3843E+02  0.5231E+03  0.5225E+03
      5.068  0.3910E+02  0.3729E+02  0.5260E+03  0.5254E+03
      5.143  0.4511E+02  0.4509E+02  0.5295E+03  0.5288E+03
      5.218  0.4809E+02  0.4825E+02  0.5331E+03  0.5324E+03
      5.292  0.3975E+02  0.4238E+02  0.5361E+03  0.5356E+03
      5.367  0.4004E+02  0.3880E+02  0.5392E+03  0.5386E+03
      5.442  0.4755E+02  0.4795E+02  0.5427E+03  0.5422E+03
      5.517  0.4701E+02  0.4157E+02  0.5463E+03  0.5454E+03
      5.592  0.4006E+02  0.4234E+02  0.5494E+03  0.5485E+03
      5.666  0.2696E+02  0.2691E+02  0.5514E+03  0.5506E+03
      5.741  0.2926E+02  0.3355E+02  0.5537E+03  0.5531E+03
      5.816  0.3172E+02  0.2978E+02  0.5561E+03  0.5554E+03
      5.891  0.3647E+02  0.4022E+02  0.5588E+03  0.5584E+03
      5.966  0.3883E+02  0.3660E+02  0.5618E+03  0.5612E+03
      6.041  0.4496E+02  0.4611E+02  0.5652E+03  0.5647E+03
      6.115  0.4119E+02  0.3758E+02  0.5683E+03  0.5675E+03
      6.190  0.4131E+02  0.4013E+02  0.5714E+03  0.5705E+03
      6.265  0.4099E+02  0.4289E+02  0.5745E+03  0.5738E+03
      6.340  0.1785E+02  0.2641E+02  0.5759E+03  0.5758E+03
      6.415  0.1474E+01  0.2945E+01  0.5760E+03  0.5760E+03
      6.489  0.0000E+00  0.0000E+00  0.5760E+03  0.5760E+03
      6.564  0.0000E+00  0.0000E+00  0.5760E+03  0.5760E+03
      6.639  0.0000E+00  0.0000E+00  0.5760E+03  0.5760E+03
      6.714  0.0000E+00  0.0000E+00  0.5760E+03  0.5760E+03
      6.789  0.0000E+00  0.0000E+00  0.5760E+03  0.5760E+03
      6.864  0.0000E+00  0.0000E+00  0.5760E+03  0.5760E+03
      6.938  0.0000E+00  0.0000E+00  0.5760E+03  0.5760E+03
      7.013  0.0000E+00  0.0000E+00  0.5760E+03  0.5760E+03
      7.088  0.0000E+00  0.0000E+00  0.5760E+03  0.5760E+03
      7.163  0.0000E+00  0.0000E+00  0.5760E+03  0.5760E+03
      7.238  0.0000E+00  0.0000E+00  0.5760E+03  0.5760E+03
      7.312  0.0000E+00  0.0000E+00  0.5760E+03  0.5760E+03
      7.387  0.0000E+00  0.0000E+00  0.5760E+03  0.5760E+03
