Si and Ge interface calculation         
           1
    16.293001    0.000000    0.000000
   -10.862000   12.144086    0.000000
     0.000000    0.000000    8.192404
   Si   C 
    36    84
Direct configuration=     1
   0.97435850  0.98290563  0.00000000
   0.67435843  0.78290558  0.14823598
   0.37435842  0.58290553  0.29647195
   0.30769178  0.98290563  0.00000000
   0.00769173  0.78290558  0.14823598
   0.70769167  0.58290553  0.29647195
   0.64102507  0.98290563  0.00000000
   0.34102503  0.78290558  0.14823598
   0.04102499  0.58290553  0.29647195
   0.15769197  0.63290560  0.07411784
   0.85769194  0.43290553  0.22235382
   0.55769193  0.23290551  0.37058976
   0.49102521  0.63290560  0.07411784
   0.19102515  0.43290553  0.22235382
   0.89102519  0.23290551  0.37058976
   0.82435846  0.63290560  0.07411784
   0.52435839  0.43290553  0.22235382
   0.22435850  0.23290551  0.37058976
   0.14102516  0.48290560  0.00000000
   0.84102511  0.28290549  0.14823598
   0.54102510  0.08290543  0.29647195
   0.47435844  0.48290560  0.00000000
   0.17435838  0.28290549  0.14823598
   0.87435836  0.08290543  0.29647195
   0.80769169  0.48290560  0.00000000
   0.50769168  0.28290549  0.14823598
   0.20769163  0.08290543  0.29647195
   0.99102521  0.13290566  0.07411785
   0.69102514  0.93290561  0.22235382
   0.39102519  0.73290557  0.37058976
   0.32435846  0.13290566  0.07411785
   0.02435841  0.93290561  0.22235382
   0.72435844  0.73290557  0.37058976
   0.65769166  0.13290566  0.07411785
   0.35769162  0.93290561  0.22235382
   0.05769165  0.73290557  0.37058976
   0.73282254  0.32201457  0.75831014
   0.96139395  0.37915707  0.56360275
   0.84710825  0.85058588  0.66095650
   0.58996534  0.03630018  0.75831014
   0.81853682  0.09344280  0.56360275
   0.70425105  0.56487155  0.66095650
   0.44710818  0.75058597  0.75831014
   0.67567962  0.80772859  0.56360275
   0.56139386  0.27915740  0.66095650
   0.30425110  0.46487165  0.75831014
   0.53282255  0.52201426  0.56360275
   0.41853681  0.99344307  0.66095650
   0.16139398  0.17915749  0.75831014
   0.38996541  0.23629999  0.56360275
   0.27567968  0.70772880  0.66095650
   0.01853681  0.89344317  0.75831014
   0.24710825  0.95058572  0.56360275
   0.13282251  0.42201447  0.66095650
   0.87567973  0.60772884  0.75831014
   0.10425115  0.66487145  0.56360275
   0.98996544  0.13630021  0.66095650
   0.78282261  0.77201456  0.80698693
   0.01139402  0.82915705  0.61227953
   0.89710838  0.30058598  0.70963323
   0.63996541  0.48630023  0.80698693
   0.86853677  0.54344296  0.61227953
   0.75425106  0.01487160  0.70963323
   0.49710834  0.20058560  0.80698693
   0.72567970  0.25772834  0.61227959
   0.61139405  0.72915703  0.70963323
   0.35425118  0.91487151  0.80698693
   0.58282256  0.97201413  0.61227959
   0.46853682  0.44344282  0.70963323
   0.21139397  0.62915725  0.80698693
   0.43996543  0.68629998  0.61227953
   0.32567966  0.15772867  0.70963323
   0.06853700  0.34344316  0.80698693
   0.29710838  0.40058589  0.61227953
   0.18282266  0.87201446  0.70963323
   0.92567968  0.05772853  0.80698693
   0.15425116  0.11487126  0.61227953
   0.03996539  0.58629990  0.70963323
   0.80425101  0.96487171  0.75831014
   0.03282261  0.02201438  0.56360275
   0.91853672  0.49344301  0.66095650
   0.66139382  0.67915744  0.75831014
   0.88996530  0.73630005  0.56360281
   0.77567953  0.20772874  0.66095650
   0.51853675  0.39344311  0.75831014
   0.74710822  0.45058560  0.56360275
   0.63282251  0.92201453  0.66095650
   0.37567961  0.10772872  0.75831014
   0.60425115  0.16487145  0.56360275
   0.48996535  0.63630015  0.66095650
   0.23282255  0.82201463  0.75831014
   0.46139398  0.87915719  0.56360275
   0.34710821  0.35058594  0.66095650
   0.08996534  0.53630018  0.75831014
   0.31853682  0.59344280  0.56360281
   0.20425114  0.06487155  0.66095650
   0.94710827  0.25058579  0.75831014
   0.17567968  0.30772853  0.56360281
   0.06139409  0.77915746  0.66095650
   0.85425115  0.41487145  0.80698693
   0.08282268  0.47201419  0.61227953
   0.96853685  0.94344276  0.70963323
   0.71139401  0.12915754  0.80698693
   0.93996531  0.18629992  0.61227953
   0.82567966  0.65772873  0.70963323
   0.56853688  0.84344274  0.80698693
   0.79710823  0.90058541  0.61227953
   0.68282253  0.37201405  0.70963323
   0.42567971  0.55772853  0.80698693
   0.65425116  0.61487120  0.61227953
   0.53996551  0.08629990  0.70963323
   0.28282258  0.27201438  0.80698693
   0.51139402  0.32915711  0.61227953
   0.39710832  0.80058569  0.70963323
   0.13996543  0.98630029  0.80698693
   0.36853686  0.04344296  0.61227953
   0.25425115  0.51487160  0.70963323
   0.99710840  0.70058578  0.80698693
   0.22567981  0.75772828  0.61227953
   0.11139417  0.22915721  0.70963317
