 168 168   0   0
  0.2743752E+02  0.1589523E-08  0.1946760E-08  0.2580094E-08  0.5000000E-15
  1.000000000000000E-004
  CAR 
 Si and Ge interface calculation         
      6.43234917     -9.84721215  301      3.46554144      1.00000000
     -9.847  0.0000E+00  0.0000E+00  0.0000E+00  0.0000E+00
     -9.793  0.0000E+00  0.0000E+00  0.0000E+00  0.0000E+00
     -9.739  0.0000E+00  0.0000E+00  0.0000E+00  0.0000E+00
     -9.684  0.0000E+00  0.0000E+00  0.0000E+00  0.0000E+00
     -9.630  0.0000E+00  0.0000E+00  0.0000E+00  0.0000E+00
     -9.576  0.0000E+00  0.0000E+00  0.0000E+00  0.0000E+00
     -9.522  0.0000E+00  0.0000E+00  0.0000E+00  0.0000E+00
     -9.467  0.0000E+00  0.0000E+00  0.0000E+00  0.0000E+00
     -9.413  0.0000E+00  0.0000E+00  0.0000E+00  0.0000E+00
     -9.359  0.0000E+00  0.0000E+00  0.0000E+00  0.0000E+00
     -9.305  0.0000E+00  0.0000E+00  0.0000E+00  0.0000E+00
     -9.250  0.0000E+00  0.0000E+00  0.0000E+00  0.0000E+00
     -9.196  0.0000E+00  0.0000E+00  0.0000E+00  0.0000E+00
     -9.142  0.2133E-05  0.2997E-07  0.1157E-06  0.1627E-08
     -9.087  0.4084E+01  0.4004E+01  0.2216E+00  0.2173E+00
     -9.033  0.8139E+01  0.7876E+01  0.6633E+00  0.6446E+00
     -8.979  0.8248E+01  0.8548E+01  0.1111E+01  0.1109E+01
     -8.925  0.1636E+02  0.1623E+02  0.1999E+01  0.1989E+01
     -8.870  0.7829E+01  0.6867E+01  0.2424E+01  0.2362E+01
     -8.816  0.9592E+00  0.1615E+01  0.2476E+01  0.2450E+01
     -8.762  0.2210E+02  0.2026E+02  0.3675E+01  0.3549E+01
     -8.708  0.1740E+02  0.1704E+02  0.4619E+01  0.4474E+01
     -8.653  0.1838E+02  0.1882E+02  0.5616E+01  0.5495E+01
     -8.599  0.2943E+02  0.2396E+02  0.7213E+01  0.6795E+01
     -8.545  0.2505E+02  0.2763E+02  0.8573E+01  0.8295E+01
     -8.491  0.1892E+02  0.2121E+02  0.9600E+01  0.9445E+01
     -8.436  0.3319E+02  0.3294E+02  0.1140E+02  0.1123E+02
     -8.382  0.1970E+02  0.2230E+02  0.1247E+02  0.1244E+02
     -8.328  0.3630E+02  0.3286E+02  0.1444E+02  0.1423E+02
     -8.274  0.2721E+02  0.2842E+02  0.1592E+02  0.1577E+02
     -8.219  0.3007E+02  0.3127E+02  0.1755E+02  0.1747E+02
     -8.165  0.2320E+02  0.2201E+02  0.1881E+02  0.1866E+02
     -8.111  0.2258E+02  0.2241E+02  0.2003E+02  0.1988E+02
     -8.056  0.4130E+02  0.4220E+02  0.2227E+02  0.2217E+02
     -8.002  0.2599E+02  0.2644E+02  0.2368E+02  0.2360E+02
     -7.948  0.1049E+02  0.1159E+02  0.2425E+02  0.2423E+02
     -7.894  0.1450E+02  0.1255E+02  0.2504E+02  0.2491E+02
     -7.839  0.2379E+02  0.2400E+02  0.2633E+02  0.2621E+02
     -7.785  0.1975E+02  0.1996E+02  0.2740E+02  0.2730E+02
     -7.731  0.2729E+02  0.2847E+02  0.2888E+02  0.2884E+02
     -7.677  0.1241E+02  0.1317E+02  0.2956E+02  0.2956E+02
     -7.622  0.3139E+02  0.2602E+02  0.3126E+02  0.3097E+02
     -7.568  0.4757E+02  0.4768E+02  0.3384E+02  0.3356E+02
     -7.514  0.3636E+02  0.3911E+02  0.3582E+02  0.3568E+02
     -7.460  0.3843E+02  0.3718E+02  0.3790E+02  0.3769E+02
     -7.405  0.3024E+02  0.3303E+02  0.3954E+02  0.3949E+02
     -7.351  0.2066E+02  0.1865E+02  0.4066E+02  0.4050E+02
     -7.297  0.2070E+02  0.2356E+02  0.4179E+02  0.4178E+02
     -7.242  0.2979E+02  0.2072E+02  0.4340E+02  0.4290E+02
     -7.188  0.4325E+02  0.4686E+02  0.4575E+02  0.4545E+02
     -7.134  0.4840E+02  0.5011E+02  0.4838E+02  0.4817E+02
     -7.080  0.4077E+02  0.3898E+02  0.5059E+02  0.5028E+02
     -7.025  0.5740E+02  0.5599E+02  0.5370E+02  0.5332E+02
     -6.971  0.4071E+02  0.4198E+02  0.5591E+02  0.5560E+02
     -6.917  0.2944E+02  0.3356E+02  0.5751E+02  0.5742E+02
     -6.863  0.4280E+02  0.4232E+02  0.5983E+02  0.5971E+02
     -6.808  0.3206E+02  0.3352E+02  0.6157E+02  0.6153E+02
     -6.754  0.4031E+02  0.3523E+02  0.6376E+02  0.6344E+02
     -6.700  0.5667E+02  0.6055E+02  0.6683E+02  0.6673E+02
     -6.646  0.2819E+02  0.2378E+02  0.6836E+02  0.6802E+02
     -6.591  0.6698E+02  0.6954E+02  0.7200E+02  0.7179E+02
     -6.537  0.4795E+02  0.4824E+02  0.7460E+02  0.7441E+02
     -6.483  0.3217E+02  0.3273E+02  0.7635E+02  0.7619E+02
     -6.429  0.3693E+02  0.3350E+02  0.7835E+02  0.7801E+02
     -6.374  0.3772E+02  0.4026E+02  0.8040E+02  0.8019E+02
     -6.320  0.6456E+02  0.6514E+02  0.8390E+02  0.8373E+02
     -6.266  0.2686E+02  0.2944E+02  0.8536E+02  0.8532E+02
     -6.211  0.4804E+02  0.4436E+02  0.8797E+02  0.8773E+02
     -6.157  0.6191E+02  0.6381E+02  0.9133E+02  0.9119E+02
     -6.103  0.6004E+02  0.5785E+02  0.9458E+02  0.9433E+02
     -6.049  0.4025E+02  0.4312E+02  0.9677E+02  0.9667E+02
     -5.994  0.3451E+02  0.3382E+02  0.9864E+02  0.9851E+02
     -5.940  0.5916E+02  0.5631E+02  0.1019E+03  0.1016E+03
     -5.886  0.4201E+02  0.4443E+02  0.1041E+03  0.1040E+03
     -5.832  0.4631E+02  0.4828E+02  0.1066E+03  0.1066E+03
     -5.777  0.3804E+02  0.3700E+02  0.1087E+03  0.1086E+03
     -5.723  0.1167E+02  0.1185E+02  0.1093E+03  0.1092E+03
     -5.669  0.2943E+02  0.2324E+02  0.1109E+03  0.1105E+03
     -5.615  0.2780E+02  0.3571E+02  0.1124E+03  0.1124E+03
     -5.560  0.2508E+02  0.1847E+02  0.1138E+03  0.1134E+03
     -5.506  0.5796E+02  0.6009E+02  0.1170E+03  0.1167E+03
     -5.452  0.6514E+02  0.6703E+02  0.1205E+03  0.1203E+03
     -5.397  0.3953E+02  0.4053E+02  0.1226E+03  0.1225E+03
     -5.343  0.7221E+02  0.6954E+02  0.1266E+03  0.1263E+03
     -5.289  0.5555E+02  0.5871E+02  0.1296E+03  0.1295E+03
     -5.235  0.3494E+02  0.3169E+02  0.1315E+03  0.1312E+03
     -5.180  0.6717E+02  0.6428E+02  0.1351E+03  0.1347E+03
     -5.126  0.4943E+02  0.4961E+02  0.1378E+03  0.1374E+03
     -5.072  0.7445E+02  0.7590E+02  0.1418E+03  0.1415E+03
     -5.018  0.5024E+02  0.5061E+02  0.1446E+03  0.1443E+03
     -4.963  0.3787E+02  0.3974E+02  0.1466E+03  0.1464E+03
     -4.909  0.3067E+02  0.3262E+02  0.1483E+03  0.1482E+03
     -4.855  0.6005E+02  0.5615E+02  0.1515E+03  0.1512E+03
     -4.801  0.6168E+02  0.6221E+02  0.1549E+03  0.1546E+03
     -4.746  0.5185E+02  0.5298E+02  0.1577E+03  0.1575E+03
     -4.692  0.7114E+02  0.7050E+02  0.1616E+03  0.1613E+03
     -4.638  0.2610E+02  0.2743E+02  0.1630E+03  0.1628E+03
     -4.583  0.5337E+02  0.4908E+02  0.1659E+03  0.1655E+03
     -4.529  0.5086E+02  0.5223E+02  0.1686E+03  0.1683E+03
     -4.475  0.5526E+02  0.5601E+02  0.1716E+03  0.1713E+03
     -4.421  0.4668E+02  0.4818E+02  0.1742E+03  0.1740E+03
     -4.366  0.5881E+02  0.5493E+02  0.1774E+03  0.1769E+03
     -4.312  0.6122E+02  0.6354E+02  0.1807E+03  0.1804E+03
     -4.258  0.4404E+02  0.4336E+02  0.1831E+03  0.1827E+03
     -4.204  0.2548E+02  0.3134E+02  0.1844E+03  0.1844E+03
     -4.149  0.3564E+02  0.3327E+02  0.1864E+03  0.1862E+03
     -4.095  0.5161E+02  0.4829E+02  0.1892E+03  0.1889E+03
     -4.041  0.6137E+02  0.6154E+02  0.1925E+03  0.1922E+03
     -3.987  0.6176E+02  0.6053E+02  0.1959E+03  0.1955E+03
     -3.932  0.5243E+02  0.5632E+02  0.1987E+03  0.1985E+03
     -3.878  0.4790E+02  0.4436E+02  0.2013E+03  0.2010E+03
     -3.824  0.6667E+02  0.6608E+02  0.2049E+03  0.2045E+03
     -3.770  0.6302E+02  0.6720E+02  0.2083E+03  0.2082E+03
     -3.715  0.2662E+02  0.2285E+02  0.2098E+03  0.2094E+03
     -3.661  0.4405E+02  0.4220E+02  0.2122E+03  0.2117E+03
     -3.607  0.5388E+02  0.5844E+02  0.2151E+03  0.2149E+03
     -3.552  0.6228E+02  0.6113E+02  0.2185E+03  0.2182E+03
     -3.498  0.5113E+02  0.4951E+02  0.2213E+03  0.2209E+03
     -3.444  0.2919E+02  0.3106E+02  0.2228E+03  0.2226E+03
     -3.390  0.5053E+02  0.5266E+02  0.2256E+03  0.2254E+03
     -3.335  0.6354E+02  0.6403E+02  0.2290E+03  0.2289E+03
     -3.281  0.3963E+02  0.3610E+02  0.2312E+03  0.2309E+03
     -3.227  0.4402E+02  0.4207E+02  0.2336E+03  0.2332E+03
     -3.173  0.6904E+02  0.7175E+02  0.2373E+03  0.2370E+03
     -3.118  0.3775E+02  0.4009E+02  0.2394E+03  0.2392E+03
     -3.064  0.3701E+02  0.3847E+02  0.2414E+03  0.2413E+03
     -3.010  0.3070E+02  0.2835E+02  0.2430E+03  0.2428E+03
     -2.956  0.4741E+02  0.4384E+02  0.2456E+03  0.2452E+03
     -2.901  0.3986E+02  0.4549E+02  0.2478E+03  0.2477E+03
     -2.847  0.3184E+02  0.2895E+02  0.2495E+03  0.2493E+03
     -2.793  0.4917E+02  0.4246E+02  0.2522E+03  0.2516E+03
     -2.738  0.3452E+02  0.4193E+02  0.2540E+03  0.2538E+03
     -2.684  0.6624E+02  0.6524E+02  0.2576E+03  0.2574E+03
     -2.630  0.7842E+02  0.7670E+02  0.2619E+03  0.2615E+03
     -2.576  0.5055E+02  0.5161E+02  0.2646E+03  0.2643E+03
     -2.521  0.6085E+02  0.5921E+02  0.2679E+03  0.2676E+03
     -2.467  0.4201E+02  0.4644E+02  0.2702E+03  0.2701E+03
     -2.413  0.5909E+02  0.5506E+02  0.2734E+03  0.2731E+03
     -2.359  0.2867E+02  0.3272E+02  0.2750E+03  0.2748E+03
     -2.304  0.6708E+02  0.6305E+02  0.2786E+03  0.2783E+03
     -2.250  0.5122E+02  0.5538E+02  0.2814E+03  0.2813E+03
     -2.196  0.3680E+02  0.3526E+02  0.2834E+03  0.2832E+03
     -2.142  0.3371E+02  0.3395E+02  0.2852E+03  0.2850E+03
     -2.087  0.1906E+02  0.2007E+02  0.2863E+03  0.2861E+03
     -2.033  0.2086E+02  0.1875E+02  0.2874E+03  0.2871E+03
     -1.979  0.2833E+02  0.2909E+02  0.2889E+03  0.2887E+03
     -1.924  0.3716E+02  0.4035E+02  0.2909E+03  0.2909E+03
     -1.870  0.6451E+02  0.6047E+02  0.2944E+03  0.2942E+03
     -1.816  0.3262E+02  0.3733E+02  0.2962E+03  0.2962E+03
     -1.762  0.6834E+01  0.3973E+01  0.2966E+03  0.2964E+03
     -1.707  0.2604E+02  0.2889E+02  0.2980E+03  0.2980E+03
     -1.653  0.5552E+02  0.5052E+02  0.3010E+03  0.3007E+03
     -1.599  0.4831E+02  0.5194E+02  0.3036E+03  0.3036E+03
     -1.545  0.2695E+02  0.2562E+02  0.3051E+03  0.3049E+03
     -1.490  0.2224E+02  0.2410E+02  0.3063E+03  0.3063E+03
     -1.436  0.1655E+02  0.1638E+02  0.3072E+03  0.3071E+03
     -1.382  0.4295E+02  0.4258E+02  0.3095E+03  0.3094E+03
     -1.328  0.3694E+02  0.3762E+02  0.3115E+03  0.3115E+03
     -1.273  0.6487E+01  0.5754E+01  0.3119E+03  0.3118E+03
     -1.219  0.2767E+02  0.2844E+02  0.3134E+03  0.3133E+03
     -1.165  0.2818E+02  0.2676E+02  0.3149E+03  0.3148E+03
     -1.111  0.1155E+02  0.1338E+02  0.3156E+03  0.3155E+03
     -1.056  0.1569E+02  0.1534E+02  0.3164E+03  0.3164E+03
     -1.002  0.1026E+02  0.6363E+01  0.3170E+03  0.3167E+03
     -0.948  0.3798E+02  0.4066E+02  0.3190E+03  0.3189E+03
     -0.893  0.1791E+02  0.1936E+02  0.3200E+03  0.3200E+03
     -0.839  0.1606E+02  0.1507E+02  0.3209E+03  0.3208E+03
     -0.785  0.4842E+00  0.2056E+01  0.3209E+03  0.3209E+03
     -0.731  0.4338E+02  0.3781E+02  0.3232E+03  0.3229E+03
     -0.676  0.2624E+02  0.3167E+02  0.3247E+03  0.3247E+03
     -0.622  0.3364E+02  0.3066E+02  0.3265E+03  0.3263E+03
     -0.568  0.5791E+02  0.5501E+02  0.3296E+03  0.3293E+03
     -0.514  0.7688E+02  0.7727E+02  0.3338E+03  0.3335E+03
     -0.459  0.5821E+02  0.5931E+02  0.3370E+03  0.3367E+03
     -0.405  0.4972E+02  0.4813E+02  0.3397E+03  0.3393E+03
     -0.351  0.7478E+02  0.7550E+02  0.3437E+03  0.3434E+03
     -0.297  0.6737E+02  0.6713E+02  0.3474E+03  0.3471E+03
     -0.242  0.7181E+02  0.7211E+02  0.3513E+03  0.3510E+03
     -0.188  0.9826E+02  0.9282E+02  0.3566E+03  0.3560E+03
     -0.134  0.6353E+02  0.6285E+02  0.3601E+03  0.3594E+03
     -0.079  0.5544E+02  0.6437E+02  0.3631E+03  0.3629E+03
     -0.025  0.7847E+02  0.7346E+02  0.3673E+03  0.3669E+03
      0.029  0.7521E+02  0.7702E+02  0.3714E+03  0.3711E+03
      0.083  0.6765E+02  0.6963E+02  0.3751E+03  0.3749E+03
      0.138  0.6037E+02  0.5321E+02  0.3783E+03  0.3778E+03
      0.192  0.9570E+02  0.9686E+02  0.3835E+03  0.3830E+03
      0.246  0.7611E+02  0.7690E+02  0.3877E+03  0.3872E+03
      0.300  0.7234E+02  0.7419E+02  0.3916E+03  0.3912E+03
      0.355  0.9756E+02  0.9372E+02  0.3969E+03  0.3963E+03
      0.409  0.1175E+03  0.1199E+03  0.4033E+03  0.4028E+03
      0.463  0.1219E+03  0.1205E+03  0.4099E+03  0.4093E+03
      0.517  0.9160E+02  0.9199E+02  0.4149E+03  0.4143E+03
      0.572  0.1233E+03  0.1172E+03  0.4215E+03  0.4207E+03
      0.626  0.1180E+03  0.1213E+03  0.4279E+03  0.4273E+03
      0.680  0.1123E+03  0.1126E+03  0.4340E+03  0.4334E+03
      0.735  0.1429E+03  0.1428E+03  0.4418E+03  0.4411E+03
      0.789  0.1122E+03  0.1143E+03  0.4479E+03  0.4473E+03
      0.843  0.1154E+03  0.1124E+03  0.4541E+03  0.4534E+03
      0.897  0.1223E+03  0.1220E+03  0.4608E+03  0.4601E+03
      0.952  0.7868E+02  0.8158E+02  0.4651E+03  0.4645E+03
      1.006  0.8441E+02  0.8634E+02  0.4696E+03  0.4692E+03
      1.060  0.1025E+03  0.1070E+03  0.4752E+03  0.4750E+03
      1.114  0.8057E+02  0.7533E+02  0.4796E+03  0.4791E+03
      1.169  0.1282E+03  0.1275E+03  0.4865E+03  0.4860E+03
      1.223  0.1124E+03  0.1146E+03  0.4926E+03  0.4922E+03
      1.277  0.1143E+03  0.1103E+03  0.4988E+03  0.4982E+03
      1.331  0.1291E+03  0.1262E+03  0.5058E+03  0.5050E+03
      1.386  0.1278E+03  0.1332E+03  0.5128E+03  0.5123E+03
      1.440  0.1037E+03  0.1026E+03  0.5184E+03  0.5178E+03
      1.494  0.1107E+03  0.1068E+03  0.5244E+03  0.5236E+03
      1.548  0.1198E+03  0.1201E+03  0.5309E+03  0.5301E+03
      1.603  0.1049E+03  0.1073E+03  0.5366E+03  0.5360E+03
      1.657  0.1083E+03  0.1066E+03  0.5425E+03  0.5418E+03
      1.711  0.1116E+03  0.1159E+03  0.5485E+03  0.5481E+03
      1.766  0.9483E+02  0.9397E+02  0.5537E+03  0.5532E+03
      1.820  0.1290E+03  0.1290E+03  0.5607E+03  0.5601E+03
      1.874  0.1145E+03  0.1130E+03  0.5669E+03  0.5663E+03
      1.928  0.9773E+02  0.1023E+03  0.5722E+03  0.5718E+03
      1.983  0.7925E+02  0.7505E+02  0.5765E+03  0.5759E+03
      2.037  0.9200E+02  0.9632E+02  0.5815E+03  0.5811E+03
      2.091  0.9298E+02  0.9383E+02  0.5865E+03  0.5862E+03
      2.145  0.8429E+02  0.7857E+02  0.5911E+03  0.5905E+03
      2.200  0.8714E+02  0.9151E+02  0.5958E+03  0.5954E+03
      2.254  0.9184E+02  0.8850E+02  0.6008E+03  0.6003E+03
      2.308  0.5303E+02  0.5649E+02  0.6037E+03  0.6033E+03
      2.362  0.7720E+02  0.7966E+02  0.6079E+03  0.6076E+03
      2.417  0.9263E+02  0.8985E+02  0.6129E+03  0.6125E+03
      2.471  0.6318E+02  0.6336E+02  0.6163E+03  0.6160E+03
      2.525  0.8372E+02  0.8133E+02  0.6209E+03  0.6204E+03
      2.580  0.8822E+02  0.8608E+02  0.6257E+03  0.6250E+03
      2.634  0.6829E+02  0.7320E+02  0.6294E+03  0.6290E+03
      2.688  0.5882E+02  0.5878E+02  0.6326E+03  0.6322E+03
      2.742  0.7014E+02  0.7049E+02  0.6364E+03  0.6360E+03
      2.797  0.8702E+02  0.8606E+02  0.6411E+03  0.6407E+03
      2.851  0.5341E+02  0.5149E+02  0.6440E+03  0.6435E+03
      2.905  0.6250E+02  0.6597E+02  0.6474E+03  0.6471E+03
      2.959  0.4741E+02  0.4979E+02  0.6500E+03  0.6498E+03
      3.014  0.5472E+02  0.5283E+02  0.6529E+03  0.6526E+03
      3.068  0.2580E+02  0.2224E+02  0.6543E+03  0.6538E+03
      3.122  0.5318E+02  0.5642E+02  0.6572E+03  0.6569E+03
      3.176  0.3427E+02  0.3120E+02  0.6591E+03  0.6586E+03
      3.231  0.3366E+02  0.3622E+02  0.6609E+03  0.6606E+03
      3.285  0.5816E+02  0.6007E+02  0.6641E+03  0.6638E+03
      3.339  0.4953E+02  0.4470E+02  0.6667E+03  0.6662E+03
      3.393  0.4598E+02  0.4886E+02  0.6692E+03  0.6689E+03
      3.448  0.2571E+02  0.2137E+02  0.6706E+03  0.6701E+03
      3.502  0.2461E+02  0.3286E+02  0.6720E+03  0.6718E+03
      3.556  0.2609E+02  0.2195E+02  0.6734E+03  0.6730E+03
      3.611  0.2758E+02  0.2672E+02  0.6749E+03  0.6745E+03
      3.665  0.4814E+02  0.4616E+02  0.6775E+03  0.6770E+03
      3.719  0.2933E+02  0.3470E+02  0.6791E+03  0.6789E+03
      3.773  0.5272E+02  0.4281E+02  0.6819E+03  0.6812E+03
      3.828  0.1804E+02  0.2757E+02  0.6829E+03  0.6827E+03
      3.882  0.1734E+02  0.1697E+02  0.6839E+03  0.6836E+03
      3.936  0.1138E+02  0.1547E+02  0.6845E+03  0.6845E+03
      3.990  0.2475E+02  0.2130E+02  0.6858E+03  0.6856E+03
      4.045  0.7929E+01  0.9167E+01  0.6863E+03  0.6861E+03
      4.099  0.1555E+02  0.1749E+02  0.6871E+03  0.6871E+03
      4.153  0.2508E+02  0.2486E+02  0.6885E+03  0.6884E+03
      4.207  0.4898E+02  0.4318E+02  0.6911E+03  0.6907E+03
      4.262  0.3642E+02  0.4059E+02  0.6931E+03  0.6929E+03
      4.316  0.3609E+02  0.3430E+02  0.6951E+03  0.6948E+03
      4.370  0.2486E+02  0.2511E+02  0.6964E+03  0.6962E+03
      4.425  0.4680E+02  0.4836E+02  0.6989E+03  0.6988E+03
      4.479  0.5882E+02  0.5537E+02  0.7021E+03  0.7018E+03
      4.533  0.4038E+02  0.4308E+02  0.7043E+03  0.7041E+03
      4.587  0.7050E+02  0.6644E+02  0.7082E+03  0.7077E+03
      4.642  0.6327E+02  0.6489E+02  0.7116E+03  0.7113E+03
      4.696  0.5796E+02  0.5813E+02  0.7147E+03  0.7144E+03
      4.750  0.8295E+02  0.8529E+02  0.7192E+03  0.7190E+03
      4.804  0.6916E+02  0.6901E+02  0.7230E+03  0.7228E+03
      4.859  0.8532E+02  0.8013E+02  0.7276E+03  0.7271E+03
      4.913  0.5841E+02  0.6103E+02  0.7308E+03  0.7305E+03
      4.967  0.1048E+03  0.1073E+03  0.7365E+03  0.7363E+03
      5.021  0.8197E+02  0.7718E+02  0.7409E+03  0.7405E+03
      5.076  0.1061E+03  0.1088E+03  0.7467E+03  0.7464E+03
      5.130  0.1035E+03  0.9789E+02  0.7523E+03  0.7517E+03
      5.184  0.1053E+03  0.1084E+03  0.7580E+03  0.7576E+03
      5.239  0.1123E+03  0.1150E+03  0.7641E+03  0.7638E+03
      5.293  0.9253E+02  0.8703E+02  0.7691E+03  0.7685E+03
      5.347  0.9537E+02  0.9730E+02  0.7743E+03  0.7738E+03
      5.401  0.1068E+03  0.1035E+03  0.7801E+03  0.7794E+03
      5.456  0.1128E+03  0.1179E+03  0.7862E+03  0.7858E+03
      5.510  0.1182E+03  0.1139E+03  0.7926E+03  0.7920E+03
      5.564  0.8754E+02  0.8630E+02  0.7974E+03  0.7967E+03
      5.618  0.1025E+03  0.1019E+03  0.8030E+03  0.8022E+03
      5.673  0.7326E+02  0.8120E+02  0.8069E+03  0.8066E+03
      5.727  0.1975E+02  0.2547E+02  0.8080E+03  0.8080E+03
      5.781  0.0000E+00  0.0000E+00  0.8080E+03  0.8080E+03
      5.835  0.0000E+00  0.0000E+00  0.8080E+03  0.8080E+03
      5.890  0.0000E+00  0.0000E+00  0.8080E+03  0.8080E+03
      5.944  0.0000E+00  0.0000E+00  0.8080E+03  0.8080E+03
      5.998  0.0000E+00  0.0000E+00  0.8080E+03  0.8080E+03
      6.052  0.0000E+00  0.0000E+00  0.8080E+03  0.8080E+03
      6.107  0.0000E+00  0.0000E+00  0.8080E+03  0.8080E+03
      6.161  0.0000E+00  0.0000E+00  0.8080E+03  0.8080E+03
      6.215  0.0000E+00  0.0000E+00  0.8080E+03  0.8080E+03
      6.270  0.0000E+00  0.0000E+00  0.8080E+03  0.8080E+03
      6.324  0.0000E+00  0.0000E+00  0.8080E+03  0.8080E+03
      6.378  0.0000E+00  0.0000E+00  0.8080E+03  0.8080E+03
      6.432  0.0000E+00  0.0000E+00  0.8080E+03  0.8080E+03
