Si and Ge interface calculation         
           1
    16.002676    0.000000    0.000000
     0.000000   16.973400    0.000000
     0.000000    0.000000   18.072525
   Ge   Si
   144    72
Direct configuration=     1
   0.98968923  0.98625231  0.00000002
   0.86468923  0.81958562  0.11068373
   0.73968923  0.65291894  0.22136749
   0.61468923  0.48625225  0.33205119
   0.48968929  0.31958556  0.44273487
   0.36468923  0.15291887  0.55341864
   0.98968923  0.31958565  0.00000002
   0.86468923  0.15291895  0.11068373
   0.73968923  0.98625225  0.22136749
   0.61468923  0.81958556  0.33205119
   0.48968929  0.65291894  0.44273487
   0.36468923  0.48625219  0.55341864
   0.98968923  0.65291899  0.00000002
   0.86468923  0.48625231  0.11068373
   0.73968923  0.31958559  0.22136749
   0.61468923  0.15291894  0.33205119
   0.48968929  0.98625225  0.44273487
   0.36468923  0.81958556  0.55341864
   0.48968923  0.98625231  0.00000002
   0.36468923  0.81958562  0.11068375
   0.23968922  0.65291894  0.22136749
   0.11468923  0.48625225  0.33205122
   0.98968923  0.31958556  0.44273490
   0.86468923  0.15291887  0.55341858
   0.48968923  0.31958565  0.00000002
   0.36468923  0.15291895  0.11068375
   0.23968922  0.98625225  0.22136749
   0.11468923  0.81958556  0.33205122
   0.98968923  0.65291894  0.44273490
   0.86468923  0.48625219  0.55341858
   0.48968923  0.65291899  0.00000002
   0.36468923  0.48625231  0.11068375
   0.23968922  0.31958559  0.22136749
   0.11468923  0.15291894  0.33205122
   0.98968923  0.98625225  0.44273490
   0.86468923  0.81958556  0.55341858
   0.23968923  0.98625231  0.00000003
   0.11468923  0.81958562  0.11068375
   0.98968923  0.65291894  0.22136749
   0.86468923  0.48625225  0.33205122
   0.73968923  0.31958556  0.44273490
   0.61468923  0.15291887  0.55341864
   0.23968923  0.31958565  0.00000003
   0.11468923  0.15291895  0.11068375
   0.98968923  0.98625225  0.22136749
   0.86468923  0.81958556  0.33205122
   0.73968923  0.65291894  0.44273490
   0.61468923  0.48625219  0.55341864
   0.23968923  0.65291899  0.00000003
   0.11468923  0.48625231  0.11068375
   0.98968923  0.31958559  0.22136749
   0.86468923  0.15291894  0.33205122
   0.73968923  0.98625225  0.44273490
   0.61468923  0.81958556  0.55341864
   0.73968923  0.98625231  0.00000001
   0.61468923  0.81958562  0.11068375
   0.48968920  0.65291894  0.22136746
   0.36468923  0.48625225  0.33205122
   0.23968925  0.31958556  0.44273490
   0.11468923  0.15291887  0.55341858
   0.73968923  0.31958565  0.00000001
   0.61468923  0.15291895  0.11068375
   0.48968920  0.98625225  0.22136746
   0.36468923  0.81958556  0.33205122
   0.23968925  0.65291894  0.44273490
   0.11468923  0.48625219  0.55341858
   0.73968923  0.65291899  0.00000001
   0.61468923  0.48625231  0.11068375
   0.48968920  0.31958559  0.22136746
   0.36468923  0.15291894  0.33205122
   0.23968925  0.98625225  0.44273490
   0.11468923  0.81958556  0.55341858
   0.36468923  0.23625231  0.00000001
   0.23968923  0.06958562  0.11068373
   0.11468921  0.90291887  0.22136746
   0.98968923  0.73625219  0.33205122
   0.86468923  0.56958556  0.44273490
   0.73968923  0.40291887  0.55341864
   0.36468923  0.56958568  0.00000001
   0.23968923  0.40291899  0.11068373
   0.11468921  0.23625229  0.22136746
   0.98968923  0.06958561  0.33205122
   0.86468923  0.90291894  0.44273490
   0.73968923  0.73625219  0.55341864
   0.36468923  0.90291899  0.00000001
   0.23968923  0.73625231  0.11068373
   0.11468921  0.56958556  0.22136746
   0.98968923  0.40291890  0.33205122
   0.86468923  0.23625226  0.44273490
   0.73968923  0.06958555  0.55341864
   0.86468929  0.23625231  0.00000000
   0.73968929  0.06958562  0.11068373
   0.61468929  0.90291887  0.22136746
   0.48968929  0.73625219  0.33205119
   0.36468929  0.56958556  0.44273487
   0.23968929  0.40291887  0.55341858
   0.86468929  0.56958568  0.00000000
   0.73968929  0.40291899  0.11068373
   0.61468929  0.23625229  0.22136746
   0.48968929  0.06958561  0.33205119
   0.36468929  0.90291894  0.44273487
   0.23968929  0.73625219  0.55341858
   0.86468929  0.90291899  0.00000000
   0.73968929  0.73625231  0.11068373
   0.61468929  0.56958556  0.22136746
   0.48968929  0.40291890  0.33205119
   0.36468929  0.23625226  0.44273487
   0.23968929  0.06958555  0.55341858
   0.11468922  0.23625231  0.00000002
   0.98968923  0.06958562  0.11068375
   0.86468923  0.90291887  0.22136746
   0.73968923  0.73625219  0.33205122
   0.61468923  0.56958556  0.44273490
   0.48968923  0.40291887  0.55341858
   0.11468922  0.56958568  0.00000002
   0.98968923  0.40291899  0.11068375
   0.86468923  0.23625229  0.22136746
   0.73968923  0.06958561  0.33205122
   0.61468923  0.90291894  0.44273490
   0.48968923  0.73625219  0.55341858
   0.11468922  0.90291899  0.00000002
   0.98968923  0.73625231  0.11068375
   0.86468923  0.56958556  0.22136746
   0.73968923  0.40291890  0.33205122
   0.61468923  0.23625226  0.44273490
   0.48968923  0.06958555  0.55341858
   0.61468923  0.23625231  0.00000001
   0.48968923  0.06958562  0.11068375
   0.36468923  0.90291887  0.22136746
   0.23968923  0.73625219  0.33205122
   0.11468925  0.56958556  0.44273487
   0.98968923  0.40291887  0.55341858
   0.61468923  0.56958568  0.00000001
   0.48968923  0.40291899  0.11068375
   0.36468923  0.23625229  0.22136746
   0.23968923  0.06958561  0.33205122
   0.11468925  0.90291894  0.44273487
   0.98968923  0.73625219  0.55341858
   0.61468923  0.90291899  0.00000001
   0.48968923  0.73625231  0.11068375
   0.36468923  0.56958556  0.22136746
   0.23968923  0.40291890  0.33205122
   0.11468925  0.23625226  0.44273487
   0.98968923  0.06958555  0.55341858
   0.47629085  0.40608633  0.89549714
   0.30962443  0.65608561  0.65792173
   0.14295769  0.00608563  0.70543677
   0.97629106  0.35608578  0.75295186
   0.80962419  0.70608616  0.80046701
   0.64295745  0.05608630  0.84798211
   0.80962419  0.40608633  0.89549714
   0.64295775  0.65608561  0.65792173
   0.47629103  0.00608563  0.70543677
   0.30962431  0.35608578  0.75295186
   0.14295757  0.70608616  0.80046701
   0.97629082  0.05608630  0.84798211
   0.14295757  0.40608633  0.89549714
   0.97629106  0.65608561  0.65792173
   0.80962437  0.00608563  0.70543677
   0.64295769  0.35608578  0.75295186
   0.47629094  0.70608616  0.80046701
   0.30962419  0.05608630  0.84798211
   0.55962419  0.15608644  0.89549714
   0.39295772  0.40608573  0.65792167
   0.22629106  0.75608587  0.70543677
   0.05962431  0.10608613  0.75295180
   0.89295757  0.45608628  0.80046695
   0.72629094  0.80608630  0.84798205
   0.89295757  0.15608644  0.89549714
   0.72629106  0.40608573  0.65792167
   0.55962431  0.75608587  0.70543677
   0.39295763  0.10608613  0.75295180
   0.22629094  0.45608628  0.80046695
   0.05962431  0.80608630  0.84798205
   0.22629082  0.15608644  0.89549714
   0.05962431  0.40608573  0.65792167
   0.89295769  0.75608587  0.70543677
   0.72629094  0.10608613  0.75295180
   0.55962419  0.45608628  0.80046695
   0.39295754  0.80608630  0.84798205
   0.47629085  0.90608644  0.89549714
   0.30962431  0.15608573  0.65792167
   0.14295769  0.50608587  0.70543677
   0.97629094  0.85608590  0.75295180
   0.80962419  0.20608616  0.80046701
   0.64295757  0.55608630  0.84798205
   0.80962419  0.90608644  0.89549714
   0.64295769  0.15608573  0.65792167
   0.47629100  0.50608587  0.70543677
   0.30962431  0.85608590  0.75295180
   0.14295757  0.20608616  0.80046701
   0.97629094  0.55608630  0.84798205
   0.14295757  0.90608644  0.89549714
   0.97629106  0.15608573  0.65792167
   0.80962431  0.50608587  0.70543677
   0.64295769  0.85608590  0.75295180
   0.47629094  0.20608616  0.80046701
   0.30962431  0.55608630  0.84798205
   0.55962419  0.65608644  0.89549714
   0.39295772  0.90608561  0.65792173
   0.22629106  0.25608563  0.70543677
   0.05962431  0.60608590  0.75295180
   0.89295757  0.95608616  0.80046695
   0.72629082  0.30608642  0.84798205
   0.89295757  0.65608644  0.89549714
   0.72629106  0.90608561  0.65792173
   0.55962437  0.25608563  0.70543677
   0.39295769  0.60608590  0.75295180
   0.22629094  0.95608616  0.80046695
   0.05962419  0.30608642  0.84798205
   0.22629094  0.65608644  0.89549714
   0.05962443  0.90608561  0.65792173
   0.89295769  0.25608563  0.70543677
   0.72629106  0.60608590  0.75295180
   0.55962426  0.95608616  0.80046695
   0.39295748  0.30608642  0.84798205
