 vasp.6.4.3 19Mar24 (build Oct 22 2024 11:23:12) complex                        
  
 executed on             LinuxIFC date 2025.06.08  15:01:44
 running   64 mpi-ranks, on    4 nodes
 distrk:  each k-point on   64 cores,    1 groups
 distr:  one band on NCORE=  16 cores,    4 groups


--------------------------------------------------------------------------------------------------------


 INCAR:
   SYSTEM = Si and Ge interface calculation
   ISTART = 0
   ICHARG = 2
   LWAVE = .FALSE.
   LREAL = AUTO
   ENCUT = 700
   ENAUG = 900
   ADDGRID = .TRUE.
   LMAXMIX = 6
   LASPH = .TRUE.
   LMIXTAU = .TRUE.
   NCORE = 16
   NELM = 100
   NBANDS = 288
   EDIFF = 1d-7
   AMIX = 0.6
   ISMEAR = 0
   SIGMA = 0.01
   NELECT = 480
   ISPIN = 2
   NUPDOWN = 1
   LVTOT = .FALSE.
   LVHAR = .TRUE.

 POTCAR:    PAW_PBE Si 05Jan2001                  
 POTCAR:    PAW_PBE Ge 05Jan2001                  
 -----------------------------------------------------------------------------
|                                                                             |
|           W    W    AA    RRRRR   N    N  II  N    N   GGGG   !!!           |
|           W    W   A  A   R    R  NN   N  II  NN   N  G    G  !!!           |
|           W    W  A    A  R    R  N N  N  II  N N  N  G       !!!           |
|           W WW W  AAAAAA  RRRRR   N  N N  II  N  N N  G  GGG   !            |
|           WW  WW  A    A  R   R   N   NN  II  N   NN  G    G                |
|           W    W  A    A  R    R  N    N  II  N    N   GGGG   !!!           |
|                                                                             |
|     You use a magnetic or noncollinear calculation, but did not specify     |
|     the initial magnetic moment with the MAGMOM tag. Note that a            |
|     default of 8.333e-3 will be used for all atoms. This ferromagnetic      |
|     setup may break the symmetry of the crystal, in particular it may       |
|     rule out finding an antiferromagnetic solution. Thence, we              |
|     recommend setting the initial magnetic moment manually or verifying     |
|     carefully that this magnetic setup is desired.                          |
|                                                                             |
 -----------------------------------------------------------------------------

 POTCAR:    PAW_PBE Si 05Jan2001                  
   VRHFIN =Si: s2p2                                                                                 
   LEXCH  = PE                                                                                      
   EATOM  =   103.0669 eV,    7.5752 Ry                                                             
                                                                                                    
   TITEL  = PAW_PBE Si 05Jan2001                                                                    
   LULTRA =        F    use ultrasoft PP ?                                                          
   IUNSCR =        1    unscreen: 0-lin 1-nonlin 2-no                                               
   RPACOR =    1.500    partial core radius                                                         
   POMASS =   28.085; ZVAL   =    4.000    mass and valenz                                          
   RCORE  =    1.900    outmost cutoff radius                                                       
   RWIGS  =    2.480; RWIGS  =    1.312    wigner-seitz radius (au A)                               
   ENMAX  =  245.345; ENMIN  =  184.009 eV                                                          
   ICORE  =        2    local potential                                                             
   LCOR   =        T    correct aug charges                                                         
   LPAW   =        T    paw PP                                                                      
   EAUG   =  322.069                                                                                
   DEXC   =    0.000                                                                                
   RMAX   =    1.950    core radius for proj-oper                                                   
   RAUG   =    1.300    factor for augmentation sphere                                              
   RDEP   =    1.993    radius for radial grids                                                     
   RDEPT  =    1.837    core radius for aug-charge                                                  
                                                                                                    
   Atomic configuration                                                                             
    6 entries                                                                                       
     n  l   j            E        occ.                                                              
     1  0  0.50     -1785.8828   2.0000                                                             
     2  0  0.50      -139.4969   2.0000                                                             
     2  1  1.50       -95.5546   6.0000                                                             
     3  0  0.50       -10.8127   2.0000                                                             
     3  1  0.50        -4.0811   2.0000                                                             
     3  2  1.50        -4.0817   0.0000                                                             
   Description                                                                                      
     l       E           TYP  RCUT    TYP  RCUT                                                     
     0    -10.8127223     23  1.900                                                                 
     0     -7.6451159     23  1.900                                                                 
     1     -4.0811372     23  1.900                                                                 
     1      2.4879257     23  1.900                                                                 
     2     -4.0817478      7  1.900                                                                 
  local pseudopotential read in
  partial core-charges read in
  partial kinetic energy density read in
  atomic valenz-charges read in
  non local Contribution for L=           0  read in
    real space projection operators read in
  non local Contribution for L=           0  read in
    real space projection operators read in
  non local Contribution for L=           1  read in
    real space projection operators read in
  non local Contribution for L=           1  read in
    real space projection operators read in
    PAW grid and wavefunctions read in
 
   number of l-projection  operators is LMAX  =           4
   number of lm-projection operators is LMMAX =           8
 
 POTCAR:    PAW_PBE Ge 05Jan2001                  
   VRHFIN =Ge: s2p2                                                                                 
   LEXCH  = PE                                                                                      
   EATOM  =   104.9960 eV,    7.7170 Ry                                                             
                                                                                                    
   TITEL  = PAW_PBE Ge 05Jan2001                                                                    
   LULTRA =        F    use ultrasoft PP ?                                                          
   IUNSCR =        1    unscreen: 0-lin 1-nonlin 2-no                                               
   RPACOR =    2.170    partial core radius                                                         
   POMASS =   72.610; ZVAL   =    4.000    mass and valenz                                          
   RCORE  =    2.300    outmost cutoff radius                                                       
   RWIGS  =    2.300; RWIGS  =    1.217    wigner-seitz radius (au A)                               
   ENMAX  =  173.807; ENMIN  =  130.355 eV                                                          
   ICORE  =        3    local potential                                                             
   LCOR   =        T    correct aug charges                                                         
   LPAW   =        T    paw PP                                                                      
   EAUG   =  385.843                                                                                
   DEXC   =    0.000                                                                                
   RMAX   =    2.342    core radius for proj-oper                                                   
   RAUG   =    1.300    factor for augmentation sphere                                              
   RDEP   =    2.318    radius for radial grids                                                     
   RDEPT  =    2.103    core radius for aug-charge                                                  
                                                                                                    
   Atomic configuration                                                                             
   10 entries                                                                                       
     n  l   j            E        occ.                                                              
     1  0  0.50    -10959.8463   2.0000                                                             
     2  0  0.50     -1371.6056   2.0000                                                             
     2  1  1.50     -1198.4791   6.0000                                                             
     3  0  0.50      -168.4733   2.0000                                                             
     3  1  1.50      -115.6019   6.0000                                                             
     3  2  2.50       -29.3106  10.0000                                                             
     4  0  0.50       -11.7309   2.0000                                                             
     4  1  0.50        -3.8952   2.0000                                                             
     4  2  1.50        -4.0817   0.0000                                                             
     4  3  2.50        -4.0817   0.0000                                                             
   Description                                                                                      
     l       E           TYP  RCUT    TYP  RCUT                                                     
     0    -11.7309493     23  2.300                                                                 
     0     -7.4578696     23  2.300                                                                 
     1     -3.8952261     23  2.300                                                                 
     1      6.1178114     23  2.300                                                                 
     2     -4.0817478     23  2.300                                                                 
     3     -1.3605826      7  2.300                                                                 
  local pseudopotential read in
  partial core-charges read in
  partial kinetic energy density read in
  atomic valenz-charges read in
  non local Contribution for L=           0  read in
    real space projection operators read in
  non local Contribution for L=           0  read in
    real space projection operators read in
  non local Contribution for L=           1  read in
    real space projection operators read in
  non local Contribution for L=           1  read in
    real space projection operators read in
  non local Contribution for L=           2  read in
    real space projection operators read in
    PAW grid and wavefunctions read in
 
   number of l-projection  operators is LMAX  =           5
   number of lm-projection operators is LMMAX =          13
 
 Optimization of the real space projectors (new method)

 maximal supplied QI-value         = 19.84
 optimisation between [QCUT,QGAM] = [ 13.49, 26.99] = [ 50.98,203.92] Ry 
 Optimized for a Real-space Cutoff    1.07 Angstroem

   l    n(q)    QCUT    max X(q) W(low)/X(q) W(high)/X(q)  e(spline) 
   0      9    13.493   159.560    0.22E-03    0.15E-03    0.72E-07
   0      9    13.493   115.863    0.21E-03    0.15E-03    0.71E-07
   1      8    13.493    88.339    0.15E-03    0.11E-03    0.13E-06
   1      8    13.493    48.592    0.15E-03    0.10E-03    0.13E-06
 Optimization of the real space projectors (new method)

 maximal supplied QI-value         = 16.25
 optimisation between [QCUT,QGAM] = [ 13.49, 26.98] = [ 50.95,203.80] Ry 
 Optimized for a Real-space Cutoff    1.25 Angstroem

   l    n(q)    QCUT    max X(q) W(low)/X(q) W(high)/X(q)  e(spline) 
   0     10    13.489    65.336    0.91E-04    0.11E-03    0.34E-06
   0     10    13.489    52.220    0.89E-04    0.11E-03    0.34E-06
   1     10    13.489    36.409    0.22E-03    0.27E-03    0.14E-06
   1     10    13.489    21.334    0.21E-03    0.27E-03    0.14E-06
   2      9    13.489     4.673    0.11E-03    0.12E-03    0.19E-06
  PAW_PBE Si 05Jan2001                  :
 energy of atom  1       EATOM= -103.0669
 kinetic energy error for atom=    0.0003 (will be added to EATOM!!)
  PAW_PBE Ge 05Jan2001                  :
 energy of atom  2       EATOM= -104.9960
 kinetic energy error for atom=    0.0001 (will be added to EATOM!!)
 
 
 POSCAR: Si+Ge
  positions in direct lattice
  No initial velocities read in


 exchange-correlation table for PE
   RHO(1)=    0.500       N(1)  =     2000
   RHO(2)=  100.500       N(2)  =     4000
 


--------------------------------------------------------------------------------------------------------


 ion  position               nearest neighbor table
   1  0.130  0.826  0.405-  85 2.26  72 2.35  35 2.35
   2  0.964  0.076  0.000-  64 2.35  21 2.35  78 2.58 120 2.60
   3  0.797  0.426  0.081-  65 2.35  68 2.35  22 2.35
   4  0.630  0.776  0.162-  66 2.35  32 2.35  69 2.35  23 2.35
   5  0.464  0.126  0.243-  61 2.35  33 2.35  24 2.35  70 2.35
   6  0.297  0.476  0.324-  71 2.35  19 2.35  34 2.35
   7  0.464  0.826  0.405-  60 2.35  23 2.35  91 2.95  97 2.97
   8  0.297  0.076  0.000- 114 1.73  70 2.35  27 2.35 107 2.88
   9  0.130  0.426  0.081-  71 2.35  56 2.35  28 2.35
  10  0.964  0.776  0.162-  72 2.35  20 2.35  57 2.35  29 2.35
  11  0.797  0.126  0.243-  67 2.35  30 2.35  21 2.35  58 2.35
  12  0.630  0.476  0.324-  25 2.35  59 2.35  22 2.35
  13  0.797  0.826  0.405- 103 2.25  66 2.35  29 2.35
  14  0.630  0.076  0.000-  84 1.75  58 2.35  33 2.35  89 2.89
  15  0.464  0.426  0.081-  59 2.35  62 2.35  34 2.35  77 3.01
  16  0.297  0.776  0.162-  60 2.35  26 2.35  63 2.35  35 2.35
  17  0.130  0.126  0.243-  55 2.35  27 2.35  36 2.35  64 2.35
  18  0.964  0.476  0.324-  65 2.35  31 2.35  28 2.35
  19  0.214  0.576  0.405-  53 2.35   6 2.35 116 2.97  80 3.00
  20  0.047  0.826  0.000- 108 2.11  10 2.35  45 2.35 112 2.90
  21  0.880  0.176  0.081-  46 2.35  11 2.35   2 2.35
  22  0.714  0.526  0.162-  50 2.35  47 2.35  12 2.35   3 2.35
  23  0.547  0.876  0.243-  51 2.35  48 2.35   7 2.35   4 2.35
  24  0.380  0.226  0.324-  52 2.35   5 2.35  43 2.35
  25  0.547  0.576  0.405-  74 2.28  41 2.35  12 2.35
  26  0.380  0.826  0.000- 102 2.09  16 2.35  51 2.35  82 2.91
  27  0.214  0.176  0.081-  52 2.35  17 2.35   8 2.35
  28  0.047  0.526  0.162-  38 2.35  53 2.35  18 2.35   9 2.35
  29  0.880  0.876  0.243-  39 2.35  54 2.35  13 2.35  10 2.35
  30  0.714  0.226  0.324-  40 2.35  11 2.35  49 2.35
  31  0.880  0.576  0.405- 110 2.29  47 2.35  18 2.35
  32  0.714  0.826  0.000-  96 1.60   4 2.35  39 2.35
  33  0.547  0.176  0.081-  40 2.35   5 2.35  14 2.35
  34  0.380  0.526  0.162-  44 2.35  41 2.35   6 2.35  15 2.35
  35  0.214  0.876  0.243-  45 2.35  42 2.35   1 2.35  16 2.35
  36  0.047  0.226  0.324-  46 2.35  37 2.35  17 2.35
  37  0.130  0.326  0.405-  71 2.35  36 2.35  92 2.56
  38  0.964  0.576  0.000-  28 2.35  57 2.35  88 2.82
  39  0.797  0.926  0.081-  29 2.35  58 2.35  32 2.35
  40  0.630  0.276  0.162-  30 2.35  68 2.35  33 2.35  59 2.35
  41  0.464  0.626  0.243-  25 2.35  34 2.35  69 2.35  60 2.35
  42  0.297  0.976  0.324-  70 2.35  35 2.35  55 2.35 109 2.72
  43  0.464  0.326  0.405- 104 2.18  59 2.35  24 2.35
  44  0.297  0.576  0.000-  34 2.35  63 2.35
  45  0.130  0.926  0.081-  35 2.35  64 2.35  20 2.35
  46  0.964  0.276  0.162-  36 2.35  56 2.35  21 2.35  65 2.35
  47  0.797  0.626  0.243-  31 2.35  22 2.35  57 2.35  66 2.35
  48  0.630  0.976  0.324-  58 2.35  23 2.35  61 2.35 115 2.71
  49  0.797  0.326  0.405-  65 2.35  30 2.35  86 2.58
  50  0.630  0.576  0.000-  22 2.35  69 2.35
  51  0.464  0.926  0.081-  23 2.35  70 2.35  26 2.35
  52  0.297  0.276  0.162-  24 2.35  62 2.35  27 2.35  71 2.35
  53  0.130  0.626  0.243-  19 2.35  63 2.35  28 2.35  72 2.35
  54  0.964  0.976  0.324-  73 2.35  64 2.35  29 2.35  67 2.35
  55  0.214  0.076  0.405- 109 2.15  17 2.35  42 2.35
  56  0.047  0.326  0.000-  46 2.35   9 2.35
  57  0.880  0.676  0.081-  38 2.35  47 2.35  10 2.35
  58  0.714  0.026  0.162-  14 2.35  48 2.35  39 2.35  11 2.35
  59  0.547  0.376  0.243-  15 2.35  43 2.35  12 2.35  40 2.35
  60  0.380  0.726  0.324-  16 2.35   7 2.35  41 2.35  97 2.45
  61  0.547  0.076  0.405-   5 2.35  48 2.35  79 2.55
  62  0.380  0.326  0.000-  52 2.35  15 2.35
  63  0.214  0.676  0.081-  53 2.35  44 2.35  16 2.35
  64  0.047  0.026  0.162-   2 2.35  54 2.35  45 2.35  17 2.35
  65  0.880  0.376  0.243-   3 2.35  49 2.35  18 2.35  46 2.35
  66  0.714  0.726  0.324-   4 2.35  13 2.35  47 2.35
  67  0.880  0.076  0.405-  11 2.35  54 2.35  73 2.53
  68  0.714  0.326  0.000-  40 2.35   3 2.35 113 2.80
  69  0.547  0.676  0.081-  41 2.35  50 2.35   4 2.35
  70  0.380  0.026  0.162-   8 2.35  42 2.35  51 2.35   5 2.35
  71  0.214  0.376  0.243-   9 2.35  37 2.35   6 2.35  52 2.35
  72  0.047  0.726  0.324-  10 2.35   1 2.35  53 2.35  85 2.44
  73  0.963  0.986  0.545-  54 2.35  93 2.48 105 2.48  67 2.53
  74  0.588  0.597  0.608-  25 2.28  91 2.48 106 2.48  94 2.48
  75  0.213  0.208  0.671-  92 2.48 107 2.48  95 2.48
  76  0.838  0.819  0.734- 103 2.46  93 2.48 108 2.48  96 2.48
  77  0.463  0.430  0.797- 104 2.46  94 2.48  15 3.01
  78  0.088  0.042  0.860- 105 2.46  95 2.48   2 2.58
  79  0.463  0.986  0.545-  87 2.48  99 2.48  61 2.55
  80  0.088  0.597  0.608-  85 2.48  88 2.48 100 2.48  19 3.00
  81  0.713  0.208  0.671-  86 2.48 101 2.48  89 2.48
  82  0.338  0.819  0.734-  97 2.46  87 2.48  90 2.48 102 2.48  26 2.91
  83  0.963  0.430  0.797-  98 2.46  88 2.48
  84  0.588  0.042  0.860-  14 1.75  99 2.46  89 2.48
  85  0.088  0.736  0.545-   1 2.26  72 2.44 112 2.46  80 2.48
  86  0.713  0.347  0.608- 113 2.46  81 2.48  49 2.58
  87  0.338  0.958  0.671- 114 2.46  82 2.48  79 2.48 109 2.48
  88  0.963  0.569  0.734-  83 2.48  80 2.48 110 2.48  38 2.82
  89  0.588  0.180  0.797-  84 2.48 111 2.48  81 2.48  14 2.89
  90  0.213  0.792  0.860- 112 2.48  82 2.48
  91  0.588  0.736  0.545- 118 2.46  74 2.48   7 2.95
  92  0.213  0.347  0.608- 119 2.46  75 2.48  37 2.56
  93  0.838  0.958  0.671- 120 2.46  76 2.48  73 2.48 115 2.48
  94  0.463  0.569  0.734-  77 2.48 116 2.48  74 2.48
  95  0.088  0.180  0.797-  78 2.48 117 2.48  75 2.48
  96  0.713  0.792  0.860-  32 1.60 118 2.48  76 2.48
  97  0.338  0.736  0.545-  60 2.45  82 2.46 116 2.48   7 2.97
  98  0.963  0.347  0.608-  83 2.46 117 2.48
  99  0.588  0.958  0.671-  84 2.46 118 2.48 115 2.48  79 2.48
 100  0.213  0.569  0.734- 119 2.48 116 2.48  80 2.48
 101  0.838  0.180  0.797- 120 2.48  81 2.48 117 2.48
 102  0.463  0.792  0.860-  26 2.09 118 2.48  82 2.48
 103  0.838  0.736  0.545-  13 2.25  76 2.46 110 2.48
 104  0.463  0.347  0.608-  43 2.18  77 2.46 111 2.48
 105  0.088  0.958  0.671-  78 2.46 112 2.48 109 2.48  73 2.48
 106  0.713  0.569  0.734- 113 2.48 110 2.48  74 2.48
 107  0.338  0.180  0.797- 114 2.48  75 2.48 111 2.48   8 2.88
 108  0.963  0.792  0.860-  20 2.11 112 2.48  76 2.48
 109  0.213  0.986  0.545-  55 2.15 105 2.48  87 2.48  42 2.72
 110  0.838  0.597  0.608-  31 2.29 103 2.48 106 2.48  88 2.48
 111  0.463  0.208  0.671- 104 2.48  89 2.48 107 2.48
 112  0.088  0.819  0.734-  85 2.46 105 2.48  90 2.48 108 2.48  20 2.90
 113  0.713  0.430  0.797-  86 2.46 106 2.48  68 2.80
 114  0.338  0.042  0.860-   8 1.73  87 2.46 107 2.48
 115  0.713  0.986  0.545-  99 2.48  93 2.48  48 2.71
 116  0.338  0.597  0.608-  97 2.48  94 2.48 100 2.48  19 2.97
 117  0.963  0.208  0.671-  98 2.48  95 2.48 101 2.48
 118  0.588  0.819  0.734-  91 2.46  99 2.48  96 2.48 102 2.48
 119  0.213  0.430  0.797-  92 2.46 100 2.48
 120  0.838  0.042  0.860-  93 2.46 101 2.48   2 2.60
 
  LATTYP: Found a simple orthorhombic cell.
 ALAT       =    10.6005525590
 B/A-ratio  =     1.5369954617
 C/A-ratio  =     1.6201353337
  
  Lattice vectors:
  
 A1 = (   0.0000000000,   0.0000002570,  10.6005525590)
 A2 = (  16.2930011750,   0.0000000000,   0.0000000000)
 A3 = (   0.0000000000,  17.1743297580,   0.0000000000)


Analysis of symmetry for initial positions (statically):
=====================================================================
 Subroutine PRICEL returns:
 Original cell was already a primitive cell.
 

 Routine SETGRP: Setting up the symmetry group for a 
 simple orthorhombic supercell.


 Subroutine GETGRP returns: Found  1 space group operations
 (whereof  1 operations were pure point group operations)
 out of a pool of  8 trial point group operations.


The static configuration has the point symmetry C_1 .


Analysis of symmetry for dynamics (positions and initial velocities):
=====================================================================
 Subroutine PRICEL returns:
 Original cell was already a primitive cell.
 

 Routine SETGRP: Setting up the symmetry group for a 
 simple orthorhombic supercell.


 Subroutine GETGRP returns: Found  1 space group operations
 (whereof  1 operations were pure point group operations)
 out of a pool of  8 trial point group operations.


The dynamic configuration has the point symmetry C_1 .


Analysis of structural, dynamic, and magnetic symmetry:
=====================================================================
 Subroutine PRICEL returns:
 Original cell was already a primitive cell.
 

 Routine SETGRP: Setting up the symmetry group for a 
 simple orthorhombic supercell.


 Subroutine GETGRP returns: Found  1 space group operations
 (whereof  1 operations were pure point group operations)
 out of a pool of  8 trial point group operations.


The overall configuration has the point symmetry C_1 .


 Subroutine INISYM returns: Found  1 space group operations
 (whereof  1 operations are pure point group operations),
 and found     1 'primitive' translations


----------------------------------------------------------------------------------------

                                     Primitive cell                                     

  volume of cell :    2966.2612

  direct lattice vectors                    reciprocal lattice vectors
    16.293001175  0.000000000  0.000000000     0.061376047  0.000000000  0.000000000
     0.000000000 17.174329758  0.000000000     0.000000000  0.058226435 -0.000000001
     0.000000000  0.000000257 10.600552559     0.000000000  0.000000000  0.094334705

  length of vectors
    16.293001175 17.174329758 10.600552559     0.061376047  0.058226435  0.094334705

  position of ions in fractional coordinates (direct lattice)
     0.130378902  0.826204658  0.405034482
     0.963712454  0.076203912  0.000000056
     0.797045708  0.426204026  0.081006944
     0.630379081  0.776204169  0.162013784
     0.463712275  0.126204491  0.243020713
     0.297045529  0.476204634  0.324027598
     0.463712275  0.826204658  0.405034482
     0.297045797  0.076203912  0.000000056
     0.130379081  0.426204026  0.081006944
     0.963712394  0.776204169  0.162013784
     0.797045588  0.126204491  0.243020713
     0.630378842  0.476204634  0.324027598
     0.797045588  0.826204658  0.405034482
     0.630379140  0.076203912  0.000000056
     0.463712424  0.426204026  0.081006944
     0.297045767  0.776204169  0.162013784
     0.130378976  0.126204491  0.243020713
     0.963712215  0.476204634  0.324027598
     0.213712215  0.576204777  0.405034423
     0.047045767  0.826204002  0.000000000
     0.880379081  0.176204205  0.081006922
     0.713712335  0.526204467  0.162013739
     0.547045588  0.876204610  0.243020654
     0.380378962  0.226204634  0.324027508
     0.547045588  0.576204777  0.405034423
     0.380379081  0.826204002  0.000000000
     0.213712379  0.176204205  0.081006922
     0.047045693  0.526204467  0.162013739
     0.880378962  0.876204610  0.243020654
     0.713712335  0.226204634  0.324027508
     0.880378902  0.576204777  0.405034423
     0.713712394  0.826204002  0.000000000
     0.547045708  0.176204205  0.081006922
     0.380378991  0.526204467  0.162013739
     0.213712230  0.876204610  0.243020654
     0.047045581  0.226204634  0.324027508
     0.130378902  0.326204777  0.405034482
     0.963712394  0.576204002  0.000000023
     0.797045708  0.926204145  0.081006892
     0.630379021  0.276204228  0.162013739
     0.463712275  0.626204491  0.243020713
     0.297045648  0.976204634  0.324027508
     0.463712275  0.326204777  0.405034482
     0.297045767  0.576204002  0.000000023
     0.130379051  0.926204145  0.081006892
     0.963712394  0.276204228  0.162013739
     0.797045588  0.626204491  0.243020713
     0.630378962  0.976204634  0.324027508
     0.797045588  0.326204777  0.405034482
     0.630379140  0.576204002  0.000000023
     0.463712394  0.926204145  0.081006892
     0.297045738  0.276204228  0.162013739
     0.130378976  0.626204491  0.243020713
     0.963712335  0.976204634  0.324027508
     0.213712215  0.076204777  0.405034393
     0.047045767  0.326203912  0.000000056
     0.880379081  0.676204026  0.081006899
     0.713712394  0.026204228  0.162013754
     0.547045588  0.376204491  0.243020654
     0.380378842  0.726204753  0.324027508
     0.547045588  0.076204777  0.405034393
     0.380379111  0.326203912  0.000000056
     0.213712409  0.676204026  0.081006899
     0.047045726  0.026204228  0.162013754
     0.880378962  0.376204491  0.243020654
     0.713712215  0.726204753  0.324027508
     0.880378962  0.076204777  0.405034393
     0.713712454  0.326203912  0.000000056
     0.547045767  0.676204026  0.081006899
     0.380379081  0.026204228  0.162013754
     0.213712290  0.376204491  0.243020654
     0.047045540  0.726204753  0.324027508
     0.962620497  0.986047685  0.545266092
     0.587620497  0.597158790  0.608166516
     0.212620527  0.208269894  0.671066999
     0.837620497  0.819380820  0.733967483
     0.462620527  0.430491984  0.796867907
     0.087620407  0.041602850  0.859768331
     0.462620407  0.986047685  0.545266092
     0.087620437  0.597158730  0.608166516
     0.712620497  0.208269835  0.671066999
     0.337620407  0.819380820  0.733967423
     0.962620497  0.430491865  0.796867907
     0.587620497  0.041603088  0.859768450
     0.087620445  0.736047626  0.545266092
     0.712620497  0.347158700  0.608166516
     0.337620527  0.958269775  0.671066999
     0.962620497  0.569380820  0.733967423
     0.587620378  0.180491805  0.796867847
     0.212620407  0.791603029  0.859768331
     0.587620378  0.736047626  0.545266092
     0.212620422  0.347158700  0.608166516
     0.837620497  0.958269775  0.671066999
     0.462620407  0.569380879  0.733967423
     0.087620467  0.180491865  0.796867907
     0.712620378  0.791603029  0.859768331
     0.337620467  0.736047626  0.545266092
     0.962620497  0.347158700  0.608166516
     0.587620497  0.958269775  0.671066999
     0.212620527  0.569380820  0.733967423
     0.837620497  0.180491865  0.796867847
     0.462620527  0.791602910  0.859768331
     0.837620378  0.736047566  0.545266092
     0.462620437  0.347158700  0.608166516
     0.087620497  0.958269775  0.671066999
     0.712620497  0.569380820  0.733967423
     0.337620407  0.180491865  0.796867847
     0.962620497  0.791603029  0.859768331
     0.212620437  0.986047685  0.545266092
     0.837620378  0.597158730  0.608166516
     0.462620527  0.208269894  0.671066999
     0.087620467  0.819380820  0.733967483
     0.712620497  0.430491984  0.796867788
     0.337620407  0.041602850  0.859768331
     0.712620378  0.986047685  0.545266151
     0.337620467  0.597158730  0.608166516
     0.962620497  0.208269894  0.671066999
     0.587620497  0.819380820  0.733967483
     0.212620407  0.430491865  0.796867788
     0.837620497  0.041603088  0.859768331

  ion indices of the primitive-cell ions
   primitive index   ion index
                 1           1
                 2           2
                 3           3
                 4           4
                 5           5
                 6           6
                 7           7
                 8           8
                 9           9
                10          10
                11          11
                12          12
                13          13
                14          14
                15          15
                16          16
                17          17
                18          18
                19          19
                20          20
                21          21
                22          22
                23          23
                24          24
                25          25
                26          26
                27          27
                28          28
                29          29
                30          30
                31          31
                32          32
                33          33
                34          34
                35          35
                36          36
                37          37
                38          38
                39          39
                40          40
                41          41
                42          42
                43          43
                44          44
                45          45
                46          46
                47          47
                48          48
                49          49
                50          50
                51          51
                52          52
                53          53
                54          54
                55          55
                56          56
                57          57
                58          58
                59          59
                60          60
                61          61
                62          62
                63          63
                64          64
                65          65
                66          66
                67          67
                68          68
                69          69
                70          70
                71          71
                72          72
                73          73
                74          74
                75          75
                76          76
                77          77
                78          78
                79          79
                80          80
                81          81
                82          82
                83          83
                84          84
                85          85
                86          86
                87          87
                88          88
                89          89
                90          90
                91          91
                92          92
                93          93
                94          94
                95          95
                96          96
                97          97
                98          98
                99          99
               100         100
               101         101
               102         102
               103         103
               104         104
               105         105
               106         106
               107         107
               108         108
               109         109
               110         110
               111         111
               112         112
               113         113
               114         114
               115         115
               116         116
               117         117
               118         118
               119         119
               120         120

----------------------------------------------------------------------------------------

 
 
 KPOINTS: Automatic KPOINTS generated             

Automatic generation of k-mesh.
 Grid dimensions read from file:
 generate k-points for:    2    2    3

 Generating k-lattice:

  Cartesian coordinates                     Fractional coordinates (reciprocal lattice)
     0.030688023  0.000000000  0.000000000     0.500000000  0.000000000  0.000000000
     0.000000000  0.029113218 -0.000000001     0.000000000  0.500000000 -0.000000000
     0.000000000  0.000000000  0.031444902     0.000000000  0.000000000  0.333333333

  Length of vectors
     0.030688023  0.029113218  0.031444902

  Shift w.r.t. Gamma in fractional coordinates (k-lattice)
     0.000000000  0.000000000  0.000000000

 
 Subroutine IBZKPT returns following result:
 ===========================================
 
 Found      8 irreducible k-points:
 
 Following reciprocal coordinates:
            Coordinates               Weight
  0.000000  0.000000  0.000000      1.000000
  0.500000  0.000000  0.000000      1.000000
  0.000000  0.500000 -0.000000      1.000000
  0.500000  0.500000 -0.000000      1.000000
  0.000000  0.000000  0.333333      2.000000
  0.500000  0.000000  0.333333      2.000000
  0.000000  0.500000  0.333333      2.000000
  0.500000  0.500000  0.333333      2.000000
 
 Following cartesian coordinates:
            Coordinates               Weight
  0.000000  0.000000  0.000000      1.000000
  0.030688  0.000000  0.000000      1.000000
  0.000000  0.029113 -0.000000      1.000000
  0.030688  0.029113 -0.000000      1.000000
  0.000000  0.000000  0.031445      2.000000
  0.030688  0.000000  0.031445      2.000000
  0.000000  0.029113  0.031445      2.000000
  0.030688  0.029113  0.031445      2.000000
 


--------------------------------------------------------------------------------------------------------




 Dimension of arrays:
   k-points           NKPTS =      8   k-points in BZ     NKDIM =      8   number of bands    NBANDS=    288
   number of dos      NEDOS =    301   number of ions     NIONS =    120
   non local maximal  LDIM  =      5   non local SUM 2l+1 LMDIM =     13
   total plane-waves  NPLWV = 846720
   max r-space proj   IRMAX =   2363   max aug-charges    IRDMAX= 124299
   dimension x,y,z NGX =   108 NGY =  112 NGZ =   70
   dimension x,y,z NGXF=   216 NGYF=  224 NGZF=  140
   support grid    NGXF=   432 NGYF=  448 NGZF=  280
   ions per type =              72  48
   NGX,Y,Z   is equivalent  to a cutoff of  11.02, 10.84, 10.98 a.u.
   NGXF,Y,Z  is equivalent  to a cutoff of  22.04, 21.68, 21.96 a.u.

 SYSTEM =  Si and Ge interface calculation         
 POSCAR =  Si+Ge                                   

 Startparameter for this run:
   NWRITE =      2    write-flag & timer
   PREC   = normal    normal or accurate (medium, high low for compatibility)
   ISTART =      0    job   : 0-new  1-cont  2-samecut
   ICHARG =      2    charge: 1-file 2-atom 10-const
   ISPIN  =      2    spin polarized calculation?
   LNONCOLLINEAR =      F non collinear calculations
   LSORBIT =      F    spin-orbit coupling
   INIWAV =      1    electr: 0-lowe 1-rand  2-diag
   LASPH  =      T    aspherical Exc in radial PAW
 Electronic Relaxation 1
   ENCUT  =  700.0 eV  51.45 Ry    7.17 a.u.  35.15 37.05 22.87*2*pi/ulx,y,z
   ENINI  =  700.0     initial cutoff
   ENAUG  =  900.0 eV  augmentation charge cutoff
   NELM   =    100;   NELMIN=  2; NELMDL= -5     # of ELM steps 
   EDIFF  = 0.1E-06   stopping-criterion for ELM
   LREAL  =      T    real-space projection
   NLSPLINE    = F    spline interpolate recip. space projectors
   LCOMPAT=      F    compatible to vasp.4.4
   GGA_COMPAT  = T    GGA compatible to vasp.4.4-vasp.4.6
   LMAXPAW     = -100 max onsite density
   LMAXMIX     =    6 max onsite mixed and CHGCAR
   VOSKOWN=      0    Vosko Wilk Nusair interpolation
   ROPT   =   -0.00050  -0.00050
 Ionic relaxation
   EDIFFG = 0.1E-05   stopping-criterion for IOM
   NSW    =      0    number of steps for IOM
   NBLOCK =      1;   KBLOCK =      1    inner block; outer block 
   IBRION =     -1    ionic relax: 0-MD 1-quasi-New 2-CG
   NFREE  =      0    steps in history (QN), initial steepest desc. (CG)
   ISIF   =      2    stress and relaxation
   IWAVPR =     10    prediction:  0-non 1-charg 2-wave 3-comb
   ISYM   =      2    0-nonsym 1-usesym 2-fastsym
   LCORR  =      T    Harris-Foulkes like correction to forces

   POTIM  = 0.5000    time-step for ionic-motion
   TEIN   =    0.0    initial temperature
   TEBEG  =    0.0;   TEEND  =   0.0 temperature during run
   SMASS  =  -3.00    Nose mass-parameter (am)
   estimated Nose-frequenzy (Omega)   =  0.10E-29 period in steps = 0.13E+47 mass=  -0.607E-26a.u.
   SCALEE = 1.0000    scale energy and forces
   NPACO  =    256;   APACO  = 10.0  distance and # of slots for P.C.
   PSTRESS=    0.0 pullay stress

  Mass of Ions in am
   POMASS =  28.09 72.61
  Ionic Valenz
   ZVAL   =   4.00  4.00
  Atomic Wigner-Seitz radii
   RWIGS  =  -1.00 -1.00
  virtual crystal weights 
   VCA    =   1.00  1.00
   NELECT =     480.0000    total number of electrons
   NUPDOWN=       1.0000    fix difference up-down

 DOS related values:
   EMIN   =  10.00;   EMAX   =-10.00  energy-range for DOS
   EFERMI =   0.00;   METHOD = LEGACY      
   ISMEAR =     0;   SIGMA  =   0.01  broadening in eV -4-tet -1-fermi 0-gaus

 Electronic relaxation 2 (details)
   IALGO  =     38    algorithm
   LDIAG  =      T    sub-space diagonalisation (order eigenvalues)
   LSUBROT=      F    optimize rotation matrix (better conditioning)
   TURBO    =      0    0=normal 1=particle mesh
   IRESTART =      0    0=no restart 2=restart with 2 vectors
   NREBOOT  =      0    no. of reboots
   NMIN     =      0    reboot dimension
   EREF     =   0.00    reference energy to select bands
   IMIX   =      4    mixing-type and parameters
     AMIX     =   0.60;   BMIX     =  1.00
     AMIX_MAG =   2.40;   BMIX_MAG =  1.00
     AMIN     =   0.10
     WC   =   100.;   INIMIX=   1;  MIXPRE=   1;  MAXMIX= -45

 Intra band minimization:
   WEIMIN = 0.0000     energy-eigenvalue tresh-hold
   EBREAK =  0.87E-10  absolut break condition
   DEPER  =   0.30     relativ break condition  

   TIME   =   0.40     timestep for ELM

  volume/ion in A,a.u.               =      24.72       166.81
  Fermi-wavevector in a.u.,A,eV,Ry     =   0.892111  1.685845 10.828355  0.795862
  Thomas-Fermi vector in A             =   2.014018
 
 Write flags
   LWAVE        =      F    write WAVECAR
   LDOWNSAMPLE  =      F    k-point downsampling of WAVECAR
   LCHARG       =      T    write CHGCAR
   LVTOT        =      F    write LOCPOT, total local potential
   LVHAR        =      T    write LOCPOT, Hartree potential only
   WRT_POTENTIAL=  hartree ionic  ! write potential to hdf5 file
   LELF         =      F    write electronic localiz. function (ELF)
   LORBIT       =      0    0 simple, 1 ext, 2 COOP (PROOUT), +10 PAW based schemes


 Dipole corrections
   LMONO      =      F    monopole corrections only (constant potential shift)
   LDIPOL     =      F    correct potential (dipole corrections)
   IDIPOL     =      0    1-x, 2-y, 3-z, 4-all directions 
   EPSILON    =  1.0000000 bulk dielectric constant
   LVACPOTAV  =      F  vacuum potentials using an averaging scheme for the charge density
   VACPOTFLAT =  0.1000000 required flatness to determine vacuum potential
 Exchange correlation treatment:
   GGA     = PE    functional components
   XC_C    = 1    coefficients multiplying the functional components
   LIBXC   =     F    Libxc                    
   VOSKOWN =     0    Vosko Wilk Nusair interpolation
   LHFCALC =     F    Hartree Fock is set to
   LHFONE  =     F    Hartree Fock one center treatment
   AEXX    =    0.0000 exact exchange contribution

 Parameters of functionals:
   PE:
     No parameter
 
 Van der Waals corrections
   IVDW    =     0    specifies the selected vdW correction

 Linear response parameters
   LEPSILON=     F    determine dielectric tensor
   LRPA    =     F    only Hartree local field effects (RPA)
   LNABLA  =     F    use nabla operator in PAW spheres
   LVEL    =     F    velocity operator in full k-point grid
   CSHIFT  =0.1000    complex shift for real part using Kramers Kronig
   OMEGAMAX=  -1.0    maximum frequency
   DEG_THRESHOLD= 0.2000000E-02 threshold for treating states as degnerate
   RTIME   =   -0.100 relaxation time in fs
  (WPLASMAI=    0.000 imaginary part of plasma frequency in eV, 0.658/RTIME)
   DFIELD  = 0.0000000 0.0000000 0.0000000 field for delta impulse in time
 
  Optional k-point grid parameters
   LKPOINTS_OPT  =     F    use optional k-point grid
   KPOINTS_OPT_MODE=     1    mode for optional k-point grid
 
 Orbital magnetization related:
   ORBITALMAG=     F  switch on orbital magnetization
   LCHIMAG   =     F  perturbation theory with respect to B field
   DQ        =  0.001000  dq finite difference perturbation B field
   LLRAUG    =     F  two centre corrections for induced B field
   LBONE     =     F  B-component reconstruction in AE one-centre
   LVGVCALC  =     T  calculate vGv susceptibility
   LVGVAPPL  =     F  apply vGv susceptibility instead of pGv for G=0

 Random number generation:
   RANDOM_GENERATOR = DEFAULT
   PCG_SEED         = not used


--------------------------------------------------------------------------------------------------------


 Static calculation
 charge density and potential will be updated during run
 spin polarized calculation
 Variant of blocked Davidson
 Davidson routine will perform the subspace rotation
 perform sub-space diagonalisation
    after iterative eigenvector-optimisation
 modified Broyden-mixing scheme, WC =      100.0
 initial mixing is a Kerker type mixing with AMIX =  0.6000 and BMIX =      1.0000
 Hartree-type preconditioning will be used
 using additional bands           48
 real space projection scheme for non local part
 use partial core corrections
 calculate Harris-corrections to forces 
   (improved forces if not selfconsistent)
 use gradient corrections 
 use of overlap-Matrix (Vanderbilt PP)
 Gauss-broadening in eV      SIGMA  =   0.01


--------------------------------------------------------------------------------------------------------


  energy-cutoff  :      700.00
  volume of cell :     2966.26
      direct lattice vectors                 reciprocal lattice vectors
    16.293001175  0.000000000  0.000000000     0.061376047  0.000000000  0.000000000
     0.000000000 17.174329758  0.000000000     0.000000000  0.058226435 -0.000000001
     0.000000000  0.000000257 10.600552559     0.000000000  0.000000000  0.094334705

  length of vectors
    16.293001175 17.174329758 10.600552559     0.061376047  0.058226435  0.094334705


 
 k-points in units of 2pi/SCALE and weight: Automatic KPOINTS generated             
   0.00000000  0.00000000  0.00000000       0.083
   0.03068802  0.00000000  0.00000000       0.083
   0.00000000  0.02911322 -0.00000000       0.083
   0.03068802  0.02911322 -0.00000000       0.083
   0.00000000  0.00000000  0.03144490       0.167
   0.03068802  0.00000000  0.03144490       0.167
   0.00000000  0.02911322  0.03144490       0.167
   0.03068802  0.02911322  0.03144490       0.167
 
 k-points in reciprocal lattice and weights: Automatic KPOINTS generated             
   0.00000000  0.00000000  0.00000000       0.083
   0.50000000  0.00000000  0.00000000       0.083
   0.00000000  0.50000000 -0.00000000       0.083
   0.50000000  0.50000000 -0.00000000       0.083
   0.00000000  0.00000000  0.33333333       0.167
   0.50000000  0.00000000  0.33333333       0.167
   0.00000000  0.50000000  0.33333333       0.167
   0.50000000  0.50000000  0.33333333       0.167
 
 position of ions in fractional coordinates (direct lattice) 
   0.13037890  0.82620466  0.40503448
   0.96371245  0.07620391  0.00000006
   0.79704571  0.42620403  0.08100694
   0.63037908  0.77620417  0.16201378
   0.46371227  0.12620449  0.24302071
   0.29704553  0.47620463  0.32402760
   0.46371227  0.82620466  0.40503448
   0.29704580  0.07620391  0.00000006
   0.13037908  0.42620403  0.08100694
   0.96371239  0.77620417  0.16201378
   0.79704559  0.12620449  0.24302071
   0.63037884  0.47620463  0.32402760
   0.79704559  0.82620466  0.40503448
   0.63037914  0.07620391  0.00000006
   0.46371242  0.42620403  0.08100694
   0.29704577  0.77620417  0.16201378
   0.13037898  0.12620449  0.24302071
   0.96371222  0.47620463  0.32402760
   0.21371222  0.57620478  0.40503442
   0.04704577  0.82620400  0.00000000
   0.88037908  0.17620420  0.08100692
   0.71371233  0.52620447  0.16201374
   0.54704559  0.87620461  0.24302065
   0.38037896  0.22620463  0.32402751
   0.54704559  0.57620478  0.40503442
   0.38037908  0.82620400  0.00000000
   0.21371238  0.17620420  0.08100692
   0.04704569  0.52620447  0.16201374
   0.88037896  0.87620461  0.24302065
   0.71371233  0.22620463  0.32402751
   0.88037890  0.57620478  0.40503442
   0.71371239  0.82620400  0.00000000
   0.54704571  0.17620420  0.08100692
   0.38037899  0.52620447  0.16201374
   0.21371223  0.87620461  0.24302065
   0.04704558  0.22620463  0.32402751
   0.13037890  0.32620478  0.40503448
   0.96371239  0.57620400  0.00000002
   0.79704571  0.92620414  0.08100689
   0.63037902  0.27620423  0.16201374
   0.46371227  0.62620449  0.24302071
   0.29704565  0.97620463  0.32402751
   0.46371227  0.32620478  0.40503448
   0.29704577  0.57620400  0.00000002
   0.13037905  0.92620414  0.08100689
   0.96371239  0.27620423  0.16201374
   0.79704559  0.62620449  0.24302071
   0.63037896  0.97620463  0.32402751
   0.79704559  0.32620478  0.40503448
   0.63037914  0.57620400  0.00000002
   0.46371239  0.92620414  0.08100689
   0.29704574  0.27620423  0.16201374
   0.13037898  0.62620449  0.24302071
   0.96371233  0.97620463  0.32402751
   0.21371222  0.07620478  0.40503439
   0.04704577  0.32620391  0.00000006
   0.88037908  0.67620403  0.08100690
   0.71371239  0.02620423  0.16201375
   0.54704559  0.37620449  0.24302065
   0.38037884  0.72620475  0.32402751
   0.54704559  0.07620478  0.40503439
   0.38037911  0.32620391  0.00000006
   0.21371241  0.67620403  0.08100690
   0.04704573  0.02620423  0.16201375
   0.88037896  0.37620449  0.24302065
   0.71371222  0.72620475  0.32402751
   0.88037896  0.07620478  0.40503439
   0.71371245  0.32620391  0.00000006
   0.54704577  0.67620403  0.08100690
   0.38037908  0.02620423  0.16201375
   0.21371229  0.37620449  0.24302065
   0.04704554  0.72620475  0.32402751
   0.96262050  0.98604769  0.54526609
   0.58762050  0.59715879  0.60816652
   0.21262053  0.20826989  0.67106700
   0.83762050  0.81938082  0.73396748
   0.46262053  0.43049198  0.79686791
   0.08762041  0.04160285  0.85976833
   0.46262041  0.98604769  0.54526609
   0.08762044  0.59715873  0.60816652
   0.71262050  0.20826984  0.67106700
   0.33762041  0.81938082  0.73396742
   0.96262050  0.43049187  0.79686791
   0.58762050  0.04160309  0.85976845
   0.08762044  0.73604763  0.54526609
   0.71262050  0.34715870  0.60816652
   0.33762053  0.95826977  0.67106700
   0.96262050  0.56938082  0.73396742
   0.58762038  0.18049181  0.79686785
   0.21262041  0.79160303  0.85976833
   0.58762038  0.73604763  0.54526609
   0.21262042  0.34715870  0.60816652
   0.83762050  0.95826977  0.67106700
   0.46262041  0.56938088  0.73396742
   0.08762047  0.18049187  0.79686791
   0.71262038  0.79160303  0.85976833
   0.33762047  0.73604763  0.54526609
   0.96262050  0.34715870  0.60816652
   0.58762050  0.95826977  0.67106700
   0.21262053  0.56938082  0.73396742
   0.83762050  0.18049187  0.79686785
   0.46262053  0.79160291  0.85976833
   0.83762038  0.73604757  0.54526609
   0.46262044  0.34715870  0.60816652
   0.08762050  0.95826977  0.67106700
   0.71262050  0.56938082  0.73396742
   0.33762041  0.18049187  0.79686785
   0.96262050  0.79160303  0.85976833
   0.21262044  0.98604769  0.54526609
   0.83762038  0.59715873  0.60816652
   0.46262053  0.20826989  0.67106700
   0.08762047  0.81938082  0.73396748
   0.71262050  0.43049198  0.79686779
   0.33762041  0.04160285  0.85976833
   0.71262038  0.98604769  0.54526615
   0.33762047  0.59715873  0.60816652
   0.96262050  0.20826989  0.67106700
   0.58762050  0.81938082  0.73396748
   0.21262041  0.43049187  0.79686779
   0.83762050  0.04160309  0.85976833
 
 position of ions in cartesian coordinates  (Angst):
   2.12426360 14.18951135  4.29358931
  15.70176815  1.30875111  0.00000059
  12.98626666  7.31976851  0.85871837
  10.27076711 13.33078640  1.71743563
   7.55526464  2.16747761  2.57615384
   4.83976315  8.17849550  3.43487158
   7.55526464 14.18951135  4.29358931
   4.83976752  1.30875111  0.00000059
   2.12426652  7.31976851  0.85871837
  15.70176717 13.33078640  1.71743563
  12.98626470  2.16747761  2.57615384
  10.27076321  8.17849550  3.43487158
  12.98626470 14.18951135  4.29358931
  10.27076807  1.30875111  0.00000059
   7.55526707  7.31976851  0.85871837
   4.83976703 13.33078640  1.71743563
   2.12426481  2.16747761  2.57615384
  15.70176425  8.17849550  3.43487158
   3.48201337  9.89593095  4.29358869
   0.76651674 14.18949998  0.00000000
  14.34401740  3.02618914  0.85871813
  11.62851591  9.03720908  1.71743516
   8.91301441 15.04822697  2.57615322
   6.19751487  3.88491306  3.43487063
   8.91301441  9.89593095  4.29358869
   6.19751681 14.18949998  0.00000000
   3.48201604  3.02618914  0.85871813
   0.76651553  9.03720908  1.71743516
  14.34401546 15.04822697  2.57615322
  11.62851591  3.88491306  3.43487063
  14.34401448  9.89593095  4.29358869
  11.62851687 14.18949998  0.00000000
   8.91301636  3.02618914  0.85871813
   6.19751535  9.03720908  1.71743516
   3.48201361 15.04822697  2.57615322
   0.76651371  3.88491306  3.43487063
   2.12426360  5.60234851  4.29358931
  15.70176717  9.89591754  0.00000024
  12.98626666 15.90693543  0.85871782
  10.27076613  4.74362253  1.71743516
   7.55526464 10.75464249  2.57615384
   4.83976509 16.76566038  3.43487063
   7.55526464  5.60234851  4.29358931
   4.83976703  9.89591754  0.00000024
   2.12426603 15.90693543  0.85871782
  15.70176717  4.74362253  1.71743516
  12.98626470 10.75464249  2.57615384
  10.27076517 16.76566038  3.43487063
  12.98626470  5.60234851  4.29358931
  10.27076807  9.89591754  0.00000024
   7.55526658 15.90693543  0.85871782
   4.83976656  4.74362253  1.71743516
   2.12426481 10.75464249  2.57615384
  15.70176621 16.76566038  3.43487063
   3.48201337  1.30876607  4.29358837
   0.76651674  5.60233355  0.00000059
  14.34401740 11.61335095  0.85871789
  11.62851687  0.45004009  1.71743531
   8.91301441  6.46106005  2.57615322
   6.19751292 12.47207998  3.43487063
   8.91301441  1.30876607  4.29358837
   6.19751730  5.60233355  0.00000059
   3.48201653 11.61335095  0.85871789
   0.76651607  0.45004009  1.71743531
  14.34401546  6.46106005  2.57615322
  11.62851396 12.47207998  3.43487063
  14.34401546  1.30876607  4.29358837
  11.62851785  5.60233355  0.00000059
   8.91301732 11.61335095  0.85871789
   6.19751681  0.45004009  1.71743531
   3.48201459  6.46106005  2.57615322
   0.76651304 12.47207998  3.43487063
  15.68397689 16.93470824  5.78012187
   9.57410145 10.25580213  6.44690112
   3.46422650  3.57689601  7.11368099
  13.64735174 14.07231659  7.78046088
   7.53747679  7.39341150  8.44724013
   1.42759939  0.71450129  9.11401938
   7.53747483 16.93470824  5.78012187
   1.42759988 10.25580110  6.44690112
  11.61072659  3.57689500  7.11368099
   5.50084969 14.07231659  7.78046024
  15.68397689  7.39340945  8.44724013
   9.57410145  0.71450537  9.11402064
   1.42760001 12.64112479  5.78012187
  11.61072659  5.96221815  6.44690112
   5.50085164 16.45764129  7.11368099
  15.68397689  9.77873415  7.78046024
   9.57409951  3.09982598  8.44723949
   3.46422454 13.59525168  9.11401938
   9.57409951 12.64112479  5.78012187
   3.46422479  5.96221815  6.44690112
  13.64735174 16.45764129  7.11368099
   7.53747483  9.77873516  7.78046024
   1.42760037  3.09982701  8.44724013
  11.61072466 13.59525168  9.11401938
   5.50085067 12.64112479  5.78012187
  15.68397689  5.96221815  6.44690112
   9.57410145 16.45764129  7.11368099
   3.46422650  9.77873415  7.78046024
  13.64735174  3.09982701  8.44723949
   7.53747679 13.59524963  9.11401938
  13.64734980 12.64112376  5.78012187
   7.53747532  5.96221815  6.44690112
   1.42760086 16.45764129  7.11368099
  11.61072659  9.77873415  7.78046024
   5.50084969  3.09982701  8.44723949
  15.68397689 13.59525168  9.11401938
   3.46422503 16.93470824  5.78012187
  13.64734980 10.25580110  6.44690112
   7.53747679  3.57689601  7.11368099
   1.42760037 14.07231659  7.78046088
  11.61072659  7.39341150  8.44723887
   5.50084969  0.71450129  9.11401938
  11.61072466 16.93470824  5.78012249
   5.50085067 10.25580110  6.44690112
  15.68397689  3.57689601  7.11368099
   9.57410145 14.07231659  7.78046088
   3.46422454  7.39340945  8.44723887
  13.64735174  0.71450537  9.11401938
 


--------------------------------------------------------------------------------------------------------


 k-point     1 :   0.0000 0.0000 0.0000  plane waves:  124581
 k-point     2 :   0.5000 0.0000 0.0000  plane waves:  124802
 k-point     3 :   0.0000 0.5000-0.0000  plane waves:  124638
 k-point     4 :   0.5000 0.5000-0.0000  plane waves:  124728
 k-point     5 :   0.0000 0.0000 0.3333  plane waves:  124674
 k-point     6 :   0.5000 0.0000 0.3333  plane waves:  124716
 k-point     7 :   0.0000 0.5000 0.3333  plane waves:  124766
 k-point     8 :   0.5000 0.5000 0.3333  plane waves:  124772

 maximum and minimum number of plane-waves per node :      7845     7751

 maximum number of plane-waves:    124802
 maximum index in each direction: 
   IXMAX=   35   IYMAX=   37   IZMAX=   22
   IXMIN=  -35   IYMIN=  -37   IZMIN=  -23


 real space projection operators:
  total allocation   :      17429.84 KBytes
  max/ min on nodes  :       1171.82        940.49


 parallel 3D FFT for wavefunctions:
    minimum data exchange during FFTs selected (reduces bandwidth)
 parallel 3D FFT for charge:
    minimum data exchange during FFTs selected (reduces bandwidth)


 total amount of memory used by VASP MPI-rank0   214211. kBytes
=======================================================================

   base      :      30000. kBytes
   nonlr-proj:       6126. kBytes
   fftplans  :      17779. kBytes
   grid      :      14565. kBytes
   one-center:        129. kBytes
   wavefun   :     145612. kBytes
 
     INWAV:  cpu time      0.0000: real time      0.0003
 Broyden mixing: mesh for mixing (old mesh)
   NGX = 71   NGY = 75   NGZ = 45
  (NGX  =216   NGY  =224   NGZ  =140)
  gives a total of 239625 points

 initial charge density was supplied:
 charge density of overlapping atoms calculated
 number of electron     480.0000000 magnetization       1.0000000
 keeping initial charge density in first step


--------------------------------------------------------------------------------------------------------


 Maximum index for non-local projection operator          206
 Maximum index for augmentation-charges         2924 (set IRDMAX)


--------------------------------------------------------------------------------------------------------


 First call to EWALD:  gamma=   0.123
 Maximum number of real-space cells 2x 2x 4
 Maximum number of reciprocal cells 3x 3x 2

    FEWALD:  cpu time      0.0032: real time      0.0032


--------------------------------------- Ionic step        1  -------------------------------------------




--------------------------------------- Iteration      1(   1)  ---------------------------------------


    POTLOK:  cpu time      0.2302: real time      0.2323
    SETDIJ:  cpu time      1.0687: real time      1.0751
     EDDAV:  cpu time     26.6401: real time     26.9107
       DOS:  cpu time      0.0019: real time      0.0019
    --------------------------------------------
      LOOP:  cpu time     27.9410: real time     28.2202

 eigenvalue-minimisations  :  9216
 total energy-change (2. order) : 0.1996587E+04  (-0.2082261E+05)
 number of electron     480.0000000 magnetization       1.0000000
 augmentation part      480.0000000 magnetization       1.0000000

 Free energy of the ion-electron system (eV)
  ---------------------------------------------------
  alpha Z        PSCENC =       469.20061996
  Ewald energy   TEWEN  =    -11957.42957734
  -Hartree energ DENC   =     -1509.97730229
  -exchange      EXHF   =         0.00000000
  -V(xc)+E(xc)   XCENC  =     -1055.83722419
  PAW double counting   =     10575.88222728    -8613.76247617
  entropy T*S    EENTRO =        -0.00190176
  eigenvalues    EBANDS =      1627.91191081
  atomic energy  EATOM  =     12460.60057749
  Solvation  Ediel_sol  =         0.00000000
  ---------------------------------------------------
  free energy    TOTEN  =      1996.58685379 eV

  energy without entropy =     1996.58875555  energy(sigma->0) =     1996.58780467


--------------------------------------------------------------------------------------------------------




--------------------------------------- Iteration      1(   2)  ---------------------------------------


     EDDAV:  cpu time     29.7709: real time     30.0637
       DOS:  cpu time      0.0022: real time      0.0022
    --------------------------------------------
      LOOP:  cpu time     29.7731: real time     30.0659

 eigenvalue-minimisations  : 10744
 total energy-change (2. order) :-0.2299856E+04  (-0.2225823E+04)
 number of electron     480.0000000 magnetization       1.0000000
 augmentation part      480.0000000 magnetization       1.0000000

 Free energy of the ion-electron system (eV)
  ---------------------------------------------------
  alpha Z        PSCENC =       469.20061996
  Ewald energy   TEWEN  =    -11957.42957734
  -Hartree energ DENC   =     -1509.97730229
  -exchange      EXHF   =         0.00000000
  -V(xc)+E(xc)   XCENC  =     -1055.83722419
  PAW double counting   =     10575.88222728    -8613.76247617
  entropy T*S    EENTRO =        -0.00299634
  eigenvalues    EBANDS =      -671.94336990
  atomic energy  EATOM  =     12460.60057749
  Solvation  Ediel_sol  =         0.00000000
  ---------------------------------------------------
  free energy    TOTEN  =      -303.26952150 eV

  energy without entropy =     -303.26652516  energy(sigma->0) =     -303.26802333


--------------------------------------------------------------------------------------------------------




--------------------------------------- Iteration      1(   3)  ---------------------------------------


     EDDAV:  cpu time     31.8045: real time     32.1175
       DOS:  cpu time      0.0017: real time      0.0017
    --------------------------------------------
      LOOP:  cpu time     31.8063: real time     32.1192

 eigenvalue-minimisations  : 11648
 total energy-change (2. order) :-0.2205317E+03  (-0.2109801E+03)
 number of electron     480.0000000 magnetization       1.0000000
 augmentation part      480.0000000 magnetization       1.0000000

 Free energy of the ion-electron system (eV)
  ---------------------------------------------------
  alpha Z        PSCENC =       469.20061996
  Ewald energy   TEWEN  =    -11957.42957734
  -Hartree energ DENC   =     -1509.97730229
  -exchange      EXHF   =         0.00000000
  -V(xc)+E(xc)   XCENC  =     -1055.83722419
  PAW double counting   =     10575.88222728    -8613.76247617
  entropy T*S    EENTRO =        -0.00338311
  eigenvalues    EBANDS =      -892.47468284
  atomic energy  EATOM  =     12460.60057749
  Solvation  Ediel_sol  =         0.00000000
  ---------------------------------------------------
  free energy    TOTEN  =      -523.80122121 eV

  energy without entropy =     -523.79783810  energy(sigma->0) =     -523.79952965


--------------------------------------------------------------------------------------------------------




--------------------------------------- Iteration      1(   4)  ---------------------------------------


     EDDAV:  cpu time     30.5705: real time     30.8724
       DOS:  cpu time      0.0017: real time      0.0017
    --------------------------------------------
      LOOP:  cpu time     30.5722: real time     30.8742

 eigenvalue-minimisations  : 11064
 total energy-change (2. order) :-0.9419306E+01  (-0.9137837E+01)
 number of electron     480.0000000 magnetization       1.0000000
 augmentation part      480.0000000 magnetization       1.0000000

 Free energy of the ion-electron system (eV)
  ---------------------------------------------------
  alpha Z        PSCENC =       469.20061996
  Ewald energy   TEWEN  =    -11957.42957734
  -Hartree energ DENC   =     -1509.97730229
  -exchange      EXHF   =         0.00000000
  -V(xc)+E(xc)   XCENC  =     -1055.83722419
  PAW double counting   =     10575.88222728    -8613.76247617
  entropy T*S    EENTRO =        -0.00291502
  eigenvalues    EBANDS =      -901.89445728
  atomic energy  EATOM  =     12460.60057749
  Solvation  Ediel_sol  =         0.00000000
  ---------------------------------------------------
  free energy    TOTEN  =      -533.22052756 eV

  energy without entropy =     -533.21761254  energy(sigma->0) =     -533.21907005


--------------------------------------------------------------------------------------------------------




--------------------------------------- Iteration      1(   5)  ---------------------------------------


     EDDAV:  cpu time     34.2641: real time     34.6139
       DOS:  cpu time      0.0017: real time      0.0017
    CHARGE:  cpu time      1.2833: real time      1.2980
    MIXING:  cpu time      0.0067: real time      0.0068
    --------------------------------------------
      LOOP:  cpu time     35.5560: real time     35.9205

 eigenvalue-minimisations  : 12768
 total energy-change (2. order) :-0.3988661E+00  (-0.3947435E+00)
 number of electron     479.9999998 magnetization       1.0000000
 augmentation part      -49.7111245 magnetization      -0.0575102

 Broyden mixing:
  rms(total) = 0.30218E+01    rms(broyden)= 0.30218E+01
  rms(prec ) = 0.33579E+01
  weight for this iteration     100.00

 Free energy of the ion-electron system (eV)
  ---------------------------------------------------
  alpha Z        PSCENC =       469.20061996
  Ewald energy   TEWEN  =    -11957.42957734
  -Hartree energ DENC   =     -1509.97730229
  -exchange      EXHF   =         0.00000000
  -V(xc)+E(xc)   XCENC  =     -1055.83722419
  PAW double counting   =     10575.88222728    -8613.76247617
  entropy T*S    EENTRO =        -0.00287526
  eigenvalues    EBANDS =      -902.29336318
  atomic energy  EATOM  =     12460.60057749
  Solvation  Ediel_sol  =         0.00000000
  ---------------------------------------------------
  free energy    TOTEN  =      -533.61939369 eV

  energy without entropy =     -533.61651844  energy(sigma->0) =     -533.61795607


--------------------------------------------------------------------------------------------------------




--------------------------------------- Iteration      1(   6)  ---------------------------------------


    POTLOK:  cpu time      0.2127: real time      0.2152
    SETDIJ:  cpu time      1.0640: real time      1.0692
     EDDAV:  cpu time     30.6853: real time     30.9904
       DOS:  cpu time      0.0018: real time      0.0018
    CHARGE:  cpu time      1.3095: real time      1.3208
    MIXING:  cpu time      0.0067: real time      0.0068
    --------------------------------------------
      LOOP:  cpu time     33.2800: real time     33.6042

 eigenvalue-minimisations  : 11112
 total energy-change (2. order) : 0.1168101E+02  (-0.5009808E+01)
 number of electron     479.9999998 magnetization       1.0000000
 augmentation part      -49.6363275 magnetization      -0.0482099

 Broyden mixing:
  rms(total) = 0.13710E+01    rms(broyden)= 0.13710E+01
  rms(prec ) = 0.18317E+01
  weight for this iteration     100.00

 eigenvalues of (default mixing * dielectric matrix)
  average eigenvalue GAMMA=   1.4426
  1.4426

 Free energy of the ion-electron system (eV)
  ---------------------------------------------------
  alpha Z        PSCENC =       469.20061996
  Ewald energy   TEWEN  =    -11957.42957734
  -Hartree energ DENC   =     -1660.77051809
  -exchange      EXHF   =         0.00000000
  -V(xc)+E(xc)   XCENC  =     -1039.07888376
  PAW double counting   =     20934.17789365   -18979.93791822
  entropy T*S    EENTRO =        -0.00398317
  eigenvalues    EBANDS =      -748.69659572
  atomic energy  EATOM  =     12460.60057749
  Solvation  Ediel_sol  =         0.00000000
  ---------------------------------------------------
  free energy    TOTEN  =      -521.93838520 eV

  energy without entropy =     -521.93440203  energy(sigma->0) =     -521.93639362


--------------------------------------------------------------------------------------------------------




--------------------------------------- Iteration      1(   7)  ---------------------------------------


    POTLOK:  cpu time      0.2147: real time      0.2176
    SETDIJ:  cpu time      1.0676: real time      1.0728
     EDDAV:  cpu time     32.9311: real time     33.2600
       DOS:  cpu time      0.0017: real time      0.0017
    CHARGE:  cpu time      1.3014: real time      1.3107
    MIXING:  cpu time      0.0074: real time      0.0075
    --------------------------------------------
      LOOP:  cpu time     35.5239: real time     35.8703

 eigenvalue-minimisations  : 12192
 total energy-change (2. order) :-0.1183305E+01  (-0.3542069E+01)
 number of electron     479.9999998 magnetization       1.0000000
 augmentation part      -49.4205028 magnetization      -0.0528867

 Broyden mixing:
  rms(total) = 0.10564E+01    rms(broyden)= 0.10564E+01
  rms(prec ) = 0.18674E+01
  weight for this iteration     100.00

 eigenvalues of (default mixing * dielectric matrix)
  average eigenvalue GAMMA=   1.0640
  1.7087  0.4193

 Free energy of the ion-electron system (eV)
  ---------------------------------------------------
  alpha Z        PSCENC =       469.20061996
  Ewald energy   TEWEN  =    -11957.42957734
  -Hartree energ DENC   =     -1670.57635682
  -exchange      EXHF   =         0.00000000
  -V(xc)+E(xc)   XCENC  =     -1033.28107392
  PAW double counting   =     26696.82459870   -24745.10230138
  entropy T*S    EENTRO =        -0.00168414
  eigenvalues    EBANDS =      -743.35649325
  atomic energy  EATOM  =     12460.60057749
  Solvation  Ediel_sol  =         0.00000000
  ---------------------------------------------------
  free energy    TOTEN  =      -523.12169069 eV

  energy without entropy =     -523.12000655  energy(sigma->0) =     -523.12084862


--------------------------------------------------------------------------------------------------------




--------------------------------------- Iteration      1(   8)  ---------------------------------------


    POTLOK:  cpu time      0.2137: real time      0.2156
    SETDIJ:  cpu time      1.0640: real time      1.0692
     EDDAV:  cpu time     33.6206: real time     33.9552
       DOS:  cpu time      0.0018: real time      0.0018
    CHARGE:  cpu time      1.3054: real time      1.3147
    MIXING:  cpu time      0.0076: real time      0.0077
    --------------------------------------------
      LOOP:  cpu time     36.2131: real time     36.5643

 eigenvalue-minimisations  : 12456
 total energy-change (2. order) : 0.2758504E+01  (-0.1280696E+01)
 number of electron     479.9999998 magnetization       1.0000000
 augmentation part      -49.2708938 magnetization      -0.0523510

 Broyden mixing:
  rms(total) = 0.46173E+00    rms(broyden)= 0.46173E+00
  rms(prec ) = 0.70383E+00
  weight for this iteration     100.00

 eigenvalues of (default mixing * dielectric matrix)
  average eigenvalue GAMMA=   0.9394
  1.8045  0.5246  0.4891

 Free energy of the ion-electron system (eV)
  ---------------------------------------------------
  alpha Z        PSCENC =       469.20061996
  Ewald energy   TEWEN  =    -11957.42957734
  -Hartree energ DENC   =     -1702.18166482
  -exchange      EXHF   =         0.00000000
  -V(xc)+E(xc)   XCENC  =     -1029.22200099
  PAW double counting   =     32073.12613506   -30123.23494276
  entropy T*S    EENTRO =        -0.00379287
  eigenvalues    EBANDS =      -711.21854089
  atomic energy  EATOM  =     12460.60057749
  Solvation  Ediel_sol  =         0.00000000
  ---------------------------------------------------
  free energy    TOTEN  =      -520.36318717 eV

  energy without entropy =     -520.35939430  energy(sigma->0) =     -520.36129073


--------------------------------------------------------------------------------------------------------




--------------------------------------- Iteration      1(   9)  ---------------------------------------


    POTLOK:  cpu time      0.2132: real time      0.2148
    SETDIJ:  cpu time      1.0624: real time      1.0677
     EDDAV:  cpu time     31.5266: real time     31.8388
       DOS:  cpu time      0.0018: real time      0.0018
    CHARGE:  cpu time      1.3034: real time      1.3127
    MIXING:  cpu time      0.0078: real time      0.0079
    --------------------------------------------
      LOOP:  cpu time     34.1151: real time     34.4437

 eigenvalue-minimisations  : 11536
 total energy-change (2. order) : 0.4930663E+00  (-0.3283429E+00)
 number of electron     479.9999998 magnetization       1.0000000
 augmentation part      -49.3322816 magnetization      -0.0531660

 Broyden mixing:
  rms(total) = 0.18682E+00    rms(broyden)= 0.18682E+00
  rms(prec ) = 0.25804E+00
  weight for this iteration     100.00

 eigenvalues of (default mixing * dielectric matrix)
  average eigenvalue GAMMA=   0.9295
  1.7492  0.9705  0.6468  0.3517

 Free energy of the ion-electron system (eV)
  ---------------------------------------------------
  alpha Z        PSCENC =       469.20061996
  Ewald energy   TEWEN  =    -11957.42957734
  -Hartree energ DENC   =     -1707.32329404
  -exchange      EXHF   =         0.00000000
  -V(xc)+E(xc)   XCENC  =     -1027.91474449
  PAW double counting   =     34558.73942326   -32609.47278204
  entropy T*S    EENTRO =        -0.00359295
  eigenvalues    EBANDS =      -706.26675071
  atomic energy  EATOM  =     12460.60057749
  Solvation  Ediel_sol  =         0.00000000
  ---------------------------------------------------
  free energy    TOTEN  =      -519.87012086 eV

  energy without entropy =     -519.86652791  energy(sigma->0) =     -519.86832438


--------------------------------------------------------------------------------------------------------




--------------------------------------- Iteration      1(  10)  ---------------------------------------


    POTLOK:  cpu time      0.2117: real time      0.2141
    SETDIJ:  cpu time      1.0544: real time      1.0598
     EDDAV:  cpu time     30.0497: real time     30.3463
       DOS:  cpu time      0.0018: real time      0.0018
    CHARGE:  cpu time      1.3281: real time      1.3375
    MIXING:  cpu time      0.0079: real time      0.0080
    --------------------------------------------
      LOOP:  cpu time     32.6536: real time     32.9675

 eigenvalue-minimisations  : 10864
 total energy-change (2. order) : 0.2652873E-02  (-0.8545260E-01)
 number of electron     479.9999998 magnetization       1.0000000
 augmentation part      -49.4244338 magnetization      -0.0546495

 Broyden mixing:
  rms(total) = 0.12612E+00    rms(broyden)= 0.12612E+00
  rms(prec ) = 0.19308E+00
  weight for this iteration     100.00

 eigenvalues of (default mixing * dielectric matrix)
  average eigenvalue GAMMA=   0.8959
  1.6399  1.2583  0.7509  0.4512  0.3789

 Free energy of the ion-electron system (eV)
  ---------------------------------------------------
  alpha Z        PSCENC =       469.20061996
  Ewald energy   TEWEN  =    -11957.42957734
  -Hartree energ DENC   =     -1703.69638903
  -exchange      EXHF   =         0.00000000
  -V(xc)+E(xc)   XCENC  =     -1028.19075656
  PAW double counting   =     34964.07190989   -33014.74602911
  entropy T*S    EENTRO =        -0.00343228
  eigenvalues    EBANDS =      -709.67439101
  atomic energy  EATOM  =     12460.60057749
  Solvation  Ediel_sol  =         0.00000000
  ---------------------------------------------------
  free energy    TOTEN  =      -519.86746799 eV

  energy without entropy =     -519.86403571  energy(sigma->0) =     -519.86575185


--------------------------------------------------------------------------------------------------------




--------------------------------------- Iteration      1(  11)  ---------------------------------------


    POTLOK:  cpu time      0.2125: real time      0.2140
    SETDIJ:  cpu time      1.0550: real time      1.0602
     EDDAV:  cpu time     30.5744: real time     30.8786
       DOS:  cpu time      0.0017: real time      0.0017
    CHARGE:  cpu time      1.3240: real time      1.3336
    MIXING:  cpu time      0.0088: real time      0.0089
    --------------------------------------------
      LOOP:  cpu time     33.1766: real time     33.4970

 eigenvalue-minimisations  : 11088
 total energy-change (2. order) : 0.2550591E-01  (-0.2329832E-01)
 number of electron     479.9999998 magnetization       1.0000000
 augmentation part      -49.4571248 magnetization      -0.0537290

 Broyden mixing:
  rms(total) = 0.73233E-01    rms(broyden)= 0.73233E-01
  rms(prec ) = 0.90256E-01
  weight for this iteration     100.00

 eigenvalues of (default mixing * dielectric matrix)
  average eigenvalue GAMMA=   0.9030
  1.5781  1.5781  0.9303  0.3642  0.4837  0.4837

 Free energy of the ion-electron system (eV)
  ---------------------------------------------------
  alpha Z        PSCENC =       469.20061996
  Ewald energy   TEWEN  =    -11957.42957734
  -Hartree energ DENC   =     -1700.61752594
  -exchange      EXHF   =         0.00000000
  -V(xc)+E(xc)   XCENC  =     -1028.49612730
  PAW double counting   =     35044.72263778   -33095.30563666
  entropy T*S    EENTRO =        -0.00358268
  eigenvalues    EBANDS =      -712.51334738
  atomic energy  EATOM  =     12460.60057749
  Solvation  Ediel_sol  =         0.00000000
  ---------------------------------------------------
  free energy    TOTEN  =      -519.84196207 eV

  energy without entropy =     -519.83837939  energy(sigma->0) =     -519.84017073


--------------------------------------------------------------------------------------------------------




--------------------------------------- Iteration      1(  12)  ---------------------------------------


    POTLOK:  cpu time      0.2118: real time      0.2140
    SETDIJ:  cpu time      1.0529: real time      1.0593
     EDDAV:  cpu time     29.4905: real time     29.8294
       DOS:  cpu time      0.0017: real time      0.0017
    CHARGE:  cpu time      1.3302: real time      1.3412
    MIXING:  cpu time      0.0082: real time      0.0082
    --------------------------------------------
      LOOP:  cpu time     32.0952: real time     32.4538

 eigenvalue-minimisations  : 10600
 total energy-change (2. order) : 0.3472609E-02  (-0.5238178E-02)
 number of electron     479.9999998 magnetization       1.0000000
 augmentation part      -49.4628020 magnetization      -0.0538659

 Broyden mixing:
  rms(total) = 0.39265E-01    rms(broyden)= 0.39265E-01
  rms(prec ) = 0.45866E-01
  weight for this iteration     100.00

 eigenvalues of (default mixing * dielectric matrix)
  average eigenvalue GAMMA=   0.9414
  1.6368  1.6368  1.2755  0.6466  0.6466  0.3866  0.3607

 Free energy of the ion-electron system (eV)
  ---------------------------------------------------
  alpha Z        PSCENC =       469.20061996
  Ewald energy   TEWEN  =    -11957.42957734
  -Hartree energ DENC   =     -1699.31630794
  -exchange      EXHF   =         0.00000000
  -V(xc)+E(xc)   XCENC  =     -1028.68451533
  PAW double counting   =     35121.99269827   -33172.53168761
  entropy T*S    EENTRO =        -0.00327097
  eigenvalues    EBANDS =      -713.66702600
  atomic energy  EATOM  =     12460.60057749
  Solvation  Ediel_sol  =         0.00000000
  ---------------------------------------------------
  free energy    TOTEN  =      -519.83848947 eV

  energy without entropy =     -519.83521850  energy(sigma->0) =     -519.83685398


--------------------------------------------------------------------------------------------------------




--------------------------------------- Iteration      1(  13)  ---------------------------------------


    POTLOK:  cpu time      0.2125: real time      0.2145
    SETDIJ:  cpu time      1.0512: real time      1.0575
     EDDAV:  cpu time     29.3565: real time     29.6916
       DOS:  cpu time      0.0018: real time      0.0018
    CHARGE:  cpu time      1.3301: real time      1.3408
    MIXING:  cpu time      0.0088: real time      0.0088
    --------------------------------------------
      LOOP:  cpu time     31.9608: real time     32.3150

 eigenvalue-minimisations  : 10512
 total energy-change (2. order) :-0.8046563E-04  (-0.1573972E-02)
 number of electron     479.9999998 magnetization       1.0000000
 augmentation part      -49.4628046 magnetization      -0.0537739

 Broyden mixing:
  rms(total) = 0.22420E-01    rms(broyden)= 0.22420E-01
  rms(prec ) = 0.28124E-01
  weight for this iteration     100.00

 eigenvalues of (default mixing * dielectric matrix)
  average eigenvalue GAMMA=   0.9526
  1.6892  1.6892  1.5437  0.7048  0.7048  0.5359  0.3980  0.3550

 Free energy of the ion-electron system (eV)
  ---------------------------------------------------
  alpha Z        PSCENC =       469.20061996
  Ewald energy   TEWEN  =    -11957.42957734
  -Hartree energ DENC   =     -1699.64155979
  -exchange      EXHF   =         0.00000000
  -V(xc)+E(xc)   XCENC  =     -1028.68608325
  PAW double counting   =     35155.47177068   -33206.02658143
  entropy T*S    EENTRO =        -0.00340876
  eigenvalues    EBANDS =      -713.32432749
  atomic energy  EATOM  =     12460.60057749
  Solvation  Ediel_sol  =         0.00000000
  ---------------------------------------------------
  free energy    TOTEN  =      -519.83856993 eV

  energy without entropy =     -519.83516117  energy(sigma->0) =     -519.83686555


--------------------------------------------------------------------------------------------------------




--------------------------------------- Iteration      1(  14)  ---------------------------------------


    POTLOK:  cpu time      0.2120: real time      0.2146
    SETDIJ:  cpu time      1.0538: real time      1.0608
     EDDAV:  cpu time     30.3398: real time     30.6861
       DOS:  cpu time      0.0018: real time      0.0018
    CHARGE:  cpu time      1.3298: real time      1.3407
    MIXING:  cpu time      0.0093: real time      0.0094
    --------------------------------------------
      LOOP:  cpu time     32.9465: real time     33.3134

 eigenvalue-minimisations  : 10944
 total energy-change (2. order) : 0.3358920E-03  (-0.4353679E-03)
 number of electron     479.9999998 magnetization       1.0000000
 augmentation part      -49.4628809 magnetization      -0.0537174

 Broyden mixing:
  rms(total) = 0.12115E-01    rms(broyden)= 0.12115E-01
  rms(prec ) = 0.15174E-01
[...]
   0.176E+02 0.189E+02 0.406E+02   -.153E+02 -.202E+02 -.385E+02   -.190E+01 0.174E+01 -.267E+01   0.143E-05 -.645E-06 0.879E-05
   0.535E+00 -.129E+02 -.160E+01   -.430E+00 0.126E+02 0.127E+01   -.230E+00 -.522E-01 0.683E+00   -.235E-04 -.408E-04 0.968E-05
   -.429E+00 -.158E+01 -.102E+02   0.124E+00 0.206E+01 0.965E+01   0.283E+00 -.488E-01 0.579E+00   -.106E-04 0.204E-05 0.435E-05
   0.172E+02 0.244E+02 -.248E+02   -.155E+02 -.230E+02 0.226E+02   -.233E+01 -.103E+01 0.284E+01   -.729E-05 0.273E-05 0.536E-05
   0.557E+01 -.500E+02 -.391E+02   -.611E+01 0.486E+02 0.386E+02   0.626E+00 0.172E+01 0.617E+00   0.363E-05 -.231E-04 -.166E-05
   0.285E+00 0.250E+01 0.469E+02   0.652E+00 -.326E+01 -.456E+02   -.358E+00 0.110E+01 -.210E+01   0.248E-04 0.299E-04 0.854E-05
   0.153E+02 0.185E+02 0.421E+02   -.139E+02 -.188E+02 -.410E+02   -.135E+01 0.344E+00 -.140E+01   0.182E-04 -.140E-04 0.525E-05
   -.188E+01 -.129E+02 -.655E+00   0.165E+01 0.126E+02 0.118E+01   0.462E+00 0.148E+00 -.226E+00   -.126E-04 -.324E-04 0.825E-05
   -.935E+00 -.199E+01 -.896E+01   0.607E+00 0.216E+01 0.907E+01   0.257E+00 -.588E-01 -.148E+00   -.195E-04 0.479E-04 0.186E-05
   0.225E+02 0.243E+02 -.137E+02   -.210E+02 -.232E+02 0.119E+02   -.194E+01 -.107E+01 0.154E+01   0.453E-05 0.345E-04 0.423E-05
   -.121E+02 -.182E+02 -.236E+02   0.121E+02 0.175E+02 0.231E+02   0.629E-01 0.856E+00 0.833E+00   -.136E-04 -.288E-04 -.132E-04
   -.857E+01 0.314E+02 -.245E+02   0.818E+01 -.310E+02 0.245E+02   0.290E+00 -.629E-01 0.876E+00   0.681E-05 0.143E-04 -.155E-04
   -.130E+01 -.129E+02 0.178E+02   0.128E+01 0.126E+02 -.181E+02   0.108E+00 0.148E+00 -.367E-01   -.269E-04 0.533E-05 0.750E-05
   -.441E+01 0.144E+02 -.166E+01   0.422E+01 -.142E+02 0.579E+00   0.128E+00 -.277E+00 0.998E+00   0.135E-04 -.881E-06 -.225E-04
   -.486E+01 0.986E+01 0.957E+00   0.483E+01 -.970E+01 0.173E+00   -.677E-01 -.391E+00 -.804E-01   0.422E-05 0.558E-04 0.642E-05
   -.122E+02 -.955E+01 0.141E+02   0.121E+02 0.948E+01 -.133E+02   0.420E-01 -.213E-01 0.404E+00   -.278E-04 -.245E-04 0.352E-05
   0.126E+02 -.212E+02 -.793E+01   -.121E+02 0.216E+02 0.657E+01   -.278E+00 -.806E+00 0.121E+00   -.634E-06 -.492E-04 0.177E-05
   0.566E+01 0.371E+02 -.874E+01   -.552E+01 -.376E+02 0.812E+01   0.529E+00 0.511E-01 -.105E+00   0.186E-04 0.132E-04 -.107E-04
   0.104E+01 -.959E+01 0.182E+02   -.128E+01 0.897E+01 -.188E+02   0.844E-01 0.223E+00 0.205E+00   0.371E-04 -.490E-06 -.942E-05
   0.449E+01 0.135E+02 0.931E+01   -.465E+01 -.140E+02 -.926E+01   0.994E-01 0.602E+00 -.359E+00   -.459E-05 -.281E-04 -.224E-04
   0.474E+01 0.139E+02 -.384E+01   -.483E+01 -.145E+02 0.389E+01   0.110E+00 0.267E-01 0.836E+00   -.507E-05 0.992E-05 -.772E-05
   0.219E+02 0.127E+02 0.422E+02   -.241E+02 -.147E+02 -.472E+02   -.529E+01 -.503E+01 -.112E+02   0.239E-04 -.497E-04 -.138E-04
   0.626E+01 0.244E+02 -.319E+02   -.595E+01 -.246E+02 0.320E+02   -.482E+00 -.734E+00 0.821E+00   0.486E-06 0.134E-04 -.179E-04
   0.997E+01 -.184E+02 -.151E+01   -.101E+02 0.185E+02 0.167E+01   0.627E+00 0.515E-01 -.109E+01   0.213E-04 0.361E-04 -.106E-04
   -.905E+00 -.132E+02 -.563E+00   0.101E+01 0.130E+02 0.306E+00   -.417E-01 0.690E+00 0.335E+00   -.646E-05 -.437E-04 -.120E-04
   -.101E+01 0.120E+02 -.106E+02   0.173E+01 -.122E+02 0.112E+02   -.371E+00 0.405E+00 0.709E+00   -.905E-05 0.233E-04 -.203E-04
   0.251E+01 -.430E+02 0.145E+02   -.282E+01 0.439E+02 -.147E+02   -.994E-01 -.323E+00 0.537E+00   0.237E-04 0.274E-05 -.990E-05
   0.605E+00 0.244E+02 0.557E+01   -.684E+00 -.250E+02 -.429E+01   0.799E-02 -.590E-02 0.100E+00   -.688E-05 -.138E-04 -.199E-06
   -.530E+01 0.879E+01 -.671E+01   0.494E+01 -.869E+01 0.607E+01   0.861E-01 0.338E+00 -.106E+01   0.927E-05 -.191E-04 -.689E-05
   -.947E+01 -.153E+02 -.417E+01   0.102E+02 0.157E+02 0.409E+01   -.983E+00 -.712E+00 -.990E+00   -.210E-04 0.328E-04 0.175E-05
   0.938E+00 -.135E+02 -.432E+01   -.970E+00 0.132E+02 0.469E+01   0.231E+00 -.964E-01 -.525E+00   0.110E-04 -.279E-04 -.835E-05
   0.124E+01 0.118E+02 -.206E+02   -.174E+01 -.113E+02 0.213E+02   0.255E+00 -.370E-01 -.417E+00   0.650E-05 0.238E-04 -.308E-05
   -.259E+01 -.356E+02 0.473E+01   0.274E+01 0.356E+02 -.512E+01   0.769E-01 0.662E+00 0.995E+00   -.186E-04 -.887E-05 -.301E-05
   -.378E+00 0.506E+02 0.497E+02   0.149E+00 -.554E+02 -.621E+02   -.197E+00 -.752E+01 -.187E+02   0.113E-04 -.135E-04 -.156E-04
   0.114E+02 0.108E+02 -.170E+02   -.119E+02 -.112E+02 0.170E+02   0.154E+00 -.546E-01 -.668E+00   -.835E-05 -.160E-04 0.177E-07
   0.364E+00 -.137E+02 0.634E+01   -.370E+00 0.142E+02 -.670E+01   -.159E+00 -.486E+00 -.601E+00   -.662E-05 0.321E-05 -.904E-05
   -.853E+00 -.105E+02 -.488E+01   0.796E+00 0.105E+02 0.439E+01   0.845E-01 0.119E+00 0.101E+01   0.187E-04 -.427E-04 -.814E-05
   0.457E+01 0.120E+02 -.193E+02   -.440E+01 -.123E+02 0.190E+02   0.369E+00 0.415E+00 0.898E+00   0.994E-05 0.137E-04 -.981E-05
   0.408E+01 -.383E+02 0.755E+01   -.410E+01 0.388E+02 -.744E+01   -.136E+00 0.143E+00 0.754E+00   0.163E-04 -.177E-04 0.259E-06
   -.219E+02 0.384E+02 0.196E+02   0.222E+02 -.387E+02 -.193E+02   0.253E+01 -.176E+01 -.279E+01   0.131E-04 -.325E-04 -.111E-04
   -.127E+02 0.230E+02 -.214E+02   0.129E+02 -.223E+02 0.211E+02   0.636E+00 -.132E+01 0.125E+01   -.320E-05 0.133E-04 0.313E-05
   -.656E+00 -.212E+02 -.180E+02   0.258E+00 0.208E+02 0.183E+02   0.355E+00 0.537E+00 0.152E+01   0.538E-05 0.571E-04 0.113E-04
   0.113E+01 -.156E+02 -.415E+00   -.840E+00 0.156E+02 0.602E+00   -.245E+00 0.828E-01 -.222E+00   -.237E-04 -.263E-04 -.164E-04
   -.443E+01 0.116E+02 -.135E+02   0.442E+01 -.113E+02 0.148E+02   -.560E+00 -.777E-02 -.925E-01   -.792E-05 0.194E-04 -.957E-06
   -.417E+01 -.393E+02 0.117E+02   0.419E+01 0.407E+02 -.123E+02   0.308E-01 -.451E+00 0.727E+00   -.220E-04 0.836E-05 -.753E-06
   0.216E+02 0.317E+02 0.224E+02   -.217E+02 -.321E+02 -.218E+02   -.208E+01 -.855E+00 -.248E+01   -.138E-04 0.181E-04 -.415E-05
   0.476E+01 -.681E+01 -.261E+02   -.529E+01 0.710E+01 0.256E+02   0.161E+00 -.227E+01 0.222E+01   -.309E-04 -.465E-04 -.494E-05
   0.908E+01 0.327E+02 -.258E+02   -.922E+01 -.332E+02 0.253E+02   -.900E-01 0.583E+00 0.935E+00   -.187E-04 0.276E-04 -.410E-05
   0.100E+00 -.946E+01 0.153E+02   0.712E-01 0.889E+01 -.156E+02   -.188E+00 0.209E+00 -.995E-01   -.366E-05 -.186E-05 0.151E-04
   -.241E+01 0.145E+02 0.682E+01   0.194E+01 -.148E+02 -.664E+01   0.949E-01 0.339E+00 -.403E+00   -.165E-04 -.174E-05 -.114E-04
   0.106E+01 0.764E+01 0.351E+01   -.116E+01 -.805E+01 -.305E+01   0.909E-01 -.245E+00 0.338E+00   0.313E-05 0.442E-04 -.552E-05
   -.198E+02 0.818E+01 0.460E+02   0.222E+02 -.110E+02 -.512E+02   0.514E+01 -.448E+01 -.120E+02   -.148E-04 -.319E-04 -.128E-04
   -.540E+01 -.258E+02 -.529E+01   0.524E+01 0.266E+02 0.459E+01   -.250E-01 -.863E+00 -.638E+00   0.439E-04 -.332E-04 -.116E-05
   -.652E+01 0.358E+02 -.700E+01   0.656E+01 -.355E+02 0.700E+01   -.475E+00 -.245E+00 -.457E+00   -.942E-05 0.188E-04 -.119E-04
   0.284E+00 -.128E+02 0.210E+02   -.695E-01 0.125E+02 -.213E+02   -.211E+00 -.816E-01 -.958E-01   -.648E-05 -.124E-04 -.731E-05
   0.205E+01 0.135E+02 0.951E+00   -.151E+01 -.134E+02 -.209E+01   -.159E+00 -.978E-01 0.129E+01   0.710E-05 -.295E-04 -.162E-04
   -.944E+00 0.149E+02 -.605E+01   0.115E+01 -.151E+02 0.707E+01   -.138E+00 0.224E+00 0.249E+00   0.233E-09 0.363E-04 0.481E-06
   0.102E+02 -.487E+01 0.108E+02   -.101E+02 0.544E+01 -.104E+02   0.257E+00 -.128E+01 0.951E+00   0.169E-04 -.352E-04 0.537E-05
 -----------------------------------------------------------------------------------------------
   -.575E+01 -.170E+02 -.197E+02   -.178E-13 0.604E-13 -.597E-12   0.557E+01 0.171E+02 0.196E+02   0.192E-05 -.107E-03 0.861E-04
 
 
 POSITION                                       TOTAL-FORCE (eV/Angst)
 -----------------------------------------------------------------------------------
      2.12426     14.18951      4.29359         0.607794      1.358237     -0.911150
     15.70177      1.30875      0.00000        -0.078425     -0.616699     -0.664684
     12.98627      7.31977      0.85872         0.144092     -0.053999     -0.206188
     10.27077     13.33079      1.71744        -0.375277      0.075740      0.044225
      7.55526      2.16748      2.57615        -0.126602      0.112310     -0.029394
      4.83976      8.17850      3.43487        -0.005600     -0.224940      0.124882
      7.55526     14.18951      4.29359         0.630933      0.188312      0.960212
      4.83977      1.30875      0.00000        -7.729498      6.680102     16.961985
      2.12427      7.31977      0.85872         0.406834     -0.065804     -0.534910
     15.70177     13.33079      1.71744        -0.101917     -0.383021      0.397718
     12.98626      2.16748      2.57615        -0.153636      0.273346     -0.043493
     10.27076      8.17850      3.43487         0.052781     -0.085397      0.014224
     12.98626     14.18951      4.29359        -0.949890      1.092637     -0.960135
     10.27077      1.30875      0.00000         7.622356      6.370108     16.482079
      7.55527      7.31977      0.85872         0.189740     -0.053940     -0.518258
      4.83977     13.33079      1.71744        -0.229938     -0.343211      0.057380
      2.12426      2.16748      2.57615        -0.051134      0.070291      0.159182
     15.70176      8.17850      3.43487         0.258583     -0.156181      0.272635
      3.48201      9.89593      4.29359         0.265564     -0.024890      0.898943
      0.76652     14.18950      0.00000         1.766525      0.985782      2.771750
     14.34402      3.02619      0.85872        -0.022166      0.464968     -0.721257
     11.62852      9.03721      1.71744        -0.018968     -0.237343     -0.032635
      8.91301     15.04823      2.57615         0.301564     -0.138338     -0.058990
      6.19751      3.88491      3.43487        -0.216791     -0.164355      0.257174
      8.91301      9.89593      4.29359         0.197290     -0.872745     -1.244908
      6.19752     14.18950      0.00000        -2.617919      1.651961      3.359580
      3.48202      3.02619      0.85872        -0.359055      0.402750     -0.308231
      0.76652      9.03721      1.71744         0.022277     -0.259298     -0.073468
     14.34402     15.04823      2.57615         0.335345      0.281098     -0.050780
     11.62852      3.88491      3.43487        -0.066939     -0.141272      0.240401
     14.34401      9.89593      4.29359         0.586761     -0.309039     -1.173906
     11.62852     14.18950      0.00000         0.534022     12.404456     31.523748
      8.91302      3.02619      0.85872         0.133727      0.557200     -0.650234
      6.19752      9.03721      1.71744         0.005903     -0.185822     -0.007204
      3.48201     15.04823      2.57615         0.408349      0.164480     -0.271727
      0.76651      3.88491      3.43487        -0.299424     -0.215415      0.221981
      2.12426      5.60235      4.29359        -0.140975      0.381602      0.538585
     15.70177      9.89592      0.00000        -0.565568      0.124936     -0.704924
     12.98627     15.90694      0.85872         0.246641      0.450367     -0.283392
     10.27077      4.74362      1.71744        -0.210915     -0.242381      0.232005
      7.55526     10.75464      2.57615        -0.000627      0.270854      0.158629
      4.83977     16.76566      3.43487         0.122487     -0.120919     -0.057412
      7.55526      5.60235      4.29359        -0.164929     -0.253680     -2.326278
      4.83977      9.89592      0.00000        -0.688265     -0.109536     -0.629435
      2.12427     15.90694      0.85872         0.010370      0.270762     -0.774013
     15.70177      4.74362      1.71744        -0.049897     -0.107112      0.135645
     12.98626     10.75464      2.57615        -0.022569      0.144190      0.060515
     10.27077     16.76566      3.43487         0.481926      0.266060      0.396742
     12.98626      5.60235      4.29359        -0.389888      0.083962      0.879925
     10.27077      9.89592      0.00000        -0.139045     -0.195168     -0.702465
      7.55527     15.90694      0.85872        -0.041491      0.234244     -0.044338
      4.83977      4.74362      1.71744        -0.223936     -0.220759      0.157846
      2.12426     10.75464      2.57615        -0.136264      0.368922     -0.085985
     15.70177     16.76566      3.43487        -0.278129     -0.291268     -0.641191
      3.48201      1.30877      4.29359         0.588020      2.355817     -1.973091
      0.76652      5.60233      0.00000         0.086369      0.024597     -0.898472
     14.34402     11.61335      0.85872         0.225247      0.125517     -0.236786
     11.62852      0.45004      1.71744         0.027806     -0.449792      0.271840
      8.91301      6.46106      2.57615         0.172068      0.264425      0.136231
      6.19751     12.47208      3.43487        -0.096752      0.472714     -0.034098
      8.91301      1.30877      4.29359        -0.355572      0.080184      0.600830
      6.19752      5.60233      0.00000         0.202073     -0.251261     -0.537760
      3.48202     11.61335      0.85872         0.370541      0.419481     -0.628629
      0.76652      0.45004      1.71744        -0.123471     -0.374879      0.351612
     14.34402      6.46106      2.57615        -0.020741      0.434598      0.028241
     11.62851     12.47208      3.43487        -0.649648      0.323803      0.692668
     14.34402      1.30877      4.29359         0.082820      0.347775      0.126692
     11.62852      5.60233      0.00000         0.580949      0.332478     -0.842941
      8.91302     11.61335      0.85872         0.105350      0.040546     -0.311862
      6.19752      0.45004      1.71744         0.226006     -0.172730      0.296047
      3.48201      6.46106      2.57615        -0.069101      0.108539     -0.028732
      0.76651     12.47208      3.43487        -0.438967      0.015493     -0.294446
     15.68398     16.93471      5.78012         0.082006      0.130834      0.368463
      9.57410     10.25580      6.44690        -0.101293      0.307081      0.832442
      3.46423      3.57690      7.11368         0.086779     -0.121324     -0.332181
     13.64735     14.07232      7.78046        -0.059827     -0.017687     -0.082373
      7.53748      7.39341      8.44724        -0.099295     -0.239886      1.050781
      1.42760      0.71450      9.11402        -0.079687     -0.096104      1.176300
      7.53747     16.93471      5.78012         0.312404     -0.353721     -1.241090
      1.42760     10.25580      6.44690         0.674094     -0.476055     -0.732840
     11.61073      3.57689      7.11368        -0.151535     -0.392105     -0.321136
      5.50085     14.07232      7.78046        -0.061776      0.094531     -0.305239
     15.68398      7.39341      8.44724         0.026947     -0.617535      0.880885
      9.57410      0.71451      9.11402        -7.532612     -6.967819    -16.287811
      1.42760     12.64112      5.78012        -0.172654     -0.963938      0.883675
     11.61073      5.96222      6.44690         0.473816      0.158283     -0.937065
      5.50085     16.45764      7.11368         0.068719      0.492677      0.078609
     15.68398      9.77873      7.78046         0.342557      0.184544      1.320705
      9.57410      3.09983      8.44724        -0.415264      0.525168      0.361264
      3.46422     13.59525      9.11402        -0.070155     -0.630691      1.378971
      9.57410     12.64112      5.78012        -0.268500      0.435809     -1.689069
      3.46422      5.96222      6.44690        -0.220471     -0.325603     -1.072627
     13.64735     16.45764      7.11368         0.200249     -0.380335     -0.162192
      7.53747      9.77874      7.78046        -0.242900      0.462425      0.269509
      1.42760      3.09983      8.44724         0.225859      0.641643      0.603519
     11.61072     13.59525      9.11402        -0.424834    -12.357893    -31.154883
      5.50085     12.64112      5.78012        -0.284464     -0.450493     -0.733072
     15.68398      5.96222      6.44690        -0.163071      0.094898     -0.961526
      9.57410     16.45764      7.11368         0.028682      0.083040      0.515477
      3.46423      9.77873      7.78046         0.540279      0.145720      0.611175
     13.64735      3.09983      8.44724        -0.155884      0.593074      0.864455
      7.53748     13.59525      9.11402         2.809021     -2.010862     -2.439928
     13.64735     12.64112      5.78012         0.768332     -0.685401      0.904072
      7.53748      5.96222      6.44690        -0.041678      0.117602      1.838572
      1.42760     16.45764      7.11368         0.047436      0.132710     -0.034057
     11.61073      9.77873      7.78046        -0.575123      0.284429      1.190236
      5.50085      3.09983      8.44724         0.043464      0.948917      0.038118
     15.68398     13.59525      9.11402        -2.169142     -1.169029     -1.925277
      3.46423     16.93471      5.78012        -0.368758     -1.981793      1.779195
     13.64735     10.25580      6.44690        -0.228463      0.113641      0.444007
      7.53748      3.57690      7.11368        -0.014649     -0.362595     -0.349045
      1.42760     14.07232      7.78046        -0.370675      0.078444     -0.231568
     11.61073      7.39341      8.44724        -0.008340     -0.648492      0.795199
      5.50085      0.71450      9.11402         7.547497     -7.319396    -17.111264
     11.61072     16.93471      5.78012        -0.181935     -0.066122     -1.342950
      5.50085     10.25580      6.44690        -0.434880      0.044617     -0.448745
     15.68398      3.57690      7.11368         0.004323     -0.391675     -0.384786
      9.57410     14.07232      7.78046         0.382119     -0.089808      0.147719
      3.46422      7.39341      8.44724         0.072783     -0.003000      1.265816
     13.64735      0.71451      9.11402         0.371315     -0.705176      1.367208
 -----------------------------------------------------------------------------------
    total drift:                               -0.174043      0.085077     -0.078806


--------------------------------------------------------------------------------------------------------



  FREE ENERGIE OF THE ION-ELECTRON SYSTEM (eV)
  ---------------------------------------------------
  free  energy   TOTEN  =      -519.83820975 eV

  energy  without entropy=     -519.83486571  energy(sigma->0) =     -519.83653773
 


--------------------------------------------------------------------------------------------------------


    POTLOK:  cpu time      1.2778: real time      1.2843


--------------------------------------------------------------------------------------------------------


     LOOP+:  cpu time    817.7377: real time    826.3989
    4ORBIT:  cpu time      0.0000: real time      0.0000

 total amount of memory used by VASP MPI-rank0   214211. kBytes
=======================================================================

   base      :      30000. kBytes
   nonlr-proj:       6126. kBytes
   fftplans  :      17779. kBytes
   grid      :      14565. kBytes
   one-center:        129. kBytes
   wavefun   :     145612. kBytes
 
  
  
 General timing and accounting informations for this job:
 ========================================================
  
                  Total CPU time used (sec):      886.503
                            User time (sec):      833.877
                          System time (sec):       52.626
                         Elapsed time (sec):      897.403
  
                   Maximum memory used (kb):      484792.
                   Average memory used (kb):          N/A
  
                          Minor page faults:       131072
                          Major page faults:           36
                 Voluntary context switches:         1981
