 264 264   0   0
  0.2741953E+02  0.1946760E-08  0.1946760E-08  0.1910025E-08  0.5000000E-15
  1.000000000000000E-004
  CAR 
 Si and Ge interface calculation         
      6.74969929     -8.81760829  301      4.14349288      1.00000000
     -8.818  0.0000E+00  0.0000E+00  0.0000E+00  0.0000E+00
     -8.766  0.0000E+00  0.0000E+00  0.0000E+00  0.0000E+00
     -8.714  0.0000E+00  0.0000E+00  0.0000E+00  0.0000E+00
     -8.662  0.0000E+00  0.0000E+00  0.0000E+00  0.0000E+00
     -8.610  0.0000E+00  0.0000E+00  0.0000E+00  0.0000E+00
     -8.558  0.0000E+00  0.0000E+00  0.0000E+00  0.0000E+00
     -8.506  0.0000E+00  0.0000E+00  0.0000E+00  0.0000E+00
     -8.454  0.0000E+00  0.0000E+00  0.0000E+00  0.0000E+00
     -8.402  0.0000E+00  0.0000E+00  0.0000E+00  0.0000E+00
     -8.351  0.0000E+00  0.0000E+00  0.0000E+00  0.0000E+00
     -8.299  0.0000E+00  0.0000E+00  0.0000E+00  0.0000E+00
     -8.247  0.0000E+00  0.0000E+00  0.0000E+00  0.0000E+00
     -8.195  0.0000E+00  0.0000E+00  0.0000E+00  0.0000E+00
     -8.143  0.1415E-04  0.3337E-05  0.7341E-06  0.1732E-06
     -8.091  0.9600E+01  0.9551E+01  0.4981E+00  0.4956E+00
     -8.039  0.1929E+02  0.1926E+02  0.1499E+01  0.1495E+01
     -7.987  0.1724E+02  0.1641E+02  0.2394E+01  0.2346E+01
     -7.935  0.1960E+02  0.1970E+02  0.3411E+01  0.3369E+01
     -7.884  0.1107E+02  0.1161E+02  0.3985E+01  0.3971E+01
     -7.832  0.1008E+02  0.1026E+02  0.4508E+01  0.4504E+01
     -7.780  0.1911E+02  0.1918E+02  0.5500E+01  0.5499E+01
     -7.728  0.4567E+02  0.4384E+02  0.7869E+01  0.7774E+01
     -7.676  0.1216E+02  0.1399E+02  0.8500E+01  0.8500E+01
     -7.624  0.2452E+02  0.2349E+02  0.9773E+01  0.9719E+01
     -7.572  0.1400E+02  0.1500E+02  0.1050E+02  0.1050E+02
     -7.520  0.8497E-01  0.7432E-01  0.1050E+02  0.1050E+02
     -7.468  0.1923E+02  0.1925E+02  0.1150E+02  0.1150E+02
     -7.417  0.2434E+02  0.2303E+02  0.1276E+02  0.1270E+02
     -7.365  0.3365E+02  0.3279E+02  0.1451E+02  0.1440E+02
     -7.313  0.1225E+02  0.1361E+02  0.1515E+02  0.1510E+02
     -7.261  0.2833E+02  0.2826E+02  0.1662E+02  0.1657E+02
     -7.209  0.4622E+02  0.4603E+02  0.1901E+02  0.1896E+02
     -7.157  0.2118E+02  0.2039E+02  0.2011E+02  0.2002E+02
     -7.105  0.2748E+02  0.2903E+02  0.2154E+02  0.2152E+02
     -7.053  0.3105E+02  0.2792E+02  0.2315E+02  0.2297E+02
     -7.001  0.4539E+02  0.4870E+02  0.2551E+02  0.2550E+02
     -6.950  0.3685E+02  0.3439E+02  0.2742E+02  0.2728E+02
     -6.898  0.4974E+02  0.5233E+02  0.3000E+02  0.3000E+02
     -6.846  0.1324E+02  0.1182E+02  0.3069E+02  0.3061E+02
     -6.794  0.6245E+02  0.6299E+02  0.3393E+02  0.3388E+02
     -6.742  0.3021E+02  0.3097E+02  0.3549E+02  0.3549E+02
     -6.690  0.4519E+02  0.4294E+02  0.3784E+02  0.3772E+02
     -6.638  0.6052E+02  0.6167E+02  0.4098E+02  0.4092E+02
     -6.586  0.3891E+02  0.4008E+02  0.4300E+02  0.4300E+02
     -6.534  0.4784E+02  0.4757E+02  0.4548E+02  0.4546E+02
     -6.483  0.3584E+02  0.3350E+02  0.4734E+02  0.4720E+02
     -6.431  0.3280E+02  0.3302E+02  0.4904E+02  0.4892E+02
     -6.379  0.5247E+02  0.5275E+02  0.5177E+02  0.5165E+02
     -6.327  0.5131E+02  0.5088E+02  0.5443E+02  0.5429E+02
     -6.275  0.4437E+02  0.4555E+02  0.5673E+02  0.5666E+02
     -6.223  0.3527E+02  0.3457E+02  0.5856E+02  0.5845E+02
     -6.171  0.2858E+02  0.3020E+02  0.6004E+02  0.6002E+02
     -6.119  0.5839E+02  0.5608E+02  0.6307E+02  0.6293E+02
     -6.067  0.8139E+02  0.8165E+02  0.6730E+02  0.6716E+02
     -6.015  0.7316E+02  0.7356E+02  0.7109E+02  0.7098E+02
     -5.964  0.5634E+02  0.5541E+02  0.7402E+02  0.7386E+02
     -5.912  0.9466E+02  0.9263E+02  0.7893E+02  0.7866E+02
     -5.860  0.5593E+02  0.5806E+02  0.8183E+02  0.8168E+02
     -5.808  0.8076E+02  0.8020E+02  0.8602E+02  0.8584E+02
     -5.756  0.8049E+02  0.8171E+02  0.9020E+02  0.9008E+02
     -5.704  0.6219E+02  0.6227E+02  0.9343E+02  0.9331E+02
     -5.652  0.7781E+02  0.7653E+02  0.9746E+02  0.9728E+02
     -5.600  0.5834E+02  0.5940E+02  0.1005E+03  0.1004E+03
     -5.548  0.8749E+02  0.8614E+02  0.1050E+03  0.1048E+03
     -5.497  0.5709E+02  0.5713E+02  0.1080E+03  0.1078E+03
     -5.445  0.7453E+02  0.7288E+02  0.1119E+03  0.1116E+03
     -5.393  0.7531E+02  0.7723E+02  0.1158E+03  0.1156E+03
     -5.341  0.6579E+02  0.6663E+02  0.1192E+03  0.1190E+03
     -5.289  0.7264E+02  0.6962E+02  0.1230E+03  0.1227E+03
     -5.237  0.8965E+02  0.9196E+02  0.1276E+03  0.1274E+03
     -5.185  0.5276E+02  0.5419E+02  0.1303E+03  0.1302E+03
     -5.133  0.6676E+02  0.6374E+02  0.1338E+03  0.1335E+03
     -5.081  0.9511E+02  0.9717E+02  0.1387E+03  0.1386E+03
     -5.030  0.6786E+02  0.6802E+02  0.1423E+03  0.1421E+03
     -4.978  0.8707E+02  0.8606E+02  0.1468E+03  0.1466E+03
     -4.926  0.4785E+02  0.4841E+02  0.1493E+03  0.1491E+03
     -4.874  0.7086E+02  0.7041E+02  0.1529E+03  0.1528E+03
     -4.822  0.8063E+02  0.8030E+02  0.1571E+03  0.1569E+03
     -4.770  0.1122E+03  0.1108E+03  0.1630E+03  0.1627E+03
     -4.718  0.1011E+03  0.1001E+03  0.1682E+03  0.1679E+03
     -4.666  0.1156E+03  0.1133E+03  0.1742E+03  0.1737E+03
     -4.614  0.1261E+03  0.1281E+03  0.1807E+03  0.1804E+03
     -4.563  0.1116E+03  0.1106E+03  0.1865E+03  0.1861E+03
     -4.511  0.1007E+03  0.1016E+03  0.1918E+03  0.1914E+03
     -4.459  0.9614E+02  0.9856E+02  0.1967E+03  0.1965E+03
     -4.407  0.9030E+02  0.9043E+02  0.2014E+03  0.2012E+03
     -4.355  0.8681E+02  0.8431E+02  0.2059E+03  0.2056E+03
     -4.303  0.8757E+02  0.8788E+02  0.2105E+03  0.2101E+03
     -4.251  0.6851E+02  0.7192E+02  0.2140E+03  0.2139E+03
     -4.199  0.7114E+02  0.7039E+02  0.2177E+03  0.2175E+03
     -4.147  0.6322E+02  0.6116E+02  0.2210E+03  0.2207E+03
     -4.096  0.8863E+02  0.8952E+02  0.2256E+03  0.2253E+03
     -4.044  0.5024E+02  0.5207E+02  0.2282E+03  0.2280E+03
     -3.992  0.5299E+02  0.5389E+02  0.2310E+03  0.2308E+03
     -3.940  0.5620E+02  0.5470E+02  0.2339E+03  0.2337E+03
     -3.888  0.7606E+02  0.7580E+02  0.2378E+03  0.2376E+03
     -3.836  0.6339E+02  0.6416E+02  0.2411E+03  0.2409E+03
     -3.784  0.8721E+02  0.8561E+02  0.2456E+03  0.2454E+03
     -3.732  0.7219E+02  0.7193E+02  0.2494E+03  0.2491E+03
     -3.680  0.7112E+02  0.7015E+02  0.2531E+03  0.2528E+03
     -3.629  0.8398E+02  0.8638E+02  0.2574E+03  0.2572E+03
     -3.577  0.6278E+02  0.6215E+02  0.2607E+03  0.2605E+03
     -3.525  0.6335E+02  0.6515E+02  0.2640E+03  0.2638E+03
     -3.473  0.4094E+02  0.3955E+02  0.2661E+03  0.2659E+03
     -3.421  0.7995E+02  0.7747E+02  0.2702E+03  0.2699E+03
     -3.369  0.9191E+02  0.9487E+02  0.2750E+03  0.2748E+03
     -3.317  0.5308E+02  0.5140E+02  0.2778E+03  0.2775E+03
     -3.265  0.7311E+02  0.7384E+02  0.2816E+03  0.2813E+03
     -3.213  0.7047E+02  0.7079E+02  0.2852E+03  0.2850E+03
     -3.161  0.8313E+02  0.8258E+02  0.2895E+03  0.2893E+03
     -3.110  0.7001E+02  0.6979E+02  0.2932E+03  0.2929E+03
     -3.058  0.7586E+02  0.7646E+02  0.2971E+03  0.2969E+03
     -3.006  0.7447E+02  0.7266E+02  0.3010E+03  0.3007E+03
     -2.954  0.7463E+02  0.7743E+02  0.3048E+03  0.3047E+03
     -2.902  0.5819E+02  0.5753E+02  0.3079E+03  0.3077E+03
     -2.850  0.1091E+03  0.1054E+03  0.3135E+03  0.3131E+03
     -2.798  0.8727E+02  0.8935E+02  0.3181E+03  0.3178E+03
     -2.746  0.8686E+02  0.8938E+02  0.3226E+03  0.3224E+03
     -2.694  0.1006E+03  0.9908E+02  0.3278E+03  0.3275E+03
     -2.643  0.9008E+02  0.8894E+02  0.3325E+03  0.3322E+03
     -2.591  0.8517E+02  0.8860E+02  0.3369E+03  0.3368E+03
     -2.539  0.1034E+03  0.9968E+02  0.3422E+03  0.3419E+03
     -2.487  0.1151E+03  0.1155E+03  0.3482E+03  0.3479E+03
     -2.435  0.1151E+03  0.1151E+03  0.3542E+03  0.3539E+03
     -2.383  0.9651E+02  0.9742E+02  0.3592E+03  0.3590E+03
     -2.331  0.9002E+02  0.8963E+02  0.3639E+03  0.3636E+03
     -2.279  0.1026E+03  0.1018E+03  0.3692E+03  0.3689E+03
     -2.227  0.1011E+03  0.1015E+03  0.3744E+03  0.3742E+03
     -2.176  0.1014E+03  0.1007E+03  0.3797E+03  0.3794E+03
     -2.124  0.5333E+02  0.5625E+02  0.3825E+03  0.3823E+03
     -2.072  0.4006E+02  0.4242E+02  0.3845E+03  0.3845E+03
     -2.020  0.5169E+02  0.4973E+02  0.3872E+03  0.3871E+03
     -1.968  0.7577E+02  0.7332E+02  0.3912E+03  0.3909E+03
     -1.916  0.7096E+02  0.7368E+02  0.3948E+03  0.3947E+03
     -1.864  0.8460E+02  0.8131E+02  0.3992E+03  0.3989E+03
     -1.812  0.1079E+03  0.1089E+03  0.4048E+03  0.4046E+03
     -1.760  0.7596E+02  0.7713E+02  0.4088E+03  0.4086E+03
     -1.709  0.6701E+02  0.6723E+02  0.4122E+03  0.4121E+03
     -1.657  0.1124E+03  0.1075E+03  0.4181E+03  0.4176E+03
     -1.605  0.1009E+03  0.1040E+03  0.4233E+03  0.4230E+03
     -1.553  0.6702E+02  0.6675E+02  0.4268E+03  0.4265E+03
     -1.501  0.8657E+02  0.8999E+02  0.4313E+03  0.4312E+03
     -1.449  0.8405E+02  0.8027E+02  0.4356E+03  0.4353E+03
     -1.397  0.5944E+02  0.6182E+02  0.4387E+03  0.4386E+03
     -1.345  0.5853E+02  0.6021E+02  0.4418E+03  0.4417E+03
     -1.293  0.4328E+02  0.4251E+02  0.4440E+03  0.4439E+03
     -1.242  0.6951E+02  0.6806E+02  0.4476E+03  0.4474E+03
     -1.190  0.6111E+02  0.6350E+02  0.4508E+03  0.4507E+03
     -1.138  0.4949E+02  0.4791E+02  0.4534E+03  0.4532E+03
     -1.086  0.4635E+02  0.4696E+02  0.4558E+03  0.4556E+03
     -1.034  0.5268E+02  0.5347E+02  0.4585E+03  0.4584E+03
     -0.982  0.5977E+02  0.5769E+02  0.4616E+03  0.4614E+03
     -0.930  0.6291E+02  0.6554E+02  0.4649E+03  0.4648E+03
     -0.878  0.3899E+02  0.3779E+02  0.4669E+03  0.4668E+03
     -0.826  0.4920E+02  0.4822E+02  0.4694E+03  0.4693E+03
     -0.774  0.6714E+02  0.6387E+02  0.4729E+03  0.4726E+03
     -0.723  0.6269E+02  0.6589E+02  0.4762E+03  0.4760E+03
     -0.671  0.5397E+02  0.5562E+02  0.4790E+03  0.4789E+03
     -0.619  0.6446E+02  0.6096E+02  0.4823E+03  0.4820E+03
     -0.567  0.5899E+02  0.6127E+02  0.4854E+03  0.4852E+03
     -0.515  0.2087E+02  0.2295E+02  0.4865E+03  0.4864E+03
     -0.463  0.2603E+02  0.2484E+02  0.4878E+03  0.4877E+03
     -0.411  0.3206E+02  0.3326E+02  0.4895E+03  0.4894E+03
     -0.359  0.5432E+02  0.5170E+02  0.4923E+03  0.4921E+03
     -0.307  0.3691E+02  0.3731E+02  0.4942E+03  0.4941E+03
     -0.256  0.6558E+02  0.6421E+02  0.4976E+03  0.4974E+03
     -0.204  0.8586E+02  0.8566E+02  0.5021E+03  0.5018E+03
     -0.152  0.8948E+02  0.8895E+02  0.5067E+03  0.5064E+03
     -0.100  0.7256E+02  0.7377E+02  0.5105E+03  0.5103E+03
     -0.048  0.1235E+03  0.1211E+03  0.5169E+03  0.5166E+03
      0.004  0.1143E+03  0.1161E+03  0.5228E+03  0.5226E+03
      0.056  0.1218E+03  0.1230E+03  0.5291E+03  0.5290E+03
      0.108  0.1047E+03  0.1006E+03  0.5346E+03  0.5342E+03
      0.160  0.1564E+03  0.1562E+03  0.5427E+03  0.5423E+03
      0.211  0.1176E+03  0.1205E+03  0.5488E+03  0.5485E+03
      0.263  0.7473E+02  0.7515E+02  0.5527E+03  0.5524E+03
      0.315  0.9122E+02  0.9136E+02  0.5574E+03  0.5572E+03
      0.367  0.9905E+02  0.9882E+02  0.5625E+03  0.5623E+03
      0.419  0.8197E+02  0.8207E+02  0.5668E+03  0.5666E+03
      0.471  0.9031E+02  0.8991E+02  0.5715E+03  0.5712E+03
      0.523  0.8763E+02  0.8807E+02  0.5760E+03  0.5758E+03
      0.575  0.9087E+02  0.8898E+02  0.5807E+03  0.5804E+03
      0.627  0.1171E+03  0.1162E+03  0.5868E+03  0.5865E+03
      0.678  0.1711E+03  0.1702E+03  0.5957E+03  0.5953E+03
      0.730  0.1517E+03  0.1522E+03  0.6036E+03  0.6032E+03
      0.782  0.1181E+03  0.1188E+03  0.6097E+03  0.6094E+03
      0.834  0.1210E+03  0.1219E+03  0.6160E+03  0.6157E+03
      0.886  0.1280E+03  0.1259E+03  0.6226E+03  0.6222E+03
      0.938  0.8847E+02  0.9335E+02  0.6272E+03  0.6271E+03
      0.990  0.8551E+02  0.8270E+02  0.6316E+03  0.6313E+03
      1.042  0.9226E+02  0.9308E+02  0.6364E+03  0.6362E+03
      1.094  0.1546E+03  0.1512E+03  0.6445E+03  0.6440E+03
      1.145  0.1331E+03  0.1340E+03  0.6514E+03  0.6510E+03
      1.197  0.1093E+03  0.1077E+03  0.6570E+03  0.6566E+03
      1.249  0.1822E+03  0.1812E+03  0.6665E+03  0.6660E+03
      1.301  0.1472E+03  0.1470E+03  0.6741E+03  0.6736E+03
      1.353  0.1735E+03  0.1727E+03  0.6831E+03  0.6826E+03
      1.405  0.1854E+03  0.1861E+03  0.6927E+03  0.6922E+03
      1.457  0.1889E+03  0.1864E+03  0.7026E+03  0.7019E+03
      1.509  0.1654E+03  0.1713E+03  0.7111E+03  0.7108E+03
      1.561  0.1700E+03  0.1638E+03  0.7200E+03  0.7193E+03
      1.612  0.2143E+03  0.2174E+03  0.7311E+03  0.7306E+03
      1.664  0.2047E+03  0.2033E+03  0.7417E+03  0.7411E+03
      1.716  0.1717E+03  0.1712E+03  0.7506E+03  0.7500E+03
      1.768  0.1748E+03  0.1769E+03  0.7597E+03  0.7592E+03
      1.820  0.1960E+03  0.1930E+03  0.7698E+03  0.7692E+03
      1.872  0.1717E+03  0.1753E+03  0.7788E+03  0.7783E+03
      1.924  0.1686E+03  0.1692E+03  0.7875E+03  0.7871E+03
      1.976  0.1568E+03  0.1531E+03  0.7956E+03  0.7950E+03
      2.028  0.2136E+03  0.2130E+03  0.8067E+03  0.8061E+03
      2.080  0.1691E+03  0.1726E+03  0.8155E+03  0.8150E+03
      2.131  0.1941E+03  0.1933E+03  0.8256E+03  0.8250E+03
      2.183  0.1702E+03  0.1667E+03  0.8344E+03  0.8337E+03
      2.235  0.1698E+03  0.1704E+03  0.8432E+03  0.8425E+03
      2.287  0.1918E+03  0.1971E+03  0.8532E+03  0.8528E+03
      2.339  0.1538E+03  0.1525E+03  0.8612E+03  0.8607E+03
      2.391  0.1631E+03  0.1604E+03  0.8696E+03  0.8690E+03
      2.443  0.2002E+03  0.1960E+03  0.8800E+03  0.8792E+03
      2.495  0.1584E+03  0.1631E+03  0.8882E+03  0.8876E+03
      2.547  0.1281E+03  0.1341E+03  0.8949E+03  0.8946E+03
      2.598  0.1734E+03  0.1691E+03  0.9039E+03  0.9034E+03
      2.650  0.1598E+03  0.1594E+03  0.9122E+03  0.9116E+03
      2.702  0.1284E+03  0.1296E+03  0.9188E+03  0.9184E+03
      2.754  0.1254E+03  0.1231E+03  0.9253E+03  0.9248E+03
      2.806  0.1394E+03  0.1383E+03  0.9326E+03  0.9319E+03
      2.858  0.1285E+03  0.1316E+03  0.9392E+03  0.9388E+03
      2.910  0.1473E+03  0.1471E+03  0.9469E+03  0.9464E+03
      2.962  0.1400E+03  0.1385E+03  0.9541E+03  0.9536E+03
      3.014  0.1190E+03  0.1199E+03  0.9603E+03  0.9598E+03
      3.065  0.1205E+03  0.1226E+03  0.9666E+03  0.9662E+03
      3.117  0.1257E+03  0.1254E+03  0.9731E+03  0.9727E+03
      3.169  0.1288E+03  0.1253E+03  0.9798E+03  0.9792E+03
      3.221  0.1160E+03  0.1230E+03  0.9858E+03  0.9856E+03
      3.273  0.1051E+03  0.1001E+03  0.9912E+03  0.9907E+03
      3.325  0.1036E+03  0.1012E+03  0.9966E+03  0.9960E+03
      3.377  0.1151E+03  0.1121E+03  0.1003E+04  0.1002E+04
      3.429  0.9430E+02  0.9919E+02  0.1007E+04  0.1007E+04
      3.481  0.7369E+02  0.7814E+02  0.1011E+04  0.1011E+04
      3.532  0.6907E+02  0.6605E+02  0.1015E+04  0.1014E+04
      3.584  0.1073E+03  0.1089E+03  0.1020E+04  0.1020E+04
      3.636  0.8811E+02  0.8618E+02  0.1025E+04  0.1025E+04
      3.688  0.1005E+03  0.9327E+02  0.1030E+04  0.1029E+04
      3.740  0.5840E+02  0.6247E+02  0.1033E+04  0.1033E+04
      3.792  0.4922E+02  0.5716E+02  0.1036E+04  0.1036E+04
      3.844  0.4754E+02  0.4226E+02  0.1038E+04  0.1038E+04
      3.896  0.6160E+02  0.6585E+02  0.1041E+04  0.1041E+04
      3.948  0.3561E+02  0.3527E+02  0.1043E+04  0.1043E+04
      3.999  0.3800E+02  0.3639E+02  0.1045E+04  0.1045E+04
      4.051  0.5781E+02  0.5591E+02  0.1048E+04  0.1048E+04
      4.103  0.7199E+02  0.6896E+02  0.1052E+04  0.1051E+04
      4.155  0.9848E+02  0.9172E+02  0.1057E+04  0.1056E+04
      4.207  0.8935E+02  0.9525E+02  0.1062E+04  0.1061E+04
      4.259  0.7402E+02  0.7588E+02  0.1066E+04  0.1065E+04
      4.311  0.9484E+02  0.9264E+02  0.1071E+04  0.1070E+04
      4.363  0.9905E+02  0.1042E+03  0.1076E+04  0.1075E+04
      4.415  0.7398E+02  0.7249E+02  0.1080E+04  0.1079E+04
      4.466  0.1344E+03  0.1304E+03  0.1087E+04  0.1086E+04
      4.518  0.1210E+03  0.1186E+03  0.1093E+04  0.1092E+04
      4.570  0.1127E+03  0.1081E+03  0.1099E+04  0.1098E+04
      4.622  0.1082E+03  0.1166E+03  0.1104E+04  0.1104E+04
      4.674  0.6755E+02  0.7165E+02  0.1108E+04  0.1107E+04
      4.726  0.9951E+02  0.9314E+02  0.1113E+04  0.1112E+04
      4.778  0.1110E+03  0.1123E+03  0.1119E+04  0.1118E+04
      4.830  0.1181E+03  0.1166E+03  0.1125E+04  0.1124E+04
      4.882  0.1126E+03  0.1135E+03  0.1131E+04  0.1130E+04
      4.934  0.1266E+03  0.1242E+03  0.1137E+04  0.1136E+04
      4.985  0.1143E+03  0.1203E+03  0.1143E+04  0.1143E+04
      5.037  0.1325E+03  0.1287E+03  0.1150E+04  0.1149E+04
      5.089  0.1272E+03  0.1302E+03  0.1157E+04  0.1156E+04
      5.141  0.1208E+03  0.1199E+03  0.1163E+04  0.1162E+04
      5.193  0.1184E+03  0.1202E+03  0.1169E+04  0.1169E+04
      5.245  0.1180E+03  0.1168E+03  0.1175E+04  0.1175E+04
      5.297  0.9360E+02  0.9778E+02  0.1180E+04  0.1180E+04
      5.349  0.1122E+03  0.1052E+03  0.1186E+04  0.1185E+04
      5.401  0.1172E+03  0.1177E+03  0.1192E+04  0.1191E+04
      5.452  0.1459E+03  0.1454E+03  0.1200E+04  0.1199E+04
      5.504  0.1328E+03  0.1344E+03  0.1206E+04  0.1206E+04
      5.556  0.1466E+03  0.1477E+03  0.1214E+04  0.1213E+04
      5.608  0.1406E+03  0.1416E+03  0.1221E+04  0.1221E+04
      5.660  0.1320E+03  0.1290E+03  0.1228E+04  0.1227E+04
      5.712  0.1343E+03  0.1380E+03  0.1235E+04  0.1235E+04
      5.764  0.1290E+03  0.1284E+03  0.1242E+04  0.1241E+04
      5.816  0.1197E+03  0.1209E+03  0.1248E+04  0.1248E+04
      5.868  0.1300E+03  0.1272E+03  0.1255E+04  0.1254E+04
      5.919  0.1497E+03  0.1482E+03  0.1263E+04  0.1262E+04
      5.971  0.1074E+03  0.1102E+03  0.1268E+04  0.1268E+04
      6.023  0.6355E+02  0.6991E+02  0.1271E+04  0.1271E+04
      6.075  0.1149E+02  0.1576E+02  0.1272E+04  0.1272E+04
      6.127  0.0000E+00  0.0000E+00  0.1272E+04  0.1272E+04
      6.179  0.0000E+00  0.0000E+00  0.1272E+04  0.1272E+04
      6.231  0.0000E+00  0.0000E+00  0.1272E+04  0.1272E+04
      6.283  0.0000E+00  0.0000E+00  0.1272E+04  0.1272E+04
      6.335  0.0000E+00  0.0000E+00  0.1272E+04  0.1272E+04
      6.386  0.0000E+00  0.0000E+00  0.1272E+04  0.1272E+04
      6.438  0.0000E+00  0.0000E+00  0.1272E+04  0.1272E+04
      6.490  0.0000E+00  0.0000E+00  0.1272E+04  0.1272E+04
      6.542  0.0000E+00  0.0000E+00  0.1272E+04  0.1272E+04
      6.594  0.0000E+00  0.0000E+00  0.1272E+04  0.1272E+04
      6.646  0.0000E+00  0.0000E+00  0.1272E+04  0.1272E+04
      6.698  0.0000E+00  0.0000E+00  0.1272E+04  0.1272E+04
      6.750  0.0000E+00  0.0000E+00  0.1272E+04  0.1272E+04
