 120 120   0   0
  0.2190039E+02  0.7680595E-09  0.1629300E-08  0.2100086E-08  0.5000000E-15
  1.000000000000000E-004
  CAR 
 Si and Ge interface calculation         
      7.80047076     -8.72635150  301      4.73100700      1.00000000
     -8.726  0.0000E+00  0.0000E+00  0.0000E+00  0.0000E+00
     -8.671  0.0000E+00  0.0000E+00  0.0000E+00  0.0000E+00
     -8.616  0.0000E+00  0.0000E+00  0.0000E+00  0.0000E+00
     -8.561  0.0000E+00  0.0000E+00  0.0000E+00  0.0000E+00
     -8.506  0.0000E+00  0.0000E+00  0.0000E+00  0.0000E+00
     -8.451  0.0000E+00  0.0000E+00  0.0000E+00  0.0000E+00
     -8.396  0.0000E+00  0.0000E+00  0.0000E+00  0.0000E+00
     -8.341  0.0000E+00  0.0000E+00  0.0000E+00  0.0000E+00
     -8.286  0.0000E+00  0.0000E+00  0.0000E+00  0.0000E+00
     -8.231  0.0000E+00  0.0000E+00  0.0000E+00  0.0000E+00
     -8.175  0.0000E+00  0.0000E+00  0.0000E+00  0.0000E+00
     -8.120  0.0000E+00  0.0000E+00  0.0000E+00  0.0000E+00
     -8.065  0.0000E+00  0.0000E+00  0.0000E+00  0.0000E+00
     -8.010  0.1618E-05  0.4294E-08  0.8912E-07  0.2366E-09
     -7.955  0.4528E+01  0.4369E+01  0.2494E+00  0.2407E+00
     -7.900  0.1049E-01  0.1689E+00  0.2500E+00  0.2500E+00
     -7.845  0.9718E+01  0.9013E+01  0.7854E+00  0.7465E+00
     -7.790  0.8434E+01  0.9139E+01  0.1250E+01  0.1250E+01
     -7.735  0.2553E+01  0.3098E+00  0.1391E+01  0.1267E+01
     -7.680  0.1560E+02  0.1784E+02  0.2250E+01  0.2250E+01
     -7.625  0.1035E-02  0.3377E-04  0.2250E+01  0.2250E+01
     -7.569  0.4537E+01  0.4537E+01  0.2500E+01  0.2500E+01
     -7.514  0.4530E+01  0.4243E+01  0.2750E+01  0.2734E+01
     -7.459  0.3755E+01  0.1638E+01  0.2956E+01  0.2824E+01
     -7.404  0.1484E+02  0.1600E+02  0.3774E+01  0.3706E+01
     -7.349  0.1318E+02  0.1442E+02  0.4500E+01  0.4500E+01
     -7.294  0.2616E+02  0.2287E+02  0.5941E+01  0.5760E+01
     -7.239  0.9745E+01  0.1067E+02  0.6478E+01  0.6347E+01
     -7.184  0.1408E+02  0.1639E+02  0.7253E+01  0.7250E+01
     -7.129  0.1820E+02  0.1816E+02  0.8256E+01  0.8250E+01
     -7.074  0.3010E+02  0.2517E+02  0.9915E+01  0.9637E+01
     -7.019  0.1162E+02  0.1550E+02  0.1055E+02  0.1049E+02
     -6.963  0.2513E+02  0.2105E+02  0.1194E+02  0.1165E+02
     -6.908  0.9815E+01  0.1148E+02  0.1248E+02  0.1228E+02
     -6.853  0.2338E+02  0.2181E+02  0.1377E+02  0.1348E+02
     -6.798  0.1289E+02  0.1552E+02  0.1448E+02  0.1434E+02
     -6.743  0.5012E+02  0.5149E+02  0.1724E+02  0.1718E+02
     -6.688  0.1392E+02  0.7377E+01  0.1801E+02  0.1758E+02
     -6.633  0.4073E+02  0.4833E+02  0.2025E+02  0.2024E+02
     -6.578  0.5922E+01  0.4820E+01  0.2058E+02  0.2051E+02
     -6.523  0.3048E+02  0.3159E+02  0.2226E+02  0.2225E+02
     -6.468  0.1710E+02  0.1454E+02  0.2320E+02  0.2305E+02
     -6.413  0.3872E+02  0.3558E+02  0.2533E+02  0.2501E+02
     -6.358  0.5103E+02  0.4900E+02  0.2814E+02  0.2771E+02
     -6.302  0.1941E+02  0.2385E+02  0.2921E+02  0.2902E+02
     -6.247  0.1896E+02  0.2222E+02  0.3026E+02  0.3025E+02
     -6.192  0.2761E+02  0.1798E+02  0.3178E+02  0.3124E+02
     -6.137  0.4079E+02  0.4180E+02  0.3402E+02  0.3354E+02
     -6.082  0.4772E+02  0.4802E+02  0.3665E+02  0.3619E+02
     -6.027  0.6873E+02  0.7190E+02  0.4044E+02  0.4015E+02
     -5.972  0.2607E+02  0.2866E+02  0.4188E+02  0.4173E+02
     -5.917  0.3203E+02  0.3146E+02  0.4364E+02  0.4346E+02
     -5.862  0.1896E+02  0.1577E+02  0.4468E+02  0.4433E+02
     -5.807  0.4828E+02  0.4634E+02  0.4734E+02  0.4688E+02
     -5.752  0.4053E+02  0.4756E+02  0.4958E+02  0.4950E+02
     -5.696  0.3507E+02  0.2989E+02  0.5151E+02  0.5115E+02
     -5.641  0.3574E+02  0.3990E+02  0.5348E+02  0.5335E+02
     -5.586  0.4419E+01  0.3876E+01  0.5372E+02  0.5356E+02
     -5.531  0.6449E+02  0.6205E+02  0.5727E+02  0.5698E+02
     -5.476  0.2390E+02  0.2257E+02  0.5859E+02  0.5822E+02
     -5.421  0.2567E+02  0.3228E+02  0.6000E+02  0.6000E+02
     -5.366  0.4331E+02  0.3954E+02  0.6239E+02  0.6218E+02
     -5.311  0.1584E+02  0.1464E+02  0.6326E+02  0.6299E+02
     -5.256  0.4353E+02  0.4482E+02  0.6566E+02  0.6545E+02
     -5.201  0.4656E+02  0.4262E+02  0.6823E+02  0.6780E+02
     -5.146  0.4762E+02  0.5063E+02  0.7085E+02  0.7059E+02
     -5.090  0.5048E+02  0.3934E+02  0.7363E+02  0.7276E+02
     -5.035  0.9014E+02  0.1016E+03  0.7860E+02  0.7836E+02
     -4.980  0.2353E+02  0.2533E+02  0.7989E+02  0.7975E+02
     -4.925  0.7320E+02  0.6884E+02  0.8392E+02  0.8354E+02
     -4.870  0.1406E+02  0.1799E+02  0.8470E+02  0.8454E+02
     -4.815  0.2519E+02  0.2227E+02  0.8609E+02  0.8576E+02
     -4.760  0.5558E+02  0.5597E+02  0.8915E+02  0.8885E+02
     -4.705  0.2693E+02  0.1837E+02  0.9063E+02  0.8986E+02
     -4.650  0.4915E+02  0.5768E+02  0.9334E+02  0.9304E+02
     -4.595  0.2180E+02  0.2390E+02  0.9454E+02  0.9435E+02
     -4.540  0.2653E+02  0.2992E+02  0.9600E+02  0.9600E+02
     -4.484  0.2480E+02  0.2063E+02  0.9737E+02  0.9714E+02
     -4.429  0.4731E+02  0.4497E+02  0.9998E+02  0.9961E+02
     -4.374  0.4417E+02  0.4655E+02  0.1024E+03  0.1022E+03
     -4.319  0.4188E+02  0.4231E+02  0.1047E+03  0.1045E+03
     -4.264  0.1947E+02  0.1890E+02  0.1058E+03  0.1056E+03
     -4.209  0.5590E+02  0.4798E+02  0.1089E+03  0.1082E+03
     -4.154  0.1600E+02  0.2825E+02  0.1098E+03  0.1097E+03
     -4.099  0.9034E+01  0.7388E+01  0.1102E+03  0.1102E+03
     -4.044  0.2648E+02  0.2341E+02  0.1117E+03  0.1114E+03
     -3.989  0.5477E+01  0.1006E+02  0.1120E+03  0.1120E+03
     -3.934  0.1347E+02  0.1360E+02  0.1128E+03  0.1127E+03
     -3.878  0.2645E+02  0.1667E+02  0.1142E+03  0.1137E+03
     -3.823  0.1232E+02  0.2036E+02  0.1149E+03  0.1148E+03
     -3.768  0.1967E+02  0.2009E+02  0.1160E+03  0.1159E+03
     -3.713  0.1990E+02  0.1799E+02  0.1171E+03  0.1169E+03
     -3.658  0.1258E+02  0.1567E+02  0.1178E+03  0.1178E+03
     -3.603  0.3993E+02  0.3608E+02  0.1200E+03  0.1197E+03
     -3.548  0.1529E+02  0.1851E+02  0.1208E+03  0.1208E+03
     -3.493  0.2619E+02  0.2522E+02  0.1222E+03  0.1221E+03
     -3.438  0.1559E+02  0.8449E+01  0.1231E+03  0.1226E+03
     -3.383  0.2329E+02  0.2824E+02  0.1244E+03  0.1242E+03
     -3.328  0.1953E+02  0.1961E+02  0.1255E+03  0.1252E+03
     -3.273  0.2432E+02  0.2291E+02  0.1268E+03  0.1265E+03
     -3.217  0.3542E+02  0.3986E+02  0.1288E+03  0.1287E+03
     -3.162  0.2567E+02  0.2029E+02  0.1302E+03  0.1298E+03
     -3.107  0.1545E+01  0.7734E+01  0.1303E+03  0.1302E+03
     -3.052  0.2226E+02  0.9495E+01  0.1315E+03  0.1308E+03
     -2.997  0.1404E+02  0.2681E+02  0.1323E+03  0.1322E+03
     -2.942  0.1180E+02  0.8967E+01  0.1329E+03  0.1327E+03
     -2.887  0.4719E+02  0.4719E+02  0.1355E+03  0.1353E+03
     -2.832  0.5463E+02  0.4476E+02  0.1385E+03  0.1378E+03
     -2.777  0.1249E+02  0.2242E+02  0.1392E+03  0.1390E+03
     -2.722  0.2238E+02  0.2217E+02  0.1404E+03  0.1403E+03
     -2.667  0.5136E+02  0.4842E+02  0.1433E+03  0.1429E+03
     -2.611  0.4721E+02  0.4564E+02  0.1459E+03  0.1454E+03
     -2.556  0.4024E+02  0.4636E+02  0.1481E+03  0.1480E+03
     -2.501  0.6816E+02  0.6557E+02  0.1518E+03  0.1516E+03
     -2.446  0.5780E+02  0.4829E+02  0.1550E+03  0.1543E+03
     -2.391  0.5205E+02  0.5834E+02  0.1579E+03  0.1575E+03
     -2.336  0.7743E+02  0.7235E+02  0.1621E+03  0.1615E+03
     -2.281  0.3990E+02  0.4469E+02  0.1643E+03  0.1639E+03
     -2.226  0.5938E+02  0.6100E+02  0.1676E+03  0.1673E+03
     -2.171  0.4274E+02  0.4121E+02  0.1700E+03  0.1696E+03
     -2.116  0.1439E+02  0.2149E+02  0.1708E+03  0.1708E+03
     -2.061  0.3117E+02  0.2621E+02  0.1725E+03  0.1722E+03
     -2.005  0.6624E+02  0.5662E+02  0.1761E+03  0.1753E+03
     -1.950  0.5635E+02  0.6899E+02  0.1792E+03  0.1791E+03
     -1.895  0.2156E+02  0.1972E+02  0.1804E+03  0.1802E+03
     -1.840  0.2974E+02  0.2815E+02  0.1821E+03  0.1818E+03
     -1.785  0.3724E+01  0.9064E+01  0.1823E+03  0.1823E+03
     -1.730  0.2445E+02  0.2161E+02  0.1836E+03  0.1834E+03
     -1.675  0.3338E+02  0.3290E+02  0.1855E+03  0.1853E+03
     -1.620  0.4901E+02  0.4641E+02  0.1882E+03  0.1878E+03
     -1.565  0.7894E+02  0.7945E+02  0.1925E+03  0.1922E+03
     -1.510  0.4044E+02  0.4360E+02  0.1947E+03  0.1946E+03
     -1.455  0.3418E+02  0.3039E+02  0.1966E+03  0.1963E+03
     -1.399  0.2473E+01  0.8837E+01  0.1968E+03  0.1968E+03
     -1.344  0.2819E+02  0.2668E+02  0.1983E+03  0.1982E+03
     -1.289  0.3587E+01  0.5084E+01  0.1985E+03  0.1985E+03
     -1.234  0.1250E+02  0.1053E+02  0.1992E+03  0.1991E+03
     -1.179  0.1473E+02  0.1669E+02  0.2000E+03  0.2000E+03
     -1.124  0.1810E+02  0.1774E+02  0.2010E+03  0.2010E+03
     -1.069  0.2474E+02  0.1586E+02  0.2024E+03  0.2019E+03
     -1.014  0.3730E+02  0.4167E+02  0.2044E+03  0.2041E+03
     -0.959  0.2031E+02  0.2456E+02  0.2055E+03  0.2055E+03
     -0.904  0.1150E+02  0.8325E+01  0.2062E+03  0.2060E+03
     -0.849  0.2604E+02  0.2212E+02  0.2076E+03  0.2072E+03
     -0.793  0.1904E+02  0.2324E+02  0.2087E+03  0.2085E+03
     -0.738  0.1786E+01  0.5327E+01  0.2088E+03  0.2088E+03
     -0.683  0.3590E+02  0.3202E+02  0.2107E+03  0.2105E+03
     -0.628  0.2462E+02  0.2505E+02  0.2121E+03  0.2119E+03
     -0.573  0.1618E+02  0.1625E+02  0.2130E+03  0.2128E+03
     -0.518  0.4929E+02  0.4863E+02  0.2157E+03  0.2155E+03
     -0.463  0.1887E+02  0.1773E+02  0.2167E+03  0.2164E+03
     -0.408  0.4078E+02  0.3613E+02  0.2190E+03  0.2184E+03
     -0.353  0.9499E+01  0.1932E+02  0.2195E+03  0.2195E+03
     -0.298  0.8944E+01  0.8094E+01  0.2200E+03  0.2199E+03
     -0.243  0.2000E+02  0.1727E+02  0.2211E+03  0.2209E+03
     -0.187  0.1643E+02  0.2002E+02  0.2220E+03  0.2220E+03
     -0.132  0.9521E+01  0.7738E+01  0.2225E+03  0.2224E+03
     -0.077  0.8265E+01  0.8653E+01  0.2230E+03  0.2229E+03
     -0.022  0.1847E+02  0.1918E+02  0.2240E+03  0.2240E+03
      0.033  0.2050E+02  0.1703E+02  0.2251E+03  0.2249E+03
      0.088  0.1038E+02  0.1146E+02  0.2257E+03  0.2255E+03
      0.143  0.1036E+02  0.1311E+02  0.2263E+03  0.2263E+03
      0.198  0.3607E+02  0.2771E+02  0.2283E+03  0.2278E+03
      0.253  0.5355E+02  0.5280E+02  0.2312E+03  0.2307E+03
      0.308  0.8471E+02  0.8783E+02  0.2359E+03  0.2355E+03
      0.363  0.2933E+02  0.3369E+02  0.2375E+03  0.2374E+03
      0.418  0.2951E+02  0.2874E+02  0.2391E+03  0.2390E+03
      0.474  0.5926E+02  0.5785E+02  0.2424E+03  0.2422E+03
      0.529  0.5174E+02  0.5109E+02  0.2452E+03  0.2450E+03
      0.584  0.2892E+02  0.2575E+02  0.2468E+03  0.2464E+03
      0.639  0.6647E+02  0.6610E+02  0.2505E+03  0.2500E+03
      0.694  0.5473E+02  0.5815E+02  0.2535E+03  0.2532E+03
      0.749  0.7769E+02  0.6669E+02  0.2578E+03  0.2569E+03
      0.804  0.9137E+02  0.9274E+02  0.2628E+03  0.2620E+03
      0.859  0.5472E+02  0.6221E+02  0.2658E+03  0.2654E+03
      0.914  0.8846E+02  0.8319E+02  0.2707E+03  0.2700E+03
      0.969  0.4977E+02  0.5818E+02  0.2734E+03  0.2732E+03
      1.024  0.4044E+02  0.3983E+02  0.2757E+03  0.2754E+03
      1.080  0.7424E+02  0.6626E+02  0.2798E+03  0.2791E+03
      1.135  0.7578E+02  0.7705E+02  0.2839E+03  0.2833E+03
      1.190  0.9581E+02  0.9401E+02  0.2892E+03  0.2885E+03
      1.245  0.5510E+02  0.6744E+02  0.2922E+03  0.2922E+03
      1.300  0.6618E+02  0.5817E+02  0.2959E+03  0.2954E+03
      1.355  0.9881E+02  0.9832E+02  0.3013E+03  0.3008E+03
      1.410  0.6103E+02  0.5783E+02  0.3047E+03  0.3040E+03
      1.465  0.7878E+02  0.8751E+02  0.3090E+03  0.3088E+03
      1.520  0.4855E+02  0.4295E+02  0.3117E+03  0.3112E+03
      1.575  0.3834E+02  0.3990E+02  0.3138E+03  0.3134E+03
      1.630  0.9868E+02  0.9644E+02  0.3193E+03  0.3187E+03
      1.686  0.7658E+02  0.7424E+02  0.3235E+03  0.3228E+03
      1.741  0.7658E+02  0.7537E+02  0.3277E+03  0.3270E+03
      1.796  0.8882E+02  0.8862E+02  0.3326E+03  0.3318E+03
      1.851  0.1202E+03  0.1210E+03  0.3392E+03  0.3385E+03
      1.906  0.5616E+02  0.6168E+02  0.3423E+03  0.3419E+03
      1.961  0.9767E+02  0.9750E+02  0.3477E+03  0.3473E+03
      2.016  0.3819E+02  0.3262E+02  0.3498E+03  0.3491E+03
      2.071  0.5234E+02  0.5895E+02  0.3527E+03  0.3523E+03
      2.126  0.7830E+02  0.7525E+02  0.3570E+03  0.3565E+03
      2.181  0.7931E+02  0.8507E+02  0.3614E+03  0.3612E+03
      2.236  0.7210E+02  0.7093E+02  0.3653E+03  0.3651E+03
      2.292  0.5837E+02  0.4771E+02  0.3685E+03  0.3677E+03
      2.347  0.8764E+02  0.9838E+02  0.3734E+03  0.3731E+03
      2.402  0.5339E+02  0.4830E+02  0.3763E+03  0.3758E+03
      2.457  0.8679E+02  0.8521E+02  0.3811E+03  0.3805E+03
      2.512  0.7125E+02  0.7103E+02  0.3850E+03  0.3844E+03
      2.567  0.7554E+02  0.7685E+02  0.3892E+03  0.3886E+03
      2.622  0.5147E+02  0.5469E+02  0.3920E+03  0.3916E+03
      2.677  0.8100E+02  0.7985E+02  0.3965E+03  0.3960E+03
      2.732  0.6307E+02  0.6358E+02  0.4000E+03  0.3995E+03
      2.787  0.5850E+02  0.6086E+02  0.4032E+03  0.4029E+03
      2.842  0.3059E+02  0.3439E+02  0.4049E+03  0.4048E+03
      2.898  0.8645E+02  0.6883E+02  0.4096E+03  0.4086E+03
      2.953  0.6224E+02  0.7295E+02  0.4131E+03  0.4126E+03
      3.008  0.4744E+02  0.5296E+02  0.4157E+03  0.4155E+03
      3.063  0.7977E+02  0.6285E+02  0.4201E+03  0.4190E+03
      3.118  0.7032E+02  0.8088E+02  0.4239E+03  0.4234E+03
      3.173  0.6779E+02  0.7017E+02  0.4277E+03  0.4273E+03
      3.228  0.8216E+02  0.7271E+02  0.4322E+03  0.4313E+03
      3.283  0.6255E+02  0.7146E+02  0.4356E+03  0.4352E+03
      3.338  0.6197E+02  0.6450E+02  0.4391E+03  0.4388E+03
      3.393  0.7719E+02  0.7360E+02  0.4433E+03  0.4428E+03
      3.448  0.5813E+02  0.5351E+02  0.4465E+03  0.4458E+03
      3.503  0.3229E+02  0.4371E+02  0.4483E+03  0.4482E+03
      3.559  0.4754E+02  0.3008E+02  0.4509E+03  0.4498E+03
      3.614  0.3821E+02  0.5326E+02  0.4530E+03  0.4528E+03
      3.669  0.3690E+02  0.3187E+02  0.4550E+03  0.4545E+03
      3.724  0.2564E+02  0.3121E+02  0.4565E+03  0.4563E+03
      3.779  0.3933E+02  0.3556E+02  0.4586E+03  0.4582E+03
      3.834  0.2889E+02  0.3352E+02  0.4602E+03  0.4601E+03
      3.889  0.1764E+02  0.1526E+02  0.4612E+03  0.4609E+03
      3.944  0.3094E+02  0.3395E+02  0.4629E+03  0.4628E+03
      3.999  0.3986E+02  0.3772E+02  0.4651E+03  0.4648E+03
      4.054  0.3426E+02  0.3319E+02  0.4670E+03  0.4667E+03
      4.109  0.2460E+02  0.1946E+02  0.4683E+03  0.4677E+03
      4.165  0.1571E+02  0.2189E+02  0.4692E+03  0.4690E+03
      4.220  0.2712E+02  0.1862E+02  0.4707E+03  0.4700E+03
      4.275  0.1421E+02  0.2367E+02  0.4715E+03  0.4713E+03
      4.330  0.1860E+02  0.2199E+02  0.4725E+03  0.4725E+03
      4.385  0.8604E-01  0.8734E-01  0.4725E+03  0.4725E+03
      4.440  0.3398E+02  0.1553E+02  0.4744E+03  0.4734E+03
      4.495  0.2479E+02  0.3223E+02  0.4757E+03  0.4751E+03
      4.550  0.1515E+02  0.1600E+02  0.4766E+03  0.4760E+03
      4.605  0.3195E+01  0.1334E+02  0.4768E+03  0.4767E+03
      4.660  0.2045E+02  0.1194E+02  0.4779E+03  0.4774E+03
      4.715  0.2642E+02  0.2390E+02  0.4793E+03  0.4787E+03
      4.771  0.3605E+02  0.2326E+02  0.4813E+03  0.4800E+03
      4.826  0.2191E+02  0.4183E+02  0.4825E+03  0.4823E+03
      4.881  0.1884E+02  0.1667E+02  0.4836E+03  0.4832E+03
      4.936  0.4590E+02  0.2871E+02  0.4861E+03  0.4848E+03
      4.991  0.1261E+02  0.2620E+02  0.4868E+03  0.4863E+03
      5.046  0.3336E+02  0.1587E+02  0.4886E+03  0.4871E+03
      5.101  0.3995E+02  0.6478E+02  0.4908E+03  0.4907E+03
      5.156  0.3473E+02  0.2372E+02  0.4927E+03  0.4920E+03
      5.211  0.2196E+02  0.2241E+02  0.4940E+03  0.4932E+03
      5.266  0.4658E+02  0.5335E+02  0.4965E+03  0.4962E+03
      5.321  0.4092E+02  0.4143E+02  0.4988E+03  0.4985E+03
      5.377  0.5296E+02  0.4854E+02  0.5017E+03  0.5011E+03
      5.432  0.2757E+02  0.2239E+02  0.5032E+03  0.5024E+03
      5.487  0.2734E+02  0.4012E+02  0.5047E+03  0.5046E+03
      5.542  0.3664E+02  0.3365E+02  0.5067E+03  0.5064E+03
      5.597  0.5019E+02  0.4290E+02  0.5095E+03  0.5088E+03
      5.652  0.6150E+02  0.5625E+02  0.5129E+03  0.5119E+03
      5.707  0.3870E+02  0.4655E+02  0.5150E+03  0.5145E+03
      5.762  0.5815E+02  0.5238E+02  0.5182E+03  0.5173E+03
      5.817  0.5870E+02  0.6383E+02  0.5215E+03  0.5209E+03
      5.872  0.6061E+02  0.5294E+02  0.5248E+03  0.5238E+03
      5.927  0.2920E+02  0.4477E+02  0.5264E+03  0.5262E+03
      5.983  0.4786E+02  0.3986E+02  0.5290E+03  0.5284E+03
      6.038  0.5042E+02  0.5436E+02  0.5318E+03  0.5314E+03
      6.093  0.6079E+02  0.5394E+02  0.5352E+03  0.5344E+03
      6.148  0.3702E+02  0.4214E+02  0.5372E+03  0.5367E+03
      6.203  0.6627E+02  0.7174E+02  0.5409E+03  0.5407E+03
      6.258  0.5120E+02  0.4961E+02  0.5437E+03  0.5434E+03
      6.313  0.3542E+02  0.3279E+02  0.5456E+03  0.5452E+03
      6.368  0.3738E+02  0.3670E+02  0.5477E+03  0.5472E+03
      6.423  0.6107E+02  0.6164E+02  0.5511E+03  0.5506E+03
      6.478  0.6113E+02  0.5772E+02  0.5544E+03  0.5538E+03
      6.533  0.8129E+02  0.7974E+02  0.5589E+03  0.5582E+03
      6.589  0.3426E+02  0.4243E+02  0.5608E+03  0.5605E+03
      6.644  0.4019E+02  0.3731E+02  0.5630E+03  0.5626E+03
      6.699  0.4463E+02  0.4537E+02  0.5655E+03  0.5651E+03
      6.754  0.4219E+02  0.4461E+02  0.5678E+03  0.5676E+03
      6.809  0.4345E+02  0.3267E+02  0.5702E+03  0.5694E+03
      6.864  0.6205E+02  0.7081E+02  0.5736E+03  0.5733E+03
      6.919  0.1162E+02  0.1396E+02  0.5742E+03  0.5740E+03
      6.974  0.1068E+02  0.1006E+02  0.5748E+03  0.5746E+03
      7.029  0.1262E+02  0.1586E+02  0.5755E+03  0.5755E+03
      7.084  0.8778E+01  0.9954E+01  0.5760E+03  0.5760E+03
      7.139  0.0000E+00  0.0000E+00  0.5760E+03  0.5760E+03
      7.194  0.0000E+00  0.0000E+00  0.5760E+03  0.5760E+03
      7.250  0.0000E+00  0.0000E+00  0.5760E+03  0.5760E+03
      7.305  0.0000E+00  0.0000E+00  0.5760E+03  0.5760E+03
      7.360  0.0000E+00  0.0000E+00  0.5760E+03  0.5760E+03
      7.415  0.0000E+00  0.0000E+00  0.5760E+03  0.5760E+03
      7.470  0.0000E+00  0.0000E+00  0.5760E+03  0.5760E+03
      7.525  0.0000E+00  0.0000E+00  0.5760E+03  0.5760E+03
      7.580  0.0000E+00  0.0000E+00  0.5760E+03  0.5760E+03
      7.635  0.0000E+00  0.0000E+00  0.5760E+03  0.5760E+03
      7.690  0.0000E+00  0.0000E+00  0.5760E+03  0.5760E+03
      7.745  0.0000E+00  0.0000E+00  0.5760E+03  0.5760E+03
      7.800  0.0000E+00  0.0000E+00  0.5760E+03  0.5760E+03
