<?xml version="1.0" encoding="ISO-8859-1"?>
<modeling>
 <generator>
  <i name="program" type="string">vasp </i>
  <i name="version" type="string">6.4.3  </i>
  <i name="subversion" type="string">19Mar24 (build Oct 22 2024 11:23:12) complex                          parallel </i>
  <i name="platform" type="string">LinuxIFC </i>
  <i name="date" type="string">2025 06 08 </i>
  <i name="time" type="string">11:48:42 </i>
 </generator>
 <incar>
  <i type="string" name="SYSTEM">Si and Ge interface calculation</i>
  <i type="int" name="ISTART">     0</i>
  <i type="logical" name="ADDGRID"> T  </i>
  <i type="int" name="ISPIN">     2</i>
  <i name="AMIX">      0.60000000</i>
  <i type="int" name="ICHARG">     2</i>
  <i type="int" name="NELM">   100</i>
  <i name="EDIFF">      0.00000010</i>
  <i name="ENCUT">    700.00000000</i>
  <i name="ENAUG">    900.00000000</i>
  <i type="int" name="NBANDS">   288</i>
  <i name="NUPDOWN">      1.00000000</i>
  <i name="NELECT">    480.00000000</i>
  <i type="string" name="LREAL">AUTO</i>
  <i type="int" name="ISMEAR">     0</i>
  <i name="SIGMA">      0.01000000</i>
  <i type="int" name="LMAXMIX">     6</i>
  <i type="logical" name="LWAVE"> F  </i>
  <i type="logical" name="LVTOT"> F  </i>
  <i type="logical" name="LVHAR"> T  </i>
  <i type="logical" name="LASPH"> T  </i>
  <i type="logical" name="LMIXTAU"> T  </i>
 </incar>
 <primitive_cell>
  <structure name="primitive_cell" >
   <crystal>
    <varray name="basis" >
     <v>       7.68059444       0.00000000       0.00000000 </v>
     <v>       0.00000000      16.29299927       0.00000000 </v>
     <v>       0.00000000       0.00000000      21.00086403 </v>
    </varray>
    <i name="volume">   2628.04643725 </i>
    <varray name="rec_basis" >
     <v>       0.13019826       0.00000000       0.00000000 </v>
     <v>       0.00000000       0.06137605       0.00000000 </v>
     <v>       0.00000000       0.00000000       0.04761709 </v>
    </varray>
   </crystal>
   <varray name="positions" >
    <v>       0.97851729       0.98567820       0.00000000 </v>
    <v>       0.72851723       0.81901145       0.09143190 </v>
    <v>       0.47851718       0.65234476       0.18286380 </v>
    <v>       0.22851723       0.48567814       0.27429566 </v>
    <v>       0.97851718       0.31901139       0.36572757 </v>
    <v>       0.36432147       0.94633603       0.56019974 </v>
    <v>       0.36432147       0.94633615       0.82960773 </v>
    <v>       0.72851723       0.15234485       0.09143190 </v>
    <v>       0.47851718       0.98567814       0.18286380 </v>
    <v>       0.22851723       0.81901151       0.27429566 </v>
    <v>       0.97851718       0.65234476       0.36572757 </v>
    <v>       0.72851718       0.48567808       0.45715946 </v>
    <v>       0.97851729       0.65234494       0.00000000 </v>
    <v>       0.72851723       0.48567820       0.09143190 </v>
    <v>       0.47851718       0.31901151       0.18286380 </v>
    <v>       0.22851723       0.15234487       0.27429566 </v>
    <v>       0.97851718       0.98567814       0.36572757 </v>
    <v>       0.72851718       0.81901139       0.45715946 </v>
    <v>       0.47851729       0.98567820       0.00000000 </v>
    <v>       0.22851725       0.81901145       0.09143190 </v>
    <v>       0.97851723       0.65234476       0.18286380 </v>
    <v>       0.72851729       0.48567814       0.27429563 </v>
    <v>       0.47851718       0.31901139       0.36572757 </v>
    <v>       0.22851712       0.15234470       0.45715946 </v>
    <v>       0.47851729       0.31901154       0.00000000 </v>
    <v>       0.22851725       0.15234485       0.09143190 </v>
    <v>       0.97851723       0.98567814       0.18286380 </v>
    <v>       0.72851729       0.81901151       0.27429563 </v>
    <v>       0.47851718       0.65234476       0.36572757 </v>
    <v>       0.22851712       0.48567808       0.45715946 </v>
    <v>       0.11432147       0.44633609       0.89695972 </v>
    <v>       0.22851725       0.48567820       0.09143190 </v>
    <v>       0.97851723       0.31901151       0.18286380 </v>
    <v>       0.72851729       0.15234487       0.27429563 </v>
    <v>       0.47851718       0.98567814       0.36572757 </v>
    <v>       0.61432147       0.44633606       0.62755173 </v>
    <v>       0.11432147       0.69633609       0.89695972 </v>
    <v>       0.47851729       0.06901149       0.09143189 </v>
    <v>       0.22851726       0.90234476       0.18286380 </v>
    <v>       0.97851729       0.73567814       0.27429566 </v>
    <v>       0.72851723       0.56901145       0.36572757 </v>
    <v>       0.86432147       0.44633609       0.56019974 </v>
    <v>       0.72851735       0.56901163       0.00000000 </v>
    <v>       0.47851729       0.40234488       0.09143189 </v>
    <v>       0.22851726       0.23567820       0.18286380 </v>
    <v>       0.86432147       0.69633603       0.56019974 </v>
    <v>       0.72851723       0.90234482       0.36572757 </v>
    <v>       0.47851723       0.73567808       0.45715940 </v>
    <v>       0.72851735       0.90234494       0.00000000 </v>
    <v>       0.11432147       0.94633603       0.89695972 </v>
    <v>       0.22851726       0.56901151       0.18286380 </v>
    <v>       0.97851729       0.40234485       0.27429566 </v>
    <v>       0.36432147       0.44633606       0.56019974 </v>
    <v>       0.47851723       0.06901138       0.45715940 </v>
    <v>       0.22851729       0.23567820       0.00000000 </v>
    <v>       0.97851723       0.06901149       0.09143190 </v>
    <v>       0.72851718       0.90234476       0.18286380 </v>
    <v>       0.47851729       0.73567814       0.27429563 </v>
    <v>       0.22851718       0.56901145       0.36572757 </v>
    <v>       0.97851706       0.40234464       0.45715946 </v>
    <v>       0.22851729       0.56901163       0.00000000 </v>
    <v>       0.97851723       0.40234488       0.09143190 </v>
    <v>       0.72851718       0.23567820       0.18286380 </v>
    <v>       0.47851729       0.06901154       0.27429563 </v>
    <v>       0.22851718       0.90234482       0.36572757 </v>
    <v>       0.36432147       0.19633615       0.56019974 </v>
    <v>       0.61432147       0.94633603       0.89695972 </v>
    <v>       0.97851723       0.73567820       0.09143190 </v>
    <v>       0.61432147       0.19633615       0.89695972 </v>
    <v>       0.47851729       0.40234485       0.27429563 </v>
    <v>       0.22851718       0.23567812       0.36572757 </v>
    <v>       0.97851706       0.06901138       0.45715946 </v>
    <v>       0.97851729       0.06901154       0.27429566 </v>
    <v>       0.61432147       0.32133609       0.69490373 </v>
    <v>       0.97851729       0.31901154       0.00000000 </v>
    <v>       0.72851718       0.15234470       0.45715946 </v>
    <v>       0.11432147       0.57133609       0.69490373 </v>
    <v>       0.86432147       0.19633615       0.82960773 </v>
    <v>       0.86432147       0.19633615       0.56019974 </v>
    <v>       0.61432147       0.82133615       0.69490373 </v>
    <v>       0.36432147       0.44633609       0.82960773 </v>
    <v>       0.72851723       0.23567812       0.36572757 </v>
    <v>       0.11432147       0.07133615       0.69490373 </v>
    <v>       0.86432147       0.69633609       0.82960773 </v>
    <v>       0.11432147       0.69633603       0.62755173 </v>
    <v>       0.86432147       0.32133609       0.76225573 </v>
    <v>       0.22851729       0.90234494       0.00000000 </v>
    <v>       0.61432147       0.94633603       0.62755173 </v>
    <v>       0.36432147       0.57133609       0.76225573 </v>
    <v>       0.11432147       0.19633603       0.89695972 </v>
    <v>       0.11432147       0.19633615       0.62755173 </v>
    <v>       0.86432147       0.82133615       0.76225573 </v>
    <v>       0.61432147       0.44633609       0.89695972 </v>
    <v>       0.22851712       0.81901139       0.45715946 </v>
    <v>       0.36432147       0.07133615       0.76225573 </v>
    <v>       0.72851735       0.23567820       0.00000000 </v>
    <v>       0.86432147       0.94633609       0.56019974 </v>
    <v>       0.61432159       0.57133615       0.69490373 </v>
    <v>       0.36432147       0.19633615       0.82960773 </v>
    <v>       0.47851723       0.40234464       0.45715940 </v>
    <v>       0.61432147       0.07133615       0.69490373 </v>
    <v>       0.36432147       0.69633609       0.82960773 </v>
    <v>       0.36432147       0.69633609       0.56019974 </v>
    <v>       0.11432147       0.32133615       0.69490373 </v>
    <v>       0.86432147       0.94633615       0.82960773 </v>
    <v>       0.97851706       0.73567808       0.45715946 </v>
    <v>       0.11432147       0.82133609       0.69490373 </v>
    <v>       0.86432147       0.44633615       0.82960773 </v>
    <v>       0.11432159       0.94633609       0.62755173 </v>
    <v>       0.86432147       0.57133615       0.76225573 </v>
    <v>       0.72851718       0.56901151       0.18286380 </v>
    <v>       0.11432147       0.44633609       0.62755173 </v>
    <v>       0.86432147       0.07133615       0.76225573 </v>
    <v>       0.61432147       0.69633609       0.89695972 </v>
    <v>       0.61432147       0.69633603       0.62755173 </v>
    <v>       0.36432147       0.32133606       0.76225573 </v>
    <v>       0.47851729       0.73567820       0.09143189 </v>
    <v>       0.61432147       0.19633615       0.62755173 </v>
    <v>       0.36432147       0.82133615       0.76225573 </v>
    <v>       0.47851729       0.65234494       0.00000000 </v>
   </varray>
  </structure>
  <varray name="primitive_index" >
   <v type="int" >        1 </v>
   <v type="int" >        2 </v>
   <v type="int" >        3 </v>
   <v type="int" >        4 </v>
   <v type="int" >        5 </v>
   <v type="int" >        6 </v>
   <v type="int" >        7 </v>
   <v type="int" >        8 </v>
   <v type="int" >        9 </v>
   <v type="int" >       10 </v>
   <v type="int" >       11 </v>
   <v type="int" >       12 </v>
   <v type="int" >       13 </v>
   <v type="int" >       14 </v>
   <v type="int" >       15 </v>
   <v type="int" >       16 </v>
   <v type="int" >       17 </v>
   <v type="int" >       18 </v>
   <v type="int" >       19 </v>
   <v type="int" >       20 </v>
   <v type="int" >       21 </v>
   <v type="int" >       22 </v>
   <v type="int" >       23 </v>
   <v type="int" >       24 </v>
   <v type="int" >       25 </v>
   <v type="int" >       26 </v>
   <v type="int" >       27 </v>
   <v type="int" >       28 </v>
   <v type="int" >       29 </v>
   <v type="int" >       30 </v>
   <v type="int" >       31 </v>
   <v type="int" >       32 </v>
   <v type="int" >       33 </v>
   <v type="int" >       34 </v>
   <v type="int" >       35 </v>
   <v type="int" >       36 </v>
   <v type="int" >       37 </v>
   <v type="int" >       38 </v>
   <v type="int" >       39 </v>
   <v type="int" >       40 </v>
   <v type="int" >       41 </v>
   <v type="int" >       42 </v>
   <v type="int" >       43 </v>
   <v type="int" >       44 </v>
   <v type="int" >       45 </v>
   <v type="int" >       46 </v>
   <v type="int" >       47 </v>
   <v type="int" >       48 </v>
   <v type="int" >       49 </v>
   <v type="int" >       50 </v>
   <v type="int" >       51 </v>
   <v type="int" >       52 </v>
   <v type="int" >       53 </v>
   <v type="int" >       54 </v>
   <v type="int" >       55 </v>
   <v type="int" >       56 </v>
   <v type="int" >       57 </v>
   <v type="int" >       58 </v>
   <v type="int" >       59 </v>
   <v type="int" >       60 </v>
   <v type="int" >       61 </v>
   <v type="int" >       62 </v>
   <v type="int" >       63 </v>
   <v type="int" >       64 </v>
   <v type="int" >       65 </v>
   <v type="int" >       66 </v>
   <v type="int" >       67 </v>
   <v type="int" >       68 </v>
   <v type="int" >       69 </v>
   <v type="int" >       70 </v>
   <v type="int" >       71 </v>
   <v type="int" >       72 </v>
   <v type="int" >       73 </v>
   <v type="int" >       74 </v>
   <v type="int" >       75 </v>
   <v type="int" >       76 </v>
   <v type="int" >       77 </v>
   <v type="int" >       78 </v>
   <v type="int" >       79 </v>
   <v type="int" >       80 </v>
   <v type="int" >       81 </v>
   <v type="int" >       82 </v>
   <v type="int" >       83 </v>
   <v type="int" >       84 </v>
   <v type="int" >       85 </v>
   <v type="int" >       86 </v>
   <v type="int" >       87 </v>
   <v type="int" >       88 </v>
   <v type="int" >       89 </v>
   <v type="int" >       90 </v>
   <v type="int" >       91 </v>
   <v type="int" >       92 </v>
   <v type="int" >       93 </v>
   <v type="int" >       94 </v>
   <v type="int" >       95 </v>
   <v type="int" >       96 </v>
   <v type="int" >       97 </v>
   <v type="int" >       98 </v>
   <v type="int" >       99 </v>
   <v type="int" >      100 </v>
   <v type="int" >      101 </v>
   <v type="int" >      102 </v>
   <v type="int" >      103 </v>
   <v type="int" >      104 </v>
   <v type="int" >      105 </v>
   <v type="int" >      106 </v>
   <v type="int" >      107 </v>
   <v type="int" >      108 </v>
   <v type="int" >      109 </v>
   <v type="int" >      110 </v>
   <v type="int" >      111 </v>
   <v type="int" >      112 </v>
   <v type="int" >      113 </v>
   <v type="int" >      114 </v>
   <v type="int" >      115 </v>
   <v type="int" >      116 </v>
   <v type="int" >      117 </v>
   <v type="int" >      118 </v>
   <v type="int" >      119 </v>
   <v type="int" >      120 </v>
  </varray>
 </primitive_cell>
 <kpoints>
  <generation param="Gamma">
   <v type="int" name="divisions">       4        2        1 </v>
   <v name="usershift">      0.00000000       0.00000000       0.00000000 </v>
   <v name="genvec1">      0.25000000       0.00000000       0.00000000 </v>
   <v name="genvec2">      0.00000000       0.50000000       0.00000000 </v>
   <v name="genvec3">      0.00000000       0.00000000       1.00000000 </v>
   <v name="shift">      0.00000000       0.00000000       0.00000000 </v>
  </generation>
  <varray name="kpointlist" >
   <v>       0.00000000       0.00000000       0.00000000 </v>
   <v>       0.25000000       0.00000000       0.00000000 </v>
   <v>       0.50000000       0.00000000       0.00000000 </v>
   <v>       0.00000000       0.50000000       0.00000000 </v>
   <v>       0.25000000       0.50000000       0.00000000 </v>
   <v>       0.50000000       0.50000000       0.00000000 </v>
  </varray>
  <varray name="weights" >
   <v>       0.12500000 </v>
   <v>       0.25000000 </v>
   <v>       0.12500000 </v>
   <v>       0.12500000 </v>
   <v>       0.25000000 </v>
   <v>       0.12500000 </v>
  </varray>
 </kpoints>
 <parameters>
  <separator name="general" >
   <i type="string" name="SYSTEM">Si and Ge interface calculation</i>
   <i type="logical" name="LCOMPAT"> F  </i>
  </separator>
  <separator name="electronic" >
   <i type="string" name="PREC">normal</i>
   <i name="ENMAX">    700.00000000</i>
   <i name="ENAUG">    900.00000000</i>
   <i name="EDIFF">      0.00000010</i>
   <i type="int" name="IALGO">    38</i>
   <i type="int" name="IWAVPR">    10</i>
   <i type="int" name="NBANDS">   288</i>
   <i type="int" name="NBANDSLOW">    -1</i>
   <i type="int" name="NBANDSHIGH">    -1</i>
   <i name="NELECT">    480.00000000</i>
   <i type="int" name="TURBO">     0</i>
   <i type="int" name="IRESTART">     0</i>
   <i type="int" name="NREBOOT">     0</i>
   <i type="int" name="NMIN">     0</i>
   <i name="EREF">      0.00000000</i>
   <separator name="electronic smearing" >
    <i type="int" name="ISMEAR">     0</i>
    <i name="SIGMA">      0.01000000</i>
    <i name="KSPACING">      0.50000000</i>
    <i type="logical" name="KGAMMA"> T  </i>
    <i type="logical" name="KBLOWUP"> T  </i>
   </separator>
   <separator name="electronic projectors" >
    <i type="logical" name="LREAL"> T  </i>
    <v name="ROPT">     -0.00050000     -0.00050000</v>
    <i type="int" name="LMAXPAW">  -100</i>
    <i type="int" name="LMAXMIX">     6</i>
    <i type="logical" name="NLSPLINE"> F  </i>
   </separator>
   <separator name="electronic startup" >
    <i type="int" name="ISTART">     0</i>
    <i type="int" name="ICHARG">     2</i>
    <i type="int" name="INIWAV">     1</i>
   </separator>
   <separator name="electronic spin" >
    <i type="int" name="ISPIN">     2</i>
    <i type="logical" name="LNONCOLLINEAR"> F  </i>
    <v name="MAGMOM">      0.00833333      0.00833333      0.00833333      0.00833333      0.00833333      0.00833333      0.00833333      0.00833333      0.00833333      0.00833333      0.00833333      0.00833333      0.00833333      0.00833333      0.00833333      0.00833333      0.00833333      0.00833333      0.00833333      0.00833333
      0.00833333      0.00833333      0.00833333      0.00833333      0.00833333      0.00833333      0.00833333      0.00833333      0.00833333      0.00833333      0.00833333      0.00833333      0.00833333      0.00833333      0.00833333      0.00833333      0.00833333      0.00833333      0.00833333      0.00833333
      0.00833333      0.00833333      0.00833333      0.00833333      0.00833333      0.00833333      0.00833333      0.00833333      0.00833333      0.00833333      0.00833333      0.00833333      0.00833333      0.00833333      0.00833333      0.00833333      0.00833333      0.00833333      0.00833333      0.00833333
      0.00833333      0.00833333      0.00833333      0.00833333      0.00833333      0.00833333      0.00833333      0.00833333      0.00833333      0.00833333      0.00833333      0.00833333      0.00833333      0.00833333      0.00833333      0.00833333      0.00833333      0.00833333      0.00833333      0.00833333
      0.00833333      0.00833333      0.00833333      0.00833333      0.00833333      0.00833333      0.00833333      0.00833333      0.00833333      0.00833333      0.00833333      0.00833333      0.00833333      0.00833333      0.00833333      0.00833333      0.00833333      0.00833333      0.00833333      0.00833333
      0.00833333      0.00833333      0.00833333      0.00833333      0.00833333      0.00833333      0.00833333      0.00833333      0.00833333      0.00833333      0.00833333      0.00833333      0.00833333      0.00833333      0.00833333      0.00833333      0.00833333      0.00833333      0.00833333      0.00833333
</v>
    <i name="NUPDOWN">      1.00000000</i>
    <i type="logical" name="LSORBIT"> F  </i>
    <v name="SAXIS">      0.00000000      0.00000000      1.00000000</v>
    <i type="logical" name="LSPIRAL"> F  </i>
    <v name="QSPIRAL">      0.00000000      0.00000000      0.00000000</v>
    <i type="logical" name="LZEROZ"> F  </i>
   </separator>
   <separator name="electronic exchange-correlation" >
    <i type="logical" name="LASPH"> T  </i>
   </separator>
   <separator name="electronic convergence" >
    <i type="int" name="NELM">   100</i>
    <i type="int" name="NELMDL">    -5</i>
    <i type="int" name="NELMIN">     2</i>
    <i name="ENINI">    700.00000000</i>
    <separator name="electronic convergence detail" >
     <i type="logical" name="LDIAG"> T  </i>
     <i type="logical" name="LSUBROT"> F  </i>
     <i name="WEIMIN">      0.00000000</i>
     <i name="EBREAK">      0.00000000</i>
     <i name="DEPER">      0.30000000</i>
     <i type="int" name="NRMM">     4</i>
     <i name="TIME">      0.40000000</i>
    </separator>
   </separator>
   <separator name="electronic mixer" >
    <i name="AMIX">      0.60000000</i>
    <i name="BMIX">      1.00000000</i>
    <i name="AMIN">      0.10000000</i>
    <i name="AMIX_MAG">      2.40000000</i>
    <i name="BMIX_MAG">      1.00000000</i>
    <separator name="electronic mixer details" >
     <i type="int" name="IMIX">     4</i>
     <i type="logical" name="MIXFIRST"> F  </i>
     <i type="int" name="MAXMIX">   -45</i>
     <i name="WC">    100.00000000</i>
     <i type="int" name="INIMIX">     1</i>
     <i type="int" name="MIXPRE">     1</i>
     <i type="int" name="MREMOVE">     5</i>
    </separator>
   </separator>
   <separator name="electronic dipolcorrection" >
    <i type="logical" name="LDIPOL"> F  </i>
    <i type="logical" name="LMONO"> F  </i>
    <i type="int" name="IDIPOL">     0</i>
    <i name="EPSILON">      1.00000000</i>
    <v name="DIPOL">   -100.00000000   -100.00000000   -100.00000000</v>
    <i name="EFIELD">      0.00000000</i>
    <i type="logical" name="LVACPOTAV"> F  </i>
   </separator>
  </separator>
  <separator name="grids" >
   <i type="int" name="NGX">    50</i>
   <i type="int" name="NGY">   108</i>
   <i type="int" name="NGZ">   140</i>
   <i type="int" name="NGXF">   100</i>
   <i type="int" name="NGYF">   216</i>
   <i type="int" name="NGZF">   280</i>
   <i type="logical" name="ADDGRID"> T  </i>
  </separator>
  <separator name="ionic" >
   <i type="int" name="NSW">     0</i>
   <i type="int" name="IBRION">    -1</i>
   <i type="int" name="MDALGO">     0</i>
   <i type="int" name="ISIF">     2</i>
   <i name="PSTRESS">      0.00000000</i>
   <i name="EDIFFG">      0.00000100</i>
   <i type="int" name="NFREE">     0</i>
   <i name="POTIM">      0.50000000</i>
   <i name="SMASS">     -3.00000000</i>
   <i name="SCALEE">      1.00000000</i>
  </separator>
  <separator name="ionic md" >
   <i name="TEBEG">      0.00010000</i>
   <i name="TEEND">      0.00010000</i>
   <i type="int" name="NBLOCK">     1</i>
   <i type="int" name="KBLOCK">     1</i>
   <i type="int" name="NPACO">   256</i>
   <i name="APACO">     10.00000000</i>
  </separator>
  <separator name="symmetry" >
   <i type="int" name="ISYM">     2</i>
   <i name="SYMPREC">      0.00001000</i>
  </separator>
  <separator name="dos" >
   <i type="int" name="LORBIT">     0</i>
   <v name="RWIGS">     -1.00000000     -1.00000000</v>
   <i type="int" name="NEDOS">   301</i>
   <i name="EMIN">     10.00000000</i>
   <i name="EMAX">    -10.00000000</i>
   <i name="EFERMI">      0.00000000</i>
  </separator>
  <separator name="writing" >
   <i type="int" name="NWRITE">     2</i>
   <i type="logical" name="LWAVE"> F  </i>
   <i type="logical" name="LDOWNSAMPLE"> F  </i>
   <i type="logical" name="LCHARG"> T  </i>
   <i type="logical" name="LPARD"> F  </i>
   <i type="logical" name="LVTOT"> F  </i>
   <i type="logical" name="LVHAR"> T  </i>
   <i type="logical" name="LELF"> F  </i>
   <i type="logical" name="LOPTICS"> F  </i>
   <v name="STM">      0.00000000      0.00000000      0.00000000      0.00000000      0.00000000      0.00000000      0.00000000</v>
  </separator>
  <separator name="performance" >
   <i type="int" name="NPAR">     4</i>
   <i type="int" name="NSIM">     4</i>
   <i type="int" name="NBLK">    -1</i>
   <i type="logical" name="LPLANE"> T  </i>
   <i type="logical" name="LSCALAPACK"> T  </i>
   <i type="logical" name="LSCAAWARE"> F  </i>
   <i type="logical" name="LSCALU"> F  </i>
   <i type="logical" name="LASYNC"> F  </i>
   <i type="logical" name="LORBITALREAL"> F  </i>
  </separator>
  <separator name="miscellaneous" >
   <i type="int" name="IDIOT">     3</i>
   <i type="int" name="PHON_NSTRUCT">    -1</i>
   <i type="logical" name="LMUSIC"> F  </i>
   <v name="POMASS">     28.08500000     72.61000000</v>
   <v name="DARWINR">      0.00000000      0.00000000</v>
   <v name="DARWINV">      1.00000000      1.00000000</v>
   <i type="logical" name="LCORR"> T  </i>
  </separator>
  <i type="logical" name="GGA_COMPAT"> T  </i>
  <i type="logical" name="LBERRY"> F  </i>
  <i type="int" name="ICORELEVEL">     0</i>
  <i type="logical" name="LDAU"> F  </i>
  <i type="int" name="I_CONSTRAINED_M">     0</i>
  <separator name="electronic exchange-correlation" >
   <i type="string" name="GGA    ">PE</i>
   <i type="string" name="XC_C">1</i>
   <i type="int" name="VOSKOWN">     0</i>
   <i type="logical" name="LHFCALC"> F  </i>
   <i type="string" name="PRECFOCK"></i>
   <i type="logical" name="LSYMGRAD"> F  </i>
   <i type="logical" name="LHFONE"> F  </i>
   <i type="logical" name="LRHFCALC"> F  </i>
   <i type="logical" name="LTHOMAS"> F  </i>
   <i type="logical" name="LMODELHF"> F  </i>
   <i type="logical" name="LFOCKACE"> F  </i>
   <i name="ENCUT4O">     -1.00000000</i>
   <i type="int" name="EXXOEP">     0</i>
   <i type="int" name="FOURORBIT">     0</i>
   <i name="AEXX">      0.00000000</i>
   <i name="HFALPHA">      0.00000000</i>
   <i name="MCALPHA">      0.00000000</i>
   <i name="ALDAX">      1.00000000</i>
   <i name="AGGAX">      1.00000000</i>
   <i name="AMGGAX">      1.00000000</i>
   <i name="ALDAC">      1.00000000</i>
   <i name="AGGAC">      1.00000000</i>
   <i name="AMGGAC">      1.00000000</i>
   <i type="int" name="NKREDX">     1</i>
   <i type="int" name="NKREDY">     1</i>
   <i type="int" name="NKREDZ">     1</i>
   <i type="logical" name="SHIFTRED"> F  </i>
   <i type="logical" name="ODDONLY"> F  </i>
   <i type="logical" name="EVENONLY"> F  </i>
   <i type="int" name="LMAXFOCK">     0</i>
   <i type="int" name="NMAXFOCKAE">     0</i>
   <i type="logical" name="LFOCKAEDFT"> F  </i>
   <i name="HFSCREEN">      0.00000000</i>
   <i name="HFSCREENC">      0.00000000</i>
   <i type="int" name="NBANDSGWLOW">     0</i>
  </separator>
  <separator name="vdW DFT" >
   <i type="logical" name="LUSE_VDW"> F  </i>
   <i type="int" name="IVDW_NL">    -1</i>
   <i type="logical" name="LSPIN_VDW"> F  </i>
   <i name="ZAB_VDW">     -0.84910000</i>
   <i name="GAMMA_VDW">      1.39626340</i>
   <i name="ALPHA_VDW">      0.00000000</i>
   <i name="PARAM1">      0.12340000</i>
   <i name="PARAM2">      1.00000000</i>
   <i name="BPARAM">      6.30000000</i>
   <i name="CPARAM">      0.00930000</i>
  </separator>
  <separator name="model GW" >
   <i type="int" name="MODEL_GW">     0</i>
   <i name="MODEL_EPS0">     13.14023219</i>
   <i name="MODEL_ALPHA">      1.00000000</i>
  </separator>
  <separator name="linear response parameters" >
   <i type="logical" name="LEPSILON"> F  </i>
   <i type="logical" name="LRPA"> F  </i>
   <i type="logical" name="LNABLA"> F  </i>
   <i type="logical" name="LVEL"> F  </i>
   <i name="CSHIFT">      0.10000000</i>
   <i name="OMEGAMAX">     -1.00000000</i>
   <i name="DEG_THRESHOLD">      0.00200000</i>
   <i name="RTIME">     -0.10000000</i>
   <i name="WPLASMAI">      0.00000000</i>
   <v name="DFIELD">      0.00000000      0.00000000      0.00000000</v>
   <v name="WPLASMA">      0.00000000      0.00000000      0.00000000      0.00000000      0.00000000      0.00000000      0.00000000      0.00000000      0.00000000</v>
  </separator>
  <separator name="orbital magnetization" >
   <i type="logical" name="NUCIND"> F  </i>
   <v name="MAGPOS">      0.00000000      0.00000000      0.00000000</v>
   <i type="logical" name="LNICSALL"> T  </i>
   <i type="logical" name="ORBITALMAG"> F  </i>
   <i type="logical" name="LMAGBLOCH"> F  </i>
   <i type="logical" name="LCHIMAG"> F  </i>
   <i type="logical" name="LGAUGE"> T  </i>
   <i type="int" name="MAGATOM">     0</i>
   <v name="MAGDIPOL">      0.00000000      0.00000000      0.00000000</v>
   <v name="AVECCONST">      0.00000000      0.00000000      0.00000000</v>
  </separator>
  <separator name="response functions" >
   <i type="logical" name="LALL_IN_ONE"> F  </i>
   <i type="int" name="IALL_IN_ONE">    -1</i>
   <i type="int" name="NBANDS_WAVE">    -1</i>
   <i type="logical" name="LFINITE_TEMPERATURE"> F  </i>
   <i type="logical" name="LADDER"> F  </i>
   <i type="logical" name="LRPAFORCE"> F  </i>
   <i type="logical" name="LFXC"> F  </i>
   <i type="logical" name="LHARTREE"> T  </i>
   <i type="int" name="IBSE">     0</i>
   <v type="int" name="KPOINT">    -1     0     0     0</v>
   <i type="logical" name="LTCTC"> F  </i>
   <i type="logical" name="LTCTE"> F  </i>
   <i type="logical" name="LTETE"> F  </i>
   <i type="logical" name="LTRIPLET"> F  </i>
   <i type="logical" name="LFXCEPS"> F  </i>
   <i type="logical" name="LFXHEG"> F  </i>
   <i type="int" name="NATURALO">     2</i>
   <i type="logical" name="LHOLEGF"> F  </i>
   <i type="logical" name="L2ORDER"> F  </i>
   <i type="logical" name="LDMP1"> F  </i>
   <i type="logical" name="LMP2LT"> F  </i>
   <i type="logical" name="LSMP2LT"> F  </i>
   <i type="logical" name="LGWLF"> F  </i>
   <i name="ENCUTGW">     -1.60000002</i>
   <i name="ENCUTGWSOFT">     -1.60000002</i>
   <i name="ENCUTLF">     -1.00000000</i>
   <i type="logical" name="ESF_SPLINES"> F  </i>
   <i name="ESF_CONV">      0.01000000</i>
   <i type="int" name="ESF_NINTER">    15</i>
   <i type="int" name="LMAXMP2">    -1</i>
   <i name="SCISSOR">      0.00000000</i>
   <i type="int" name="NOMEGA">     0</i>
   <i type="int" name="NOMEGAR">     0</i>
   <i type="int" name="NBANDSGW">    -1</i>
   <i type="int" name="NBANDSO">    -1</i>
   <i type="int" name="NBANDSV">    -1</i>
   <i type="int" name="NELMGW">     1</i>
   <i type="int" name="NELMHF">     1</i>
   <i type="int" name="DIM">     3</i>
   <i type="int" name="IESPILON">     4</i>
   <i type="int" name="ANTIRES">     0</i>
   <i name="OMEGAMAX">    -30.00000000</i>
   <i name="OMEGAMIN">    -30.00000000</i>
   <i name="OMEGATL">   -200.00000000</i>
   <i type="int" name="OMEGAGRID">     0</i>
   <i name="CSHIFT">     -0.10000000</i>
   <i type="logical" name="LSELFENERGY"> F  </i>
   <i type="logical" name="LSPECTRAL"> F  </i>
   <i type="logical" name="LSPECTRALGW"> F  </i>
   <i type="logical" name="LSINGLES"> F  </i>
   <i type="logical" name="LFERMIGW"> F  </i>
   <i type="logical" name="ODDONLYGW"> F  </i>
   <i type="logical" name="EVENONLYGW"> F  </i>
   <i type="int" name="NKREDLFX">     1</i>
   <i type="int" name="NKREDLFY">     1</i>
   <i type="int" name="NKREDLFZ">     1</i>
   <i type="int" name="MAXMEM">  2800</i>
   <i type="int" name="TELESCOPE">     0</i>
   <i type="int" name="NTAUPAR">    -1</i>
   <i type="int" name="NOMEGAPAR">    -1</i>
   <i name="DAMP_NEWTON">      0.80000001</i>
   <i name="LAMBDA">      1.00000000</i>
  </separator>
  <separator name="External order field" >
   <i name="OFIELD_KAPPA">      0.00000000</i>
   <v name="OFIELD_K">      0.00000000      0.00000000      0.00000000</v>
   <i name="OFIELD_Q6_NEAR">      0.00000000</i>
   <i name="OFIELD_Q6_FAR">      0.00000000</i>
   <i name="OFIELD_A">      0.00000000</i>
  </separator>
  <separator name="optional k-points parameters" >
   <i type="int" name="KPOINTS_OPT_MODE">     1</i>
   <i type="logical" name="LKPOINTS_OPT"> F  </i>
  </separator>
 </parameters>
 <atominfo>
  <atoms>     120 </atoms>
  <types>       2 </types>
  <array name="atoms" >
   <dimension dim="1">ion</dimension>
   <field type="string">element</field>
   <field type="int">atomtype</field>
   <set>
    <rc><c>Si</c><c>   1</c></rc>
    <rc><c>Si</c><c>   1</c></rc>
    <rc><c>Si</c><c>   1</c></rc>
    <rc><c>Si</c><c>   1</c></rc>
    <rc><c>Si</c><c>   1</c></rc>
    <rc><c>Si</c><c>   1</c></rc>
    <rc><c>Si</c><c>   1</c></rc>
    <rc><c>Si</c><c>   1</c></rc>
    <rc><c>Si</c><c>   1</c></rc>
    <rc><c>Si</c><c>   1</c></rc>
    <rc><c>Si</c><c>   1</c></rc>
    <rc><c>Si</c><c>   1</c></rc>
    <rc><c>Si</c><c>   1</c></rc>
    <rc><c>Si</c><c>   1</c></rc>
    <rc><c>Si</c><c>   1</c></rc>
    <rc><c>Si</c><c>   1</c></rc>
    <rc><c>Si</c><c>   1</c></rc>
    <rc><c>Si</c><c>   1</c></rc>
    <rc><c>Si</c><c>   1</c></rc>
    <rc><c>Si</c><c>   1</c></rc>
    <rc><c>Si</c><c>   1</c></rc>
    <rc><c>Si</c><c>   1</c></rc>
    <rc><c>Si</c><c>   1</c></rc>
    <rc><c>Si</c><c>   1</c></rc>
    <rc><c>Si</c><c>   1</c></rc>
    <rc><c>Si</c><c>   1</c></rc>
    <rc><c>Si</c><c>   1</c></rc>
    <rc><c>Si</c><c>   1</c></rc>
    <rc><c>Si</c><c>   1</c></rc>
    <rc><c>Si</c><c>   1</c></rc>
    <rc><c>Si</c><c>   1</c></rc>
    <rc><c>Si</c><c>   1</c></rc>
    <rc><c>Si</c><c>   1</c></rc>
    <rc><c>Si</c><c>   1</c></rc>
    <rc><c>Si</c><c>   1</c></rc>
    <rc><c>Si</c><c>   1</c></rc>
    <rc><c>Si</c><c>   1</c></rc>
    <rc><c>Si</c><c>   1</c></rc>
    <rc><c>Si</c><c>   1</c></rc>
    <rc><c>Si</c><c>   1</c></rc>
    <rc><c>Si</c><c>   1</c></rc>
    <rc><c>Si</c><c>   1</c></rc>
    <rc><c>Si</c><c>   1</c></rc>
    <rc><c>Si</c><c>   1</c></rc>
    <rc><c>Si</c><c>   1</c></rc>
    <rc><c>Si</c><c>   1</c></rc>
    <rc><c>Si</c><c>   1</c></rc>
    <rc><c>Si</c><c>   1</c></rc>
    <rc><c>Si</c><c>   1</c></rc>
    <rc><c>Si</c><c>   1</c></rc>
    <rc><c>Si</c><c>   1</c></rc>
    <rc><c>Si</c><c>   1</c></rc>
    <rc><c>Si</c><c>   1</c></rc>
    <rc><c>Si</c><c>   1</c></rc>
    <rc><c>Si</c><c>   1</c></rc>
    <rc><c>Si</c><c>   1</c></rc>
    <rc><c>Si</c><c>   1</c></rc>
    <rc><c>Si</c><c>   1</c></rc>
    <rc><c>Si</c><c>   1</c></rc>
    <rc><c>Si</c><c>   1</c></rc>
    <rc><c>Si</c><c>   1</c></rc>
    <rc><c>Si</c><c>   1</c></rc>
    <rc><c>Si</c><c>   1</c></rc>
    <rc><c>Si</c><c>   1</c></rc>
    <rc><c>Si</c><c>   1</c></rc>
    <rc><c>Si</c><c>   1</c></rc>
    <rc><c>Si</c><c>   1</c></rc>
    <rc><c>Si</c><c>   1</c></rc>
    <rc><c>Si</c><c>   1</c></rc>
    <rc><c>Si</c><c>   1</c></rc>
    <rc><c>Si</c><c>   1</c></rc>
    <rc><c>Si</c><c>   1</c></rc>
    <rc><c>Ge</c><c>   2</c></rc>
    <rc><c>Ge</c><c>   2</c></rc>
    <rc><c>Ge</c><c>   2</c></rc>
    <rc><c>Ge</c><c>   2</c></rc>
    <rc><c>Ge</c><c>   2</c></rc>
    <rc><c>Ge</c><c>   2</c></rc>
    <rc><c>Ge</c><c>   2</c></rc>
    <rc><c>Ge</c><c>   2</c></rc>
    <rc><c>Ge</c><c>   2</c></rc>
    <rc><c>Ge</c><c>   2</c></rc>
    <rc><c>Ge</c><c>   2</c></rc>
    <rc><c>Ge</c><c>   2</c></rc>
    <rc><c>Ge</c><c>   2</c></rc>
    <rc><c>Ge</c><c>   2</c></rc>
    <rc><c>Ge</c><c>   2</c></rc>
    <rc><c>Ge</c><c>   2</c></rc>
    <rc><c>Ge</c><c>   2</c></rc>
    <rc><c>Ge</c><c>   2</c></rc>
    <rc><c>Ge</c><c>   2</c></rc>
    <rc><c>Ge</c><c>   2</c></rc>
    <rc><c>Ge</c><c>   2</c></rc>
    <rc><c>Ge</c><c>   2</c></rc>
    <rc><c>Ge</c><c>   2</c></rc>
    <rc><c>Ge</c><c>   2</c></rc>
    <rc><c>Ge</c><c>   2</c></rc>
    <rc><c>Ge</c><c>   2</c></rc>
    <rc><c>Ge</c><c>   2</c></rc>
    <rc><c>Ge</c><c>   2</c></rc>
    <rc><c>Ge</c><c>   2</c></rc>
    <rc><c>Ge</c><c>   2</c></rc>
    <rc><c>Ge</c><c>   2</c></rc>
    <rc><c>Ge</c><c>   2</c></rc>
    <rc><c>Ge</c><c>   2</c></rc>
    <rc><c>Ge</c><c>   2</c></rc>
    <rc><c>Ge</c><c>   2</c></rc>
    <rc><c>Ge</c><c>   2</c></rc>
    <rc><c>Ge</c><c>   2</c></rc>
    <rc><c>Ge</c><c>   2</c></rc>
    <rc><c>Ge</c><c>   2</c></rc>
    <rc><c>Ge</c><c>   2</c></rc>
    <rc><c>Ge</c><c>   2</c></rc>
    <rc><c>Ge</c><c>   2</c></rc>
    <rc><c>Ge</c><c>   2</c></rc>
    <rc><c>Ge</c><c>   2</c></rc>
    <rc><c>Ge</c><c>   2</c></rc>
    <rc><c>Ge</c><c>   2</c></rc>
    <rc><c>Ge</c><c>   2</c></rc>
    <rc><c>Ge</c><c>   2</c></rc>
   </set>
  </array>
  <array name="atomtypes" >
   <dimension dim="1">type</dimension>
   <field type="int">atomspertype</field>
   <field type="string">element</field>
   <field>mass</field>
   <field>valence</field>
   <field type="string">pseudopotential</field>
   <set>
    <rc><c>  72</c><c>Si</c><c>     28.08500000</c><c>      4.00000000</c><c>  PAW_PBE Si 05Jan2001                  </c></rc>
    <rc><c>  48</c><c>Ge</c><c>     72.61000000</c><c>      4.00000000</c><c>  PAW_PBE Ge 05Jan2001                  </c></rc>
   </set>
  </array>
 </atominfo>
 <structure name="initialpos" >
  <crystal>
   <varray name="basis" >
    <v>       7.68059444       0.00000000       0.00000000 </v>
    <v>       0.00000000      16.29299927       0.00000000 </v>
    <v>       0.00000000       0.00000000      21.00086403 </v>
   </varray>
   <i name="volume">   2628.04643725 </i>
   <varray name="rec_basis" >
    <v>       0.13019826       0.00000000       0.00000000 </v>
    <v>       0.00000000       0.06137605       0.00000000 </v>
    <v>       0.00000000       0.00000000       0.04761709 </v>
   </varray>
  </crystal>
  <varray name="positions" >
   <v>       0.97851729       0.98567820       0.00000000 </v>
   <v>       0.72851723       0.81901145       0.09143190 </v>
   <v>       0.47851718       0.65234476       0.18286380 </v>
   <v>       0.22851723       0.48567814       0.27429566 </v>
   <v>       0.97851718       0.31901139       0.36572757 </v>
   <v>       0.36432147       0.94633603       0.56019974 </v>
   <v>       0.36432147       0.94633615       0.82960773 </v>
   <v>       0.72851723       0.15234485       0.09143190 </v>
   <v>       0.47851718       0.98567814       0.18286380 </v>
   <v>       0.22851723       0.81901151       0.27429566 </v>
   <v>       0.97851718       0.65234476       0.36572757 </v>
   <v>       0.72851718       0.48567808       0.45715946 </v>
   <v>       0.97851729       0.65234494       0.00000000 </v>
   <v>       0.72851723       0.48567820       0.09143190 </v>
   <v>       0.47851718       0.31901151       0.18286380 </v>
   <v>       0.22851723       0.15234487       0.27429566 </v>
   <v>       0.97851718       0.98567814       0.36572757 </v>
   <v>       0.72851718       0.81901139       0.45715946 </v>
   <v>       0.47851729       0.98567820       0.00000000 </v>
   <v>       0.22851725       0.81901145       0.09143190 </v>
   <v>       0.97851723       0.65234476       0.18286380 </v>
   <v>       0.72851729       0.48567814       0.27429563 </v>
   <v>       0.47851718       0.31901139       0.36572757 </v>
   <v>       0.22851712       0.15234470       0.45715946 </v>
   <v>       0.47851729       0.31901154       0.00000000 </v>
   <v>       0.22851725       0.15234485       0.09143190 </v>
   <v>       0.97851723       0.98567814       0.18286380 </v>
   <v>       0.72851729       0.81901151       0.27429563 </v>
   <v>       0.47851718       0.65234476       0.36572757 </v>
   <v>       0.22851712       0.48567808       0.45715946 </v>
   <v>       0.11432147       0.44633609       0.89695972 </v>
   <v>       0.22851725       0.48567820       0.09143190 </v>
   <v>       0.97851723       0.31901151       0.18286380 </v>
   <v>       0.72851729       0.15234487       0.27429563 </v>
   <v>       0.47851718       0.98567814       0.36572757 </v>
   <v>       0.61432147       0.44633606       0.62755173 </v>
   <v>       0.11432147       0.69633609       0.89695972 </v>
   <v>       0.47851729       0.06901149       0.09143189 </v>
   <v>       0.22851726       0.90234476       0.18286380 </v>
   <v>       0.97851729       0.73567814       0.27429566 </v>
   <v>       0.72851723       0.56901145       0.36572757 </v>
   <v>       0.86432147       0.44633609       0.56019974 </v>
   <v>       0.72851735       0.56901163       0.00000000 </v>
   <v>       0.47851729       0.40234488       0.09143189 </v>
   <v>       0.22851726       0.23567820       0.18286380 </v>
   <v>       0.86432147       0.69633603       0.56019974 </v>
   <v>       0.72851723       0.90234482       0.36572757 </v>
   <v>       0.47851723       0.73567808       0.45715940 </v>
   <v>       0.72851735       0.90234494       0.00000000 </v>
   <v>       0.11432147       0.94633603       0.89695972 </v>
   <v>       0.22851726       0.56901151       0.18286380 </v>
   <v>       0.97851729       0.40234485       0.27429566 </v>
   <v>       0.36432147       0.44633606       0.56019974 </v>
   <v>       0.47851723       0.06901138       0.45715940 </v>
   <v>       0.22851729       0.23567820       0.00000000 </v>
   <v>       0.97851723       0.06901149       0.09143190 </v>
   <v>       0.72851718       0.90234476       0.18286380 </v>
   <v>       0.47851729       0.73567814       0.27429563 </v>
   <v>       0.22851718       0.56901145       0.36572757 </v>
   <v>       0.97851706       0.40234464       0.45715946 </v>
   <v>       0.22851729       0.56901163       0.00000000 </v>
   <v>       0.97851723       0.40234488       0.09143190 </v>
   <v>       0.72851718       0.23567820       0.18286380 </v>
   <v>       0.47851729       0.06901154       0.27429563 </v>
   <v>       0.22851718       0.90234482       0.36572757 </v>
   <v>       0.36432147       0.19633615       0.56019974 </v>
   <v>       0.61432147       0.94633603       0.89695972 </v>
   <v>       0.97851723       0.73567820       0.09143190 </v>
   <v>       0.61432147       0.19633615       0.89695972 </v>
   <v>       0.47851729       0.40234485       0.27429563 </v>
   <v>       0.22851718       0.23567812       0.36572757 </v>
   <v>       0.97851706       0.06901138       0.45715946 </v>
   <v>       0.97851729       0.06901154       0.27429566 </v>
   <v>       0.61432147       0.32133609       0.69490373 </v>
   <v>       0.97851729       0.31901154       0.00000000 </v>
   <v>       0.72851718       0.15234470       0.45715946 </v>
   <v>       0.11432147       0.57133609       0.69490373 </v>
   <v>       0.86432147       0.19633615       0.82960773 </v>
   <v>       0.86432147       0.19633615       0.56019974 </v>
   <v>       0.61432147       0.82133615       0.69490373 </v>
   <v>       0.36432147       0.44633609       0.82960773 </v>
   <v>       0.72851723       0.23567812       0.36572757 </v>
   <v>       0.11432147       0.07133615       0.69490373 </v>
   <v>       0.86432147       0.69633609       0.82960773 </v>
   <v>       0.11432147       0.69633603       0.62755173 </v>
   <v>       0.86432147       0.32133609       0.76225573 </v>
   <v>       0.22851729       0.90234494       0.00000000 </v>
   <v>       0.61432147       0.94633603       0.62755173 </v>
   <v>       0.36432147       0.57133609       0.76225573 </v>
   <v>       0.11432147       0.19633603       0.89695972 </v>
   <v>       0.11432147       0.19633615       0.62755173 </v>
   <v>       0.86432147       0.82133615       0.76225573 </v>
   <v>       0.61432147       0.44633609       0.89695972 </v>
   <v>       0.22851712       0.81901139       0.45715946 </v>
   <v>       0.36432147       0.07133615       0.76225573 </v>
   <v>       0.72851735       0.23567820       0.00000000 </v>
   <v>       0.86432147       0.94633609       0.56019974 </v>
   <v>       0.61432159       0.57133615       0.69490373 </v>
   <v>       0.36432147       0.19633615       0.82960773 </v>
   <v>       0.47851723       0.40234464       0.45715940 </v>
   <v>       0.61432147       0.07133615       0.69490373 </v>
   <v>       0.36432147       0.69633609       0.82960773 </v>
   <v>       0.36432147       0.69633609       0.56019974 </v>
   <v>       0.11432147       0.32133615       0.69490373 </v>
   <v>       0.86432147       0.94633615       0.82960773 </v>
   <v>       0.97851706       0.73567808       0.45715946 </v>
   <v>       0.11432147       0.82133609       0.69490373 </v>
   <v>       0.86432147       0.44633615       0.82960773 </v>
   <v>       0.11432159       0.94633609       0.62755173 </v>
   <v>       0.86432147       0.57133615       0.76225573 </v>
   <v>       0.72851718       0.56901151       0.18286380 </v>
   <v>       0.11432147       0.44633609       0.62755173 </v>
   <v>       0.86432147       0.07133615       0.76225573 </v>
   <v>       0.61432147       0.69633609       0.89695972 </v>
   <v>       0.61432147       0.69633603       0.62755173 </v>
   <v>       0.36432147       0.32133606       0.76225573 </v>
   <v>       0.47851729       0.73567820       0.09143189 </v>
   <v>       0.61432147       0.19633615       0.62755173 </v>
   <v>       0.36432147       0.82133615       0.76225573 </v>
   <v>       0.47851729       0.65234494       0.00000000 </v>
  </varray>
 </structure>
 <calculation>
  <scstep>
   <time name="dav">   18.50   18.65</time>
   <time name="total">   19.82   19.98</time>
   <energy>
    <i name="alphaZ">    529.58409355 </i>
    <i name="ewald"> -12736.09711261 </i>
    <i name="hartreedc">  -1248.58205679 </i>
    <i name="XCdc">  -1036.04148171 </i>
    <i name="pawpsdc">  10575.88222728 </i>
    <i name="pawaedc">  -8613.76247617 </i>
    <i name="eentropy">     -0.00267248 </i>
    <i name="bandstr">   2034.96448280 </i>
    <i name="atom">  12460.60057749 </i>
    <i name="e_fr_energy">   1966.54558136 </i>
    <i name="e_wo_entrp">   1966.54825384 </i>
    <i name="e_0_energy">   1966.54691760 </i>
   </energy>
  </scstep>
  <scstep>
   <time name="dav">   20.75   20.93</time>
   <time name="total">   20.76   20.93</time>
   <energy>
    <i name="e_fr_energy">   -359.03765013 </i>
    <i name="e_wo_entrp">   -359.03597482 </i>
    <i name="e_0_energy">   -359.03681247 </i>
   </energy>
  </scstep>
  <scstep>
   <time name="dav">   21.62   21.79</time>
   <time name="total">   21.62   21.79</time>
   <energy>
    <i name="e_fr_energy">   -576.76607325 </i>
    <i name="e_wo_entrp">   -576.76425254 </i>
    <i name="e_0_energy">   -576.76516289 </i>
   </energy>
  </scstep>
  <scstep>
   <time name="dav">   20.94   21.12</time>
   <time name="total">   20.95   21.12</time>
   <energy>
    <i name="e_fr_energy">   -584.63820972 </i>
    <i name="e_wo_entrp">   -584.63643312 </i>
    <i name="e_0_energy">   -584.63732142 </i>
   </energy>
  </scstep>
  <scstep>
   <time name="dav">   22.97   23.17</time>
   <time name="total">   24.03   24.24</time>
   <energy>
    <i name="e_fr_energy">   -584.92978322 </i>
    <i name="e_wo_entrp">   -584.92786838 </i>
    <i name="e_0_energy">   -584.92882580 </i>
   </energy>
  </scstep>
  <scstep>
   <time name="dav">   21.27   21.44</time>
   <time name="total">   23.62   23.80</time>
   <energy>
    <i name="e_fr_energy">   -575.96659226 </i>
    <i name="e_wo_entrp">   -575.96385857 </i>
    <i name="e_0_energy">   -575.96522542 </i>
   </energy>
  </scstep>
  <scstep>
   <time name="dav">   21.47   21.65</time>
   <time name="total">   23.83   24.02</time>
   <energy>
    <i name="e_fr_energy">   -576.13334545 </i>
    <i name="e_wo_entrp">   -576.13119821 </i>
    <i name="e_0_energy">   -576.13227183 </i>
   </energy>
  </scstep>
  <scstep>
   <time name="dav">   21.33   21.50</time>
   <time name="total">   23.68   23.87</time>
   <energy>
    <i name="e_fr_energy">   -575.03751273 </i>
    <i name="e_wo_entrp">   -575.03474913 </i>
    <i name="e_0_energy">   -575.03613093 </i>
   </energy>
  </scstep>
  <scstep>
   <time name="dav">   20.67   20.83</time>
   <time name="total">   23.02   23.20</time>
   <energy>
    <i name="e_fr_energy">   -575.10397158 </i>
    <i name="e_wo_entrp">   -575.10173587 </i>
    <i name="e_0_energy">   -575.10285372 </i>
   </energy>
  </scstep>
  <scstep>
   <time name="dav">   20.66   20.82</time>
   <time name="total">   23.00   23.18</time>
   <energy>
    <i name="e_fr_energy">   -575.08899750 </i>
    <i name="e_wo_entrp">   -575.08675250 </i>
    <i name="e_0_energy">   -575.08787500 </i>
   </energy>
  </scstep>
  <scstep>
   <time name="dav">   21.47   21.64</time>
   <time name="total">   23.81   24.00</time>
   <energy>
    <i name="e_fr_energy">   -575.09319157 </i>
    <i name="e_wo_entrp">   -575.09106776 </i>
    <i name="e_0_energy">   -575.09212966 </i>
   </energy>
  </scstep>
  <scstep>
   <time name="dav">   21.52   21.70</time>
   <time name="total">   23.87   24.06</time>
   <energy>
    <i name="e_fr_energy">   -575.08744169 </i>
    <i name="e_wo_entrp">   -575.08510667 </i>
    <i name="e_0_energy">   -575.08627418 </i>
   </energy>
  </scstep>
  <scstep>
   <time name="dav">   20.85   21.02</time>
   <time name="total">   23.19   23.38</time>
   <energy>
    <i name="e_fr_energy">   -575.08667061 </i>
    <i name="e_wo_entrp">   -575.08420390 </i>
    <i name="e_0_energy">   -575.08543725 </i>
   </energy>
  </scstep>
  <scstep>
   <time name="dav">   19.98   20.15</time>
   <time name="total">   22.33   22.51</time>
   <energy>
    <i name="e_fr_energy">   -575.08681159 </i>
    <i name="e_wo_entrp">   -575.08431984 </i>
    <i name="e_0_energy">   -575.08556572 </i>
   </energy>
  </scstep>
  <scstep>
   <time name="dav">   20.47   20.63</time>
   <time name="total">   22.82   22.99</time>
   <energy>
    <i name="e_fr_energy">   -575.08684978 </i>
    <i name="e_wo_entrp">   -575.08437779 </i>
    <i name="e_0_energy">   -575.08561379 </i>
   </energy>
  </scstep>
  <scstep>
   <time name="dav">   20.49   20.65</time>
   <time name="total">   22.84   23.02</time>
   <energy>
    <i name="e_fr_energy">   -575.08685844 </i>
    <i name="e_wo_entrp">   -575.08436894 </i>
    <i name="e_0_energy">   -575.08561369 </i>
   </energy>
  </scstep>
  <scstep>
   <time name="dav">   20.33   20.49</time>
   <time name="total">   22.70   22.88</time>
   <energy>
    <i name="e_fr_energy">   -575.08687357 </i>
    <i name="e_wo_entrp">   -575.08438532 </i>
    <i name="e_0_energy">   -575.08562944 </i>
   </energy>
  </scstep>
  <scstep>
   <time name="dav">   20.43   20.59</time>
   <time name="total">   22.78   22.96</time>
   <energy>
    <i name="e_fr_energy">   -575.08688200 </i>
    <i name="e_wo_entrp">   -575.08439420 </i>
    <i name="e_0_energy">   -575.08563810 </i>
   </energy>
  </scstep>
  <scstep>
   <time name="dav">   20.32   20.48</time>
   <time name="total">   22.66   22.84</time>
   <energy>
    <i name="e_fr_energy">   -575.08688796 </i>
    <i name="e_wo_entrp">   -575.08439907 </i>
    <i name="e_0_energy">   -575.08564352 </i>
   </energy>
  </scstep>
  <scstep>
   <time name="dav">   21.37   21.54</time>
   <time name="total">   23.72   23.90</time>
   <energy>
    <i name="e_fr_energy">   -575.08689134 </i>
    <i name="e_wo_entrp">   -575.08440134 </i>
    <i name="e_0_energy">   -575.08564634 </i>
   </energy>
  </scstep>
  <scstep>
   <time name="dav">   20.89   21.05</time>
   <time name="total">   23.24   23.42</time>
   <energy>
    <i name="e_fr_energy">   -575.08689305 </i>
    <i name="e_wo_entrp">   -575.08440342 </i>
    <i name="e_0_energy">   -575.08564823 </i>
   </energy>
  </scstep>
  <scstep>
   <time name="dav">   21.14   21.30</time>
   <time name="total">   23.49   23.67</time>
   <energy>
    <i name="e_fr_energy">   -575.08689440 </i>
    <i name="e_wo_entrp">   -575.08440443 </i>
    <i name="e_0_energy">   -575.08564942 </i>
   </energy>
  </scstep>
  <scstep>
   <time name="dav">   20.54   20.70</time>
   <time name="total">   22.89   23.06</time>
   <energy>
    <i name="e_fr_energy">   -575.08689531 </i>
    <i name="e_wo_entrp">   -575.08440539 </i>
    <i name="e_0_energy">   -575.08565035 </i>
   </energy>
  </scstep>
  <scstep>
   <time name="dav">   20.57   20.73</time>
   <time name="total">   22.92   23.10</time>
   <energy>
    <i name="e_fr_energy">   -575.08689514 </i>
    <i name="e_wo_entrp">   -575.08440537 </i>
    <i name="e_0_energy">   -575.08565025 </i>
   </energy>
  </scstep>
  <scstep>
   <time name="dav">   13.14   13.24</time>
   <time name="total">   14.43   14.54</time>
   <energy>
    <i name="alphaZ">    529.58409355 </i>
    <i name="ewald"> -12736.09711261 </i>
    <i name="hartreedc">  -1449.12345242 </i>
    <i name="XCdc">  -1002.77186735 </i>
    <i name="pawpsdc">  39244.70523241 </i>
    <i name="pawaedc"> -37297.71328092 </i>
    <i name="eentropy">     -0.00248969 </i>
    <i name="bandstr">   -324.26859551 </i>
    <i name="atom">  12460.60057749 </i>
    <i name="e_fr_energy">   -575.08689504 </i>
    <i name="e_wo_entrp">   -575.08440535 </i>
    <i name="e_0_energy">   -575.08565020 </i>
   </energy>
  </scstep>
  <structure>
   <crystal>
    <varray name="basis" >
     <v>       7.68059444       0.00000000       0.00000000 </v>
     <v>       0.00000000      16.29299927       0.00000000 </v>
     <v>       0.00000000       0.00000000      21.00086403 </v>
    </varray>
    <i name="volume">   2628.04643725 </i>
    <varray name="rec_basis" >
     <v>       0.13019826       0.00000000       0.00000000 </v>
     <v>       0.00000000       0.06137605       0.00000000 </v>
     <v>       0.00000000       0.00000000       0.04761709 </v>
    </varray>
   </crystal>
   <varray name="positions" >
    <v>       0.97851729       0.98567820       0.00000000 </v>
    <v>       0.72851723       0.81901145       0.09143190 </v>
    <v>       0.47851718       0.65234476       0.18286380 </v>
    <v>       0.22851723       0.48567814       0.27429566 </v>
    <v>       0.97851718       0.31901139       0.36572757 </v>
    <v>       0.36432147       0.94633603       0.56019974 </v>
    <v>       0.36432147       0.94633615       0.82960773 </v>
    <v>       0.72851723       0.15234485       0.09143190 </v>
    <v>       0.47851718       0.98567814       0.18286380 </v>
    <v>       0.22851723       0.81901151       0.27429566 </v>
    <v>       0.97851718       0.65234476       0.36572757 </v>
    <v>       0.72851718       0.48567808       0.45715946 </v>
    <v>       0.97851729       0.65234494       0.00000000 </v>
    <v>       0.72851723       0.48567820       0.09143190 </v>
    <v>       0.47851718       0.31901151       0.18286380 </v>
    <v>       0.22851723       0.15234487       0.27429566 </v>
    <v>       0.97851718       0.98567814       0.36572757 </v>
    <v>       0.72851718       0.81901139       0.45715946 </v>
    <v>       0.47851729       0.98567820       0.00000000 </v>
    <v>       0.22851725       0.81901145       0.09143190 </v>
    <v>       0.97851723       0.65234476       0.18286380 </v>
    <v>       0.72851729       0.48567814       0.27429563 </v>
    <v>       0.47851718       0.31901139       0.36572757 </v>
    <v>       0.22851712       0.15234470       0.45715946 </v>
    <v>       0.47851729       0.31901154       0.00000000 </v>
    <v>       0.22851725       0.15234485       0.09143190 </v>
    <v>       0.97851723       0.98567814       0.18286380 </v>
    <v>       0.72851729       0.81901151       0.27429563 </v>
    <v>       0.47851718       0.65234476       0.36572757 </v>
    <v>       0.22851712       0.48567808       0.45715946 </v>
    <v>       0.11432147       0.44633609       0.89695972 </v>
    <v>       0.22851725       0.48567820       0.09143190 </v>
    <v>       0.97851723       0.31901151       0.18286380 </v>
    <v>       0.72851729       0.15234487       0.27429563 </v>
    <v>       0.47851718       0.98567814       0.36572757 </v>
    <v>       0.61432147       0.44633606       0.62755173 </v>
    <v>       0.11432147       0.69633609       0.89695972 </v>
    <v>       0.47851729       0.06901149       0.09143189 </v>
    <v>       0.22851726       0.90234476       0.18286380 </v>
    <v>       0.97851729       0.73567814       0.27429566 </v>
    <v>       0.72851723       0.56901145       0.36572757 </v>
    <v>       0.86432147       0.44633609       0.56019974 </v>
    <v>       0.72851735       0.56901163       0.00000000 </v>
    <v>       0.47851729       0.40234488       0.09143189 </v>
    <v>       0.22851726       0.23567820       0.18286380 </v>
    <v>       0.86432147       0.69633603       0.56019974 </v>
    <v>       0.72851723       0.90234482       0.36572757 </v>
    <v>       0.47851723       0.73567808       0.45715940 </v>
    <v>       0.72851735       0.90234494       0.00000000 </v>
    <v>       0.11432147       0.94633603       0.89695972 </v>
    <v>       0.22851726       0.56901151       0.18286380 </v>
    <v>       0.97851729       0.40234485       0.27429566 </v>
    <v>       0.36432147       0.44633606       0.56019974 </v>
    <v>       0.47851723       0.06901138       0.45715940 </v>
    <v>       0.22851729       0.23567820       0.00000000 </v>
    <v>       0.97851723       0.06901149       0.09143190 </v>
    <v>       0.72851718       0.90234476       0.18286380 </v>
    <v>       0.47851729       0.73567814       0.27429563 </v>
    <v>       0.22851718       0.56901145       0.36572757 </v>
    <v>       0.97851706       0.40234464       0.45715946 </v>
    <v>       0.22851729       0.56901163       0.00000000 </v>
    <v>       0.97851723       0.40234488       0.09143190 </v>
    <v>       0.72851718       0.23567820       0.18286380 </v>
    <v>       0.47851729       0.06901154       0.27429563 </v>
    <v>       0.22851718       0.90234482       0.36572757 </v>
    <v>       0.36432147       0.19633615       0.56019974 </v>
    <v>       0.61432147       0.94633603       0.89695972 </v>
    <v>       0.97851723       0.73567820       0.09143190 </v>
    <v>       0.61432147       0.19633615       0.89695972 </v>
    <v>       0.47851729       0.40234485       0.27429563 </v>
    <v>       0.22851718       0.23567812       0.36572757 </v>
    <v>       0.97851706       0.06901138       0.45715946 </v>
    <v>       0.97851729       0.06901154       0.27429566 </v>
    <v>       0.61432147       0.32133609       0.69490373 </v>
    <v>       0.97851729       0.31901154       0.00000000 </v>
    <v>       0.72851718       0.15234470       0.45715946 </v>
    <v>       0.11432147       0.57133609       0.69490373 </v>
    <v>       0.86432147       0.19633615       0.82960773 </v>
    <v>       0.86432147       0.19633615       0.56019974 </v>
    <v>       0.61432147       0.82133615       0.69490373 </v>
    <v>       0.36432147       0.44633609       0.82960773 </v>
    <v>       0.72851723       0.23567812       0.36572757 </v>
    <v>       0.11432147       0.07133615       0.69490373 </v>
    <v>       0.86432147       0.69633609       0.82960773 </v>
    <v>       0.11432147       0.69633603       0.62755173 </v>
    <v>       0.86432147       0.32133609       0.76225573 </v>
    <v>       0.22851729       0.90234494       0.00000000 </v>
    <v>       0.61432147       0.94633603       0.62755173 </v>
    <v>       0.36432147       0.57133609       0.76225573 </v>
    <v>       0.11432147       0.19633603       0.89695972 </v>
    <v>       0.11432147       0.19633615       0.62755173 </v>
    <v>       0.86432147       0.82133615       0.76225573 </v>
    <v>       0.61432147       0.44633609       0.89695972 </v>
    <v>       0.22851712       0.81901139       0.45715946 </v>
    <v>       0.36432147       0.07133615       0.76225573 </v>
    <v>       0.72851735       0.23567820       0.00000000 </v>
    <v>       0.86432147       0.94633609       0.56019974 </v>
    <v>       0.61432159       0.57133615       0.69490373 </v>
    <v>       0.36432147       0.19633615       0.82960773 </v>
    <v>       0.47851723       0.40234464       0.45715940 </v>
    <v>       0.61432147       0.07133615       0.69490373 </v>
    <v>       0.36432147       0.69633609       0.82960773 </v>
    <v>       0.36432147       0.69633609       0.56019974 </v>
    <v>       0.11432147       0.32133615       0.69490373 </v>
    <v>       0.86432147       0.94633615       0.82960773 </v>
    <v>       0.97851706       0.73567808       0.45715946 </v>
    <v>       0.11432147       0.82133609       0.69490373 </v>
    <v>       0.86432147       0.44633615       0.82960773 </v>
    <v>       0.11432159       0.94633609       0.62755173 </v>
    <v>       0.86432147       0.57133615       0.76225573 </v>
    <v>       0.72851718       0.56901151       0.18286380 </v>
    <v>       0.11432147       0.44633609       0.62755173 </v>
    <v>       0.86432147       0.07133615       0.76225573 </v>
    <v>       0.61432147       0.69633609       0.89695972 </v>
    <v>       0.61432147       0.69633603       0.62755173 </v>
    <v>       0.36432147       0.32133606       0.76225573 </v>
    <v>       0.47851729       0.73567820       0.09143189 </v>
    <v>       0.61432147       0.19633615       0.62755173 </v>
    <v>       0.36432147       0.82133615       0.76225573 </v>
    <v>       0.47851729       0.65234494       0.00000000 </v>
   </varray>
  </structure>
  <varray name="forces" >
   <v>      -0.20813274       0.59869758      -0.21007106 </v>
   <v>       0.55972925       0.01275997      -0.24437122 </v>
   <v>      -0.44818902      -0.14184209       0.43908766 </v>
   <v>       0.00819096      -0.09265210       0.06408388 </v>
   <v>       0.55371389      -0.00331269       0.24727955 </v>
   <v>       0.06274308       0.13207825      -1.74467971 </v>
   <v>       0.00870191      -0.01467790       0.19310526 </v>
   <v>       0.05373711      -0.55339591       0.38280144 </v>
   <v>       0.01833277      -0.09800353      -0.05459983 </v>
   <v>       0.02976764      -0.09237215       0.02148594 </v>
   <v>       0.05069655      -0.55914480      -0.37384717 </v>
   <v>       0.86754404       0.54867221       0.18809845 </v>
   <v>       0.84793432      -0.00350709      -0.54797931 </v>
   <v>       0.19448140      -0.45078126      -0.59773581 </v>
   <v>       0.02686429      -0.08843021      -0.01074669 </v>
   <v>       0.49270565       0.21586931       0.04161317 </v>
   <v>       0.18984284      -0.46336304       0.59804050 </v>
   <v>       0.07957252       0.81551318       0.70309194 </v>
   <v>       0.86694533       0.54277972      -0.18241128 </v>
   <v>      -0.41003498      -0.32185962       0.22397335 </v>
   <v>       0.50160442       0.20401830      -0.03547926 </v>
   <v>       0.01246967      -0.42329491       0.53739894 </v>
   <v>      -0.41396659      -0.32417035      -0.21863651 </v>
   <v>       0.84848436      -0.00217514       0.55971924 </v>
   <v>       0.08015278       0.82772339      -0.70100469 </v>
   <v>       0.05620522      -0.19097850      -0.12866421 </v>
   <v>       0.01067559      -0.42805804      -0.53457261 </v>
   <v>       0.02563291      -0.08136957       0.01557700 </v>
   <v>       0.05037616      -0.20234086       0.13085020 </v>
   <v>      -0.21215850       0.58972695       0.20641457 </v>
   <v>       0.06515441       0.13139354       1.74052232 </v>
   <v>       0.21689342      -0.13109871      -0.09429530 </v>
   <v>       0.03625526      -0.09464959      -0.01500149 </v>
   <v>      -0.44774745      -0.14449913      -0.43223670 </v>
   <v>       0.21293189      -0.13687224       0.09917876 </v>
   <v>       0.02271161      -0.00364566      -0.18954108 </v>
   <v>      -0.84547344       0.05044423       0.86977083 </v>
   <v>      -0.05283218       0.29024172      -0.24961723 </v>
   <v>      -0.01036674       0.09906182      -0.07790811 </v>
   <v>      -0.00544945       0.11942857       0.04352060 </v>
   <v>      -0.04941998       0.28253357       0.24173600 </v>
   <v>      -0.58325667       0.04807471      -0.56600346 </v>
   <v>      -0.09825431      -0.91918258      -0.74867529 </v>
   <v>      -0.18822305       0.08404226      -0.12379912 </v>
   <v>      -0.00282518       0.12500693      -0.04075422 </v>
   <v>       0.43405827      -0.29068398      -0.07800214 </v>
   <v>      -0.19016253       0.09480820       0.11975393 </v>
   <v>       0.01578915      -0.12105778      -0.13082130 </v>
   <v>      -0.25632299      -0.16135658      -0.12060807 </v>
   <v>       0.10515002       0.17987242       0.15682054 </v>
   <v>      -0.00929948       0.12570698      -0.02985266 </v>
   <v>      -0.00576456       0.10146947       0.07104325 </v>
   <v>       0.10373421       0.18090669      -0.15872747 </v>
   <v>      -1.23985489      -0.91975796       0.90814843 </v>
   <v>       0.01646626      -0.12117481       0.13272567 </v>
   <v>      -0.07172842       0.27374376      -0.24564286 </v>
   <v>       0.00583903       0.09495060      -0.07697121 </v>
   <v>      -0.01059787       0.12523685       0.03844056 </v>
   <v>      -0.06999925       0.29558609       0.24520612 </v>
   <v>      -0.25668507      -0.15866049       0.11637665 </v>
   <v>      -1.23814786      -0.90583280      -0.90503239 </v>
   <v>      -0.17275847       0.48334809       0.37771796 </v>
   <v>      -0.02422432       0.12673485      -0.05217214 </v>
   <v>      -0.00174296       0.11803496       0.01877693 </v>
   <v>      -0.16604748       0.49083240      -0.37992595 </v>
   <v>      -0.85779783       0.06137104      -0.87998009 </v>
   <v>      -0.58025721       0.04522112       0.57070628 </v>
   <v>      -0.03707510       0.18569210      -0.11405967 </v>
   <v>       0.42791360      -0.28088830       0.07870498 </v>
   <v>       0.01368824       0.08613298       0.07373384 </v>
   <v>      -0.03718367       0.18964913       0.11407284 </v>
   <v>      -0.10305661      -0.90336496       0.75127018 </v>
   <v>      -0.02885074       0.09853848       0.01651506 </v>
   <v>      -0.33488304       0.41734064      -0.86140735 </v>
   <v>       1.08717101       1.25467561      -1.04982942 </v>
   <v>       0.47054339      -0.21607672       0.69427965 </v>
   <v>       0.26177451      -0.02273273      -0.63025038 </v>
   <v>      -0.73384896       0.05938785       0.14579680 </v>
   <v>      -0.40023605       0.34172332      -0.80564674 </v>
   <v>       0.22191127       0.06435706      -0.57150159 </v>
   <v>      -0.51423287       0.02724772      -0.14017340 </v>
   <v>      -0.04608733       0.57498028      -0.43208722 </v>
   <v>      -0.23440115      -0.07441653      -0.53835003 </v>
   <v>       0.76343848      -0.13694369       0.05702612 </v>
   <v>      -0.72746884       0.07325188      -0.14591444 </v>
   <v>       0.27621225       0.07963127       0.56993804 </v>
   <v>       0.02531440      -0.74265415      -0.13526249 </v>
   <v>      -0.51846250       0.02924326       0.14081331 </v>
   <v>      -0.22941412      -0.07353621       0.53196297 </v>
   <v>       0.46987388      -0.38320559       0.66163749 </v>
   <v>       0.76391203      -0.11321341      -0.06415217 </v>
   <v>      -0.31920033       0.03518413       0.58286934 </v>
   <v>      -0.00353870       0.03776789       2.39297315 </v>
   <v>       1.07258019       1.28843122       1.04695021 </v>
   <v>       0.28119761      -0.39128749       0.89375675 </v>
   <v>      -0.98707698      -0.47263669      -0.30980537 </v>
   <v>      -0.00249700       0.03581257      -2.39881096 </v>
   <v>       0.26461014      -0.39452460      -0.89301394 </v>
   <v>       0.25535805       0.09115193       0.12662819 </v>
   <v>       0.04109469      -0.76011418       0.14275181 </v>
   <v>      -0.23403746      -0.04829810      -0.53453606 </v>
   <v>      -0.25832304      -0.13934595       0.03133513 </v>
   <v>       0.47361150      -0.37928613      -0.67254055 </v>
   <v>      -0.31952384       0.04438693      -0.59483476 </v>
   <v>       0.02858524      -0.02615692       0.00040827 </v>
   <v>      -0.97099119      -0.48939205       0.31019796 </v>
   <v>       0.24660841       0.07516183      -0.57652461 </v>
   <v>       0.49212871       0.00140030      -0.13749434 </v>
   <v>       0.49495807       0.02013864       0.14243095 </v>
   <v>      -0.20518147      -0.06307727       0.53295057 </v>
   <v>      -0.01044712       0.07287733       0.00415037 </v>
   <v>       0.01661365      -0.02489196      -0.00026451 </v>
   <v>       0.27783901      -0.03928557       0.61654827 </v>
   <v>      -0.40991414       0.35298165       0.81319306 </v>
   <v>       0.24099767       0.09777861      -0.12263291 </v>
   <v>       0.22623323       0.04550871       0.57015563 </v>
   <v>      -0.04684205       0.58387333       0.42487543 </v>
   <v>      -0.26266916      -0.13723574      -0.02064847 </v>
   <v>      -0.30068287       0.41564228       0.86203127 </v>
   <v>       0.47759033      -0.23907168      -0.70291450 </v>
  </varray>
  <varray name="stress" >
   <v>      49.66195545      -8.94344762      -0.02562328 </v>
   <v>      -8.94344510      18.82065068       0.03320282 </v>
   <v>      -0.02562322       0.03320276      15.65741595 </v>
  </varray>
  <energy>
   <i name="e_fr_energy">   -575.08689504 </i>
   <i name="e_wo_entrp">   -575.08440535 </i>
   <i name="e_0_energy">   -575.08565020 </i>
  </energy>
  <time name="totalsc">  597.25  602.20</time>
  <eigenvalues>
   <array>
    <dimension dim="1">band</dimension>
    <dimension dim="2">kpoint</dimension>
    <dimension dim="3">spin</dimension>
    <field>eigene</field>
    <field>occ</field>
    <set>
     <set comment="spin 1">
      <set comment="kpoint 1">
       <r>   -7.8308    1.0000 </r>
       <r>   -7.5750    1.0000 </r>
       <r>   -7.4613    1.0000 </r>
       <r>   -7.3582    1.0000 </r>
       <r>   -7.3136    1.0000 </r>
       <r>   -7.1471    1.0000 </r>
       <r>   -7.0683    1.0000 </r>
       <r>   -7.0459    1.0000 </r>
       <r>   -6.9301    1.0000 </r>
       <r>   -6.5889    1.0000 </r>
       <r>   -6.5753    1.0000 </r>
       <r>   -6.5128    1.0000 </r>
       <r>   -6.3709    1.0000 </r>
       <r>   -6.3299    1.0000 </r>
       <r>   -6.3223    1.0000 </r>
       <r>   -6.1259    1.0000 </r>
       <r>   -6.1087    1.0000 </r>
       <r>   -5.9361    1.0000 </r>
       <r>   -5.9231    1.0000 </r>
       <r>   -5.7511    1.0000 </r>
       <r>   -5.7345    1.0000 </r>
       <r>   -5.6668    1.0000 </r>
       <r>   -5.5900    1.0000 </r>
       <r>   -5.5780    1.0000 </r>
       <r>   -5.5181    1.0000 </r>
       <r>   -5.5045    1.0000 </r>
       <r>   -5.4787    1.0000 </r>
       <r>   -5.4496    1.0000 </r>
       <r>   -5.4365    1.0000 </r>
       <r>   -5.3842    1.0000 </r>
       <r>   -5.3747    1.0000 </r>
       <r>   -5.3306    1.0000 </r>
       <r>   -5.3225    1.0000 </r>
       <r>   -5.3022    1.0000 </r>
       <r>   -5.2888    1.0000 </r>
       <r>   -5.2497    1.0000 </r>
       <r>   -5.2133    1.0000 </r>
       <r>   -5.1231    1.0000 </r>
       <r>   -5.1043    1.0000 </r>
       <r>   -5.0577    1.0000 </r>
       <r>   -5.0194    1.0000 </r>
       <r>   -5.0016    1.0000 </r>
       <r>   -4.9424    1.0000 </r>
       <r>   -4.7786    1.0000 </r>
       <r>   -4.7273    1.0000 </r>
       <r>   -4.6887    1.0000 </r>
       <r>   -4.4917    1.0000 </r>
       <r>   -4.4776    1.0000 </r>
       <r>   -4.3978    1.0000 </r>
       <r>   -4.3750    1.0000 </r>
       <r>   -4.1662    1.0000 </r>
       <r>   -4.1647    1.0000 </r>
       <r>   -4.1518    1.0000 </r>
       <r>   -4.1270    1.0000 </r>
       <r>   -4.0563    1.0000 </r>
       <r>   -3.9784    1.0000 </r>
       <r>   -3.9763    1.0000 </r>
       <r>   -3.8342    1.0000 </r>
       <r>   -3.7590    1.0000 </r>
       <r>   -3.6930    1.0000 </r>
       <r>   -3.6178    1.0000 </r>
       <r>   -3.6145    1.0000 </r>
       <r>   -3.4000    1.0000 </r>
       <r>   -3.3792    1.0000 </r>
       <r>   -3.3004    1.0000 </r>
       <r>   -3.1988    1.0000 </r>
       <r>   -3.1769    1.0000 </r>
       <r>   -2.9432    1.0000 </r>
       <r>   -2.9105    1.0000 </r>
       <r>   -2.8648    1.0000 </r>
       <r>   -2.8169    1.0000 </r>
       <r>   -2.8067    1.0000 </r>
       <r>   -2.7014    1.0000 </r>
       <r>   -2.6847    1.0000 </r>
       <r>   -2.6476    1.0000 </r>
       <r>   -2.6339    1.0000 </r>
       <r>   -2.5797    1.0000 </r>
       <r>   -2.5543    1.0000 </r>
       <r>   -2.5149    1.0000 </r>
       <r>   -2.5020    1.0000 </r>
       <r>   -2.4785    1.0000 </r>
       <r>   -2.4640    1.0000 </r>
       <r>   -2.4118    1.0000 </r>
       <r>   -2.3832    1.0000 </r>
       <r>   -2.3524    1.0000 </r>
       <r>   -2.3221    1.0000 </r>
       <r>   -2.3114    1.0000 </r>
       <r>   -2.2648    1.0000 </r>
       <r>   -2.2614    1.0000 </r>
       <r>   -2.2332    1.0000 </r>
       <r>   -2.2167    1.0000 </r>
       <r>   -2.1567    1.0000 </r>
       <r>   -2.1232    1.0000 </r>
       <r>   -2.0280    1.0000 </r>
       <r>   -1.9546    1.0000 </r>
       <r>   -1.8974    1.0000 </r>
       <r>   -1.8294    1.0000 </r>
       <r>   -1.7353    1.0000 </r>
       <r>   -1.6959    1.0000 </r>
       <r>   -1.6057    1.0000 </r>
       <r>   -1.5840    1.0000 </r>
       <r>   -1.4026    1.0000 </r>
       <r>   -1.2958    1.0000 </r>
       <r>   -1.2944    1.0000 </r>
       <r>   -1.0342    1.0000 </r>
       <r>   -0.9934    1.0000 </r>
       <r>   -0.7341    1.0000 </r>
       <r>   -0.6580    1.0000 </r>
       <r>   -0.5533    1.0000 </r>
       <r>   -0.4661    1.0000 </r>
       <r>   -0.1988    1.0000 </r>
       <r>   -0.1663    1.0000 </r>
       <r>    0.0811    1.0000 </r>
       <r>    0.1983    1.0000 </r>
       <r>    0.2237    1.0000 </r>
       <r>    0.2918    1.0000 </r>
       <r>    0.5107    1.0000 </r>
       <r>    0.5114    1.0000 </r>
       <r>    0.5491    1.0000 </r>
       <r>    0.5507    1.0000 </r>
       <r>    0.5713    1.0000 </r>
       <r>    0.5722    1.0000 </r>
       <r>    0.5819    1.0000 </r>
       <r>    0.7332    1.0000 </r>
       <r>    0.7333    1.0000 </r>
       <r>    0.7520    1.0000 </r>
       <r>    0.7526    1.0000 </r>
       <r>    0.8461    1.0000 </r>
       <r>    0.8916    1.0000 </r>
       <r>    0.8922    1.0000 </r>
       <r>    0.9313    1.0000 </r>
       <r>    1.0316    1.0000 </r>
       <r>    1.0321    1.0000 </r>
       <r>    1.0563    1.0000 </r>
       <r>    1.0576    1.0000 </r>
       <r>    1.1044    1.0000 </r>
       <r>    1.1053    1.0000 </r>
       <r>    1.1810    1.0000 </r>
       <r>    1.1955    1.0000 </r>
       <r>    1.2073    1.0000 </r>
       <r>    1.2093    1.0000 </r>
       <r>    1.2648    1.0000 </r>
       <r>    1.2770    1.0000 </r>
       <r>    1.2781    1.0000 </r>
       <r>    1.2930    1.0000 </r>
       <r>    1.3564    1.0000 </r>
       <r>    1.3584    1.0000 </r>
       <r>    1.4133    1.0000 </r>
       <r>    1.4137    1.0000 </r>
       <r>    1.4717    1.0000 </r>
       <r>    1.4721    1.0000 </r>
       <r>    1.5161    1.0000 </r>
       <r>    1.5176    1.0000 </r>
       <r>    1.6178    1.0000 </r>
       <r>    1.6480    1.0000 </r>
       <r>    1.6599    1.0000 </r>
       <r>    1.7059    1.0000 </r>
       <r>    1.7077    1.0000 </r>
       <r>    1.7567    1.0000 </r>
       <r>    1.7583    1.0000 </r>
       <r>    1.7942    1.0000 </r>
       <r>    1.7956    1.0000 </r>
       <r>    1.8458    1.0000 </r>
       <r>    1.8542    1.0000 </r>
       <r>    1.8993    1.0000 </r>
       <r>    1.9028    1.0000 </r>
       <r>    1.9227    1.0000 </r>
       <r>    2.0470    1.0000 </r>
       <r>    2.0473    1.0000 </r>
       <r>    2.0647    1.0000 </r>
       <r>    2.0775    1.0000 </r>
       <r>    2.1027    1.0000 </r>
       <r>    2.1296    1.0000 </r>
       <r>    2.1321    1.0000 </r>
       <r>    2.2148    1.0000 </r>
       <r>    2.2258    1.0000 </r>
       <r>    2.2685    1.0000 </r>
       <r>    2.2723    1.0000 </r>
       <r>    2.3287    1.0000 </r>
       <r>    2.3531    1.0000 </r>
       <r>    2.3844    1.0000 </r>
       <r>    2.3869    1.0000 </r>
       <r>    2.4285    1.0000 </r>
       <r>    2.4846    1.0000 </r>
       <r>    2.4879    1.0000 </r>
       <r>    2.5810    1.0000 </r>
       <r>    2.5917    1.0000 </r>
       <r>    2.6353    1.0000 </r>
       <r>    2.6385    1.0000 </r>
       <r>    2.6472    1.0000 </r>
       <r>    2.7584    1.0000 </r>
       <r>    2.7604    1.0000 </r>
       <r>    2.8232    1.0000 </r>
       <r>    2.8604    1.0000 </r>
       <r>    2.9108    1.0000 </r>
       <r>    2.9603    1.0000 </r>
       <r>    2.9626    1.0000 </r>
       <r>    2.9730    1.0000 </r>
       <r>    2.9759    1.0000 </r>
       <r>    3.0140    1.0000 </r>
       <r>    3.0271    1.0000 </r>
       <r>    3.0298    1.0000 </r>
       <r>    3.0400    1.0000 </r>
       <r>    3.1452    1.0000 </r>
       <r>    3.1470    1.0000 </r>
       <r>    3.1775    1.0000 </r>
       <r>    3.1798    1.0000 </r>
       <r>    3.1863    1.0000 </r>
       <r>    3.1895    1.0000 </r>
       <r>    3.1959    1.0000 </r>
       <r>    3.2083    1.0000 </r>
       <r>    3.2401    1.0000 </r>
       <r>    3.2563    1.0000 </r>
       <r>    3.2868    1.0000 </r>
       <r>    3.2871    1.0000 </r>
       <r>    3.2906    1.0000 </r>
       <r>    3.3389    1.0000 </r>
       <r>    3.3883    1.0000 </r>
       <r>    3.3982    1.0000 </r>
       <r>    3.4307    1.0000 </r>
       <r>    3.4479    1.0000 </r>
       <r>    3.4588    1.0000 </r>
       <r>    3.4720    1.0000 </r>
       <r>    3.4775    1.0000 </r>
       <r>    3.6091    1.0000 </r>
       <r>    3.7089    1.0000 </r>
       <r>    3.7227    1.0000 </r>
       <r>    3.8888    1.0000 </r>
       <r>    3.9052    1.0000 </r>
       <r>    4.0011    1.0000 </r>
       <r>    4.0013    1.0000 </r>
       <r>    4.0402    1.0000 </r>
       <r>    4.1652    1.0000 </r>
       <r>    4.2005    1.0000 </r>
       <r>    4.2241    1.0000 </r>
       <r>    4.2277    1.0000 </r>
       <r>    4.2991    1.0000 </r>
       <r>    4.4913    1.0000 </r>
       <r>    4.6953    1.0000 </r>
       <r>    4.7021    1.0000 </r>
       <r>    4.7183    1.0000 </r>
       <r>    4.7906    0.0000 </r>
       <r>    4.8323    0.0000 </r>
       <r>    4.8422    0.0000 </r>
       <r>    4.8704    0.0000 </r>
       <r>    4.9210    0.0000 </r>
       <r>    4.9237    0.0000 </r>
       <r>    5.0613    0.0000 </r>
       <r>    5.0859    0.0000 </r>
       <r>    5.2552    0.0000 </r>
       <r>    5.2632    0.0000 </r>
       <r>    5.2932    0.0000 </r>
       <r>    5.2960    0.0000 </r>
       <r>    5.3128    0.0000 </r>
       <r>    5.3818    0.0000 </r>
       <r>    5.3880    0.0000 </r>
       <r>    5.4210    0.0000 </r>
       <r>    5.4324    0.0000 </r>
       <r>    5.4678    0.0000 </r>
       <r>    5.5097    0.0000 </r>
       <r>    5.5750    0.0000 </r>
       <r>    5.6506    0.0000 </r>
       <r>    5.6645    0.0000 </r>
       <r>    5.6821    0.0000 </r>
       <r>    5.6911    0.0000 </r>
       <r>    5.8149    0.0000 </r>
       <r>    5.8299    0.0000 </r>
       <r>    5.9218    0.0000 </r>
       <r>    5.9349    0.0000 </r>
       <r>    5.9499    0.0000 </r>
       <r>    5.9975    0.0000 </r>
       <r>    6.0500    0.0000 </r>
       <r>    6.1378    0.0000 </r>
       <r>    6.1807    0.0000 </r>
       <r>    6.1920    0.0000 </r>
       <r>    6.2492    0.0000 </r>
       <r>    6.3165    0.0000 </r>
       <r>    6.3423    0.0000 </r>
       <r>    6.3580    0.0000 </r>
       <r>    6.3728    0.0000 </r>
       <r>    6.4085    0.0000 </r>
       <r>    6.4262    0.0000 </r>
       <r>    6.4414    0.0000 </r>
       <r>    6.4638    0.0000 </r>
       <r>    6.4747    0.0000 </r>
       <r>    6.4907    0.0000 </r>
       <r>    6.5045    0.0000 </r>
       <r>    6.5189    0.0000 </r>
      </set>
      <set comment="kpoint 2">
       <r>   -7.6939    1.0000 </r>
       <r>   -7.4433    1.0000 </r>
       <r>   -7.3261    1.0000 </r>
       <r>   -7.2253    1.0000 </r>
       <r>   -7.1839    1.0000 </r>
       <r>   -7.0215    1.0000 </r>
       <r>   -6.9435    1.0000 </r>
       <r>   -6.9301    1.0000 </r>
       <r>   -6.8124    1.0000 </r>
       <r>   -6.6338    1.0000 </r>
       <r>   -6.4950    1.0000 </r>
       <r>   -6.4619    1.0000 </r>
       <r>   -6.4226    1.0000 </r>
       <r>   -6.3490    1.0000 </r>
       <r>   -6.2474    1.0000 </r>
       <r>   -6.2245    1.0000 </r>
       <r>   -6.2158    1.0000 </r>
       <r>   -6.1808    1.0000 </r>
       <r>   -6.1476    1.0000 </r>
       <r>   -6.0359    1.0000 </r>
       <r>   -5.9928    1.0000 </r>
       <r>   -5.9735    1.0000 </r>
       <r>   -5.9429    1.0000 </r>
       <r>   -5.8986    1.0000 </r>
       <r>   -5.7803    1.0000 </r>
       <r>   -5.7374    1.0000 </r>
       <r>   -5.6358    1.0000 </r>
       <r>   -5.5735    1.0000 </r>
       <r>   -5.5585    1.0000 </r>
       <r>   -5.4655    1.0000 </r>
       <r>   -5.4094    1.0000 </r>
       <r>   -5.3485    1.0000 </r>
       <r>   -5.3296    1.0000 </r>
       <r>   -5.2695    1.0000 </r>
       <r>   -5.2372    1.0000 </r>
       <r>   -5.2169    1.0000 </r>
       <r>   -5.1602    1.0000 </r>
       <r>   -5.1201    1.0000 </r>
       <r>   -5.0836    1.0000 </r>
       <r>   -5.0657    1.0000 </r>
[...]
       <r>    -5.1859    43.2165    72.1490 </r>
       <r>    -5.1312    43.2609    74.5149 </r>
       <r>    -5.0765    53.2827    77.4288 </r>
       <r>    -5.0219    41.7412    79.7116 </r>
       <r>    -4.9672    38.9975    81.8443 </r>
       <r>    -4.9125    23.6999    83.1404 </r>
       <r>    -4.8578    52.4098    86.0067 </r>
       <r>    -4.8031    18.1736    87.0005 </r>
       <r>    -4.7484    38.2925    89.0947 </r>
       <r>    -4.6937    35.3453    91.0277 </r>
       <r>    -4.6390    43.8194    93.4241 </r>
       <r>    -4.5844    23.6370    94.7168 </r>
       <r>    -4.5297    28.3510    96.2673 </r>
       <r>    -4.4750    43.3459    98.6378 </r>
       <r>    -4.4203    33.7186   100.4818 </r>
       <r>    -4.3656    54.2818   103.4504 </r>
       <r>    -4.3109    33.1449   105.2631 </r>
       <r>    -4.2562    25.3817   106.6512 </r>
       <r>    -4.2015    28.9808   108.2361 </r>
       <r>    -4.1468    15.9981   109.1110 </r>
       <r>    -4.0922    17.5084   110.0685 </r>
       <r>    -4.0375     9.2772   110.5759 </r>
       <r>    -3.9828    12.9519   111.2842 </r>
       <r>    -3.9281    33.2770   113.1040 </r>
       <r>    -3.8734    16.3825   114.0000 </r>
       <r>    -3.8187    11.9538   114.6537 </r>
       <r>    -3.7640    21.6456   115.8375 </r>
       <r>    -3.7093    25.1741   117.2142 </r>
       <r>    -3.6547     5.2260   117.5000 </r>
       <r>    -3.6000    21.4739   118.6744 </r>
       <r>    -3.5453    25.0122   120.0423 </r>
       <r>    -3.4906    16.9339   120.9684 </r>
       <r>    -3.4359    14.1828   121.7440 </r>
       <r>    -3.3812    24.6751   123.0934 </r>
       <r>    -3.3265    17.0513   124.0259 </r>
       <r>    -3.2718    21.2070   125.1857 </r>
       <r>    -3.2172    10.2018   125.7437 </r>
       <r>    -3.1625    53.2965   128.6584 </r>
       <r>    -3.1078    14.0355   129.4260 </r>
       <r>    -3.0531    12.1682   130.0915 </r>
       <r>    -2.9984    13.6098   130.8358 </r>
       <r>    -2.9437    37.3973   132.8810 </r>
       <r>    -2.8890    17.9602   133.8632 </r>
       <r>    -2.8343    39.9379   136.0473 </r>
       <r>    -2.7796    37.1238   138.0775 </r>
       <r>    -2.7250    16.4791   138.9787 </r>
       <r>    -2.6703    54.5130   141.9599 </r>
       <r>    -2.6156    61.0314   145.2976 </r>
       <r>    -2.5609    41.4626   147.5652 </r>
       <r>    -2.5062    60.5735   150.8778 </r>
       <r>    -2.4515    71.7752   154.8031 </r>
       <r>    -2.3968    48.4887   157.4548 </r>
       <r>    -2.3421    65.3401   161.0282 </r>
       <r>    -2.2875    52.4224   163.8951 </r>
       <r>    -2.2328    44.6399   166.3364 </r>
       <r>    -2.1781    48.8820   169.0097 </r>
       <r>    -2.1234    50.2132   171.7557 </r>
       <r>    -2.0687    50.2423   174.5034 </r>
       <r>    -2.0140    38.7058   176.6201 </r>
       <r>    -1.9593    38.5444   178.7280 </r>
       <r>    -1.9046    18.7087   179.7512 </r>
       <r>    -1.8499    21.8780   180.9477 </r>
       <r>    -1.7953    27.3042   182.4409 </r>
       <r>    -1.7406    25.1921   183.8186 </r>
       <r>    -1.6859    58.2056   187.0018 </r>
       <r>    -1.6312    43.0004   189.3534 </r>
       <r>    -1.5765    39.6697   191.5229 </r>
       <r>    -1.5218    15.2528   192.3570 </r>
       <r>    -1.4671    17.5050   193.3143 </r>
       <r>    -1.4124    41.7632   195.5983 </r>
       <r>    -1.3578    34.7268   197.4974 </r>
       <r>    -1.3031    14.3355   198.2814 </r>
       <r>    -1.2484    26.1275   199.7103 </r>
       <r>    -1.1937     8.9468   200.1996 </r>
       <r>    -1.1390     5.4099   200.4954 </r>
       <r>    -1.0843    17.2528   201.4389 </r>
       <r>    -1.0296    19.3340   202.4963 </r>
       <r>    -0.9749    42.2541   204.8071 </r>
       <r>    -0.9203    12.6698   205.5000 </r>
       <r>    -0.8656     4.5678   205.7498 </r>
       <r>    -0.8109    14.4942   206.5425 </r>
       <r>    -0.7562    15.1369   207.3703 </r>
       <r>    -0.7015    18.7569   208.3960 </r>
       <r>    -0.6468    33.2083   210.2122 </r>
       <r>    -0.5921    41.7282   212.4942 </r>
       <r>    -0.5374    28.1573   214.0341 </r>
       <r>    -0.4827    58.6823   217.2434 </r>
       <r>    -0.4281    12.3707   217.9199 </r>
       <r>    -0.3734    21.6813   219.1056 </r>
       <r>    -0.3187    16.3566   220.0001 </r>
       <r>    -0.2640     9.1955   220.5030 </r>
       <r>    -0.2093    14.1387   221.2762 </r>
       <r>    -0.1546    29.1742   222.8717 </r>
       <r>    -0.0999     6.9270   223.2506 </r>
       <r>    -0.0452    13.7392   224.0019 </r>
       <r>     0.0094    19.1166   225.0474 </r>
       <r>     0.0641     8.2773   225.5001 </r>
       <r>     0.1188     4.7075   225.7575 </r>
       <r>     0.1735    35.4037   227.6937 </r>
       <r>     0.2282    56.1391   230.7638 </r>
       <r>     0.2829    73.4663   234.7816 </r>
       <r>     0.3376    37.8425   236.8512 </r>
       <r>     0.3923    35.8433   238.8114 </r>
       <r>     0.4469    49.4730   241.5170 </r>
       <r>     0.5016    34.9426   243.4280 </r>
       <r>     0.5563    49.6515   246.1433 </r>
       <r>     0.6110    51.2379   248.9455 </r>
       <r>     0.6657    60.7761   252.2692 </r>
       <r>     0.7204    41.9688   254.5644 </r>
       <r>     0.7751   120.2284   261.1395 </r>
       <r>     0.8298    68.9547   264.9106 </r>
       <r>     0.8845    59.7011   268.1755 </r>
       <r>     0.9391    58.5380   271.3769 </r>
       <r>     0.9938    48.0239   274.0032 </r>
       <r>     1.0485    43.3547   276.3743 </r>
       <r>     1.1032    97.2898   281.6949 </r>
       <r>     1.1579    54.1405   284.6557 </r>
       <r>     1.2126    94.3875   289.8176 </r>
       <r>     1.2673    59.0209   293.0454 </r>
       <r>     1.3220    78.6237   297.3452 </r>
       <r>     1.3766    81.6535   301.8107 </r>
       <r>     1.4313    81.1879   306.2507 </r>
       <r>     1.4860    76.3365   310.4254 </r>
       <r>     1.5407    41.1904   312.6780 </r>
       <r>     1.5954    64.5921   316.2104 </r>
       <r>     1.6501    88.5955   321.0555 </r>
       <r>     1.7048    78.8984   325.3704 </r>
       <r>     1.7595    69.8648   329.1911 </r>
       <r>     1.8141   100.2268   334.6724 </r>
       <r>     1.8688   100.2082   340.1525 </r>
       <r>     1.9235    73.5124   344.1729 </r>
       <r>     1.9782    73.5703   348.1963 </r>
       <r>     2.0329    46.8525   350.7586 </r>
       <r>     2.0876    55.3495   353.7856 </r>
       <r>     2.1423    85.5389   358.4635 </r>
       <r>     2.1970    51.8323   361.2981 </r>
       <r>     2.2517    85.4499   365.9712 </r>
       <r>     2.3063    72.1901   369.9192 </r>
       <r>     2.3610    76.4704   374.1012 </r>
       <r>     2.4157    60.1692   377.3917 </r>
       <r>     2.4704    85.1703   382.0496 </r>
       <r>     2.5251    60.2331   385.3436 </r>
       <r>     2.5798    64.4455   388.8680 </r>
       <r>     2.6345    69.3610   392.6612 </r>
       <r>     2.6892    70.0084   396.4898 </r>
       <r>     2.7438    57.2862   399.6228 </r>
       <r>     2.7985    71.7688   403.5477 </r>
       <r>     2.8532    40.9769   405.7887 </r>
       <r>     2.9079    67.5796   409.4845 </r>
       <r>     2.9626    76.8099   413.6851 </r>
       <r>     3.0173    35.1748   415.6087 </r>
       <r>     3.0720    77.3760   419.8403 </r>
       <r>     3.1267    65.9489   423.4469 </r>
       <r>     3.1814    64.4817   426.9733 </r>
       <r>     3.2360    79.8238   431.3387 </r>
       <r>     3.2907    66.1069   434.9540 </r>
       <r>     3.3454    73.2415   438.9595 </r>
       <r>     3.4001    65.0901   442.5192 </r>
       <r>     3.4548    51.0055   445.3086 </r>
       <r>     3.5095    49.4796   448.0145 </r>
       <r>     3.5642    35.4286   449.9521 </r>
       <r>     3.6189    52.6570   452.8318 </r>
       <r>     3.6735    24.6596   454.1804 </r>
       <r>     3.7282    36.8565   456.1960 </r>
       <r>     3.7829    31.4480   457.9159 </r>
       <r>     3.8376    32.2354   459.6788 </r>
       <r>     3.8923    19.8957   460.7668 </r>
       <r>     3.9470    36.0717   462.7395 </r>
       <r>     4.0017    35.5279   464.6825 </r>
       <r>     4.0564    25.0150   466.0505 </r>
       <r>     4.1110    25.1876   467.4280 </r>
       <r>     4.1657    12.0407   468.0865 </r>
       <r>     4.2204    34.5569   469.9763 </r>
       <r>     4.2751    14.9821   470.7957 </r>
       <r>     4.3298    29.0015   472.3818 </r>
       <r>     4.3845     2.1604   472.5000 </r>
       <r>     4.4392     9.1506   473.0004 </r>
       <r>     4.4939    19.4374   474.0634 </r>
       <r>     4.5486    27.6336   475.5747 </r>
       <r>     4.6032    12.6755   476.2679 </r>
       <r>     4.6579     8.8162   476.7500 </r>
       <r>     4.7126    11.7924   477.3949 </r>
       <r>     4.7673    42.6135   479.7254 </r>
       <r>     4.8220    37.7417   481.7894 </r>
       <r>     4.8767    33.0334   483.5959 </r>
       <r>     4.9314    21.2475   484.7579 </r>
       <r>     4.9861    26.9138   486.2298 </r>
       <r>     5.0407    15.8818   487.0983 </r>
       <r>     5.0954    54.3213   490.0690 </r>
       <r>     5.1501    25.0689   491.4400 </r>
       <r>     5.2048    33.2899   493.2606 </r>
       <r>     5.2595    29.7986   494.8902 </r>
       <r>     5.3142    66.6162   498.5333 </r>
       <r>     5.3689    19.7755   499.6148 </r>
       <r>     5.4236    42.5299   501.9407 </r>
       <r>     5.4782    47.9348   504.5622 </r>
       <r>     5.5329    34.7716   506.4638 </r>
       <r>     5.5876    39.9974   508.6511 </r>
       <r>     5.6423    45.8814   511.1603 </r>
       <r>     5.6970    58.4875   514.3589 </r>
       <r>     5.7517    56.7230   517.4610 </r>
       <r>     5.8064    35.6631   519.4113 </r>
       <r>     5.8611    59.1173   522.6443 </r>
       <r>     5.9158    62.0238   526.0363 </r>
       <r>     5.9704    43.3583   528.4074 </r>
       <r>     6.0251    51.7106   531.2354 </r>
       <r>     6.0798    40.6765   533.4599 </r>
       <r>     6.1345    61.0280   536.7975 </r>
       <r>     6.1892    59.0737   540.0281 </r>
       <r>     6.2439    57.2031   543.1565 </r>
       <r>     6.2986    29.7402   544.7829 </r>
       <r>     6.3533    40.2152   546.9822 </r>
       <r>     6.4079    63.8801   550.4757 </r>
       <r>     6.4626    51.2489   553.2784 </r>
       <r>     6.5173    79.5994   557.6316 </r>
       <r>     6.5720    45.3711   560.1129 </r>
       <r>     6.6267    34.6544   562.0080 </r>
       <r>     6.6814    53.7095   564.9453 </r>
       <r>     6.7361    37.3093   566.9857 </r>
       <r>     6.7908    41.7834   569.2708 </r>
       <r>     6.8454    57.4502   572.4126 </r>
       <r>     6.9001    35.1415   574.3345 </r>
       <r>     6.9548     3.3199   574.5160 </r>
       <r>     7.0095    13.1149   575.2332 </r>
       <r>     7.0642     9.4602   575.7506 </r>
       <r>     7.1189     4.5601   576.0000 </r>
       <r>     7.1736     0.0000   576.0000 </r>
       <r>     7.2283     0.0000   576.0000 </r>
       <r>     7.2830     0.0000   576.0000 </r>
       <r>     7.3376     0.0000   576.0000 </r>
       <r>     7.3923     0.0000   576.0000 </r>
       <r>     7.4470     0.0000   576.0000 </r>
       <r>     7.5017     0.0000   576.0000 </r>
       <r>     7.5564     0.0000   576.0000 </r>
       <r>     7.6111     0.0000   576.0000 </r>
       <r>     7.6658     0.0000   576.0000 </r>
       <r>     7.7205     0.0000   576.0000 </r>
       <r>     7.7751     0.0000   576.0000 </r>
       <r>     7.8298     0.0000   576.0000 </r>
      </set>
     </set>
    </array>
   </total>
  </dos>
 </calculation>
 <structure name="finalpos" >
  <crystal>
   <varray name="basis" >
    <v>       7.68059444       0.00000000       0.00000000 </v>
    <v>       0.00000000      16.29299927       0.00000000 </v>
    <v>       0.00000000       0.00000000      21.00086403 </v>
   </varray>
   <i name="volume">   2628.04643725 </i>
   <varray name="rec_basis" >
    <v>       0.13019826       0.00000000       0.00000000 </v>
    <v>       0.00000000       0.06137605       0.00000000 </v>
    <v>       0.00000000       0.00000000       0.04761709 </v>
   </varray>
  </crystal>
  <varray name="positions" >
   <v>       0.97851729       0.98567820       0.00000000 </v>
   <v>       0.72851723       0.81901145       0.09143190 </v>
   <v>       0.47851718       0.65234476       0.18286380 </v>
   <v>       0.22851723       0.48567814       0.27429566 </v>
   <v>       0.97851718       0.31901139       0.36572757 </v>
   <v>       0.36432147       0.94633603       0.56019974 </v>
   <v>       0.36432147       0.94633615       0.82960773 </v>
   <v>       0.72851723       0.15234485       0.09143190 </v>
   <v>       0.47851718       0.98567814       0.18286380 </v>
   <v>       0.22851723       0.81901151       0.27429566 </v>
   <v>       0.97851718       0.65234476       0.36572757 </v>
   <v>       0.72851718       0.48567808       0.45715946 </v>
   <v>       0.97851729       0.65234494       0.00000000 </v>
   <v>       0.72851723       0.48567820       0.09143190 </v>
   <v>       0.47851718       0.31901151       0.18286380 </v>
   <v>       0.22851723       0.15234487       0.27429566 </v>
   <v>       0.97851718       0.98567814       0.36572757 </v>
   <v>       0.72851718       0.81901139       0.45715946 </v>
   <v>       0.47851729       0.98567820       0.00000000 </v>
   <v>       0.22851725       0.81901145       0.09143190 </v>
   <v>       0.97851723       0.65234476       0.18286380 </v>
   <v>       0.72851729       0.48567814       0.27429563 </v>
   <v>       0.47851718       0.31901139       0.36572757 </v>
   <v>       0.22851712       0.15234470       0.45715946 </v>
   <v>       0.47851729       0.31901154       0.00000000 </v>
   <v>       0.22851725       0.15234485       0.09143190 </v>
   <v>       0.97851723       0.98567814       0.18286380 </v>
   <v>       0.72851729       0.81901151       0.27429563 </v>
   <v>       0.47851718       0.65234476       0.36572757 </v>
   <v>       0.22851712       0.48567808       0.45715946 </v>
   <v>       0.11432147       0.44633609       0.89695972 </v>
   <v>       0.22851725       0.48567820       0.09143190 </v>
   <v>       0.97851723       0.31901151       0.18286380 </v>
   <v>       0.72851729       0.15234487       0.27429563 </v>
   <v>       0.47851718       0.98567814       0.36572757 </v>
   <v>       0.61432147       0.44633606       0.62755173 </v>
   <v>       0.11432147       0.69633609       0.89695972 </v>
   <v>       0.47851729       0.06901149       0.09143189 </v>
   <v>       0.22851726       0.90234476       0.18286380 </v>
   <v>       0.97851729       0.73567814       0.27429566 </v>
   <v>       0.72851723       0.56901145       0.36572757 </v>
   <v>       0.86432147       0.44633609       0.56019974 </v>
   <v>       0.72851735       0.56901163       0.00000000 </v>
   <v>       0.47851729       0.40234488       0.09143189 </v>
   <v>       0.22851726       0.23567820       0.18286380 </v>
   <v>       0.86432147       0.69633603       0.56019974 </v>
   <v>       0.72851723       0.90234482       0.36572757 </v>
   <v>       0.47851723       0.73567808       0.45715940 </v>
   <v>       0.72851735       0.90234494       0.00000000 </v>
   <v>       0.11432147       0.94633603       0.89695972 </v>
   <v>       0.22851726       0.56901151       0.18286380 </v>
   <v>       0.97851729       0.40234485       0.27429566 </v>
   <v>       0.36432147       0.44633606       0.56019974 </v>
   <v>       0.47851723       0.06901138       0.45715940 </v>
   <v>       0.22851729       0.23567820       0.00000000 </v>
   <v>       0.97851723       0.06901149       0.09143190 </v>
   <v>       0.72851718       0.90234476       0.18286380 </v>
   <v>       0.47851729       0.73567814       0.27429563 </v>
   <v>       0.22851718       0.56901145       0.36572757 </v>
   <v>       0.97851706       0.40234464       0.45715946 </v>
   <v>       0.22851729       0.56901163       0.00000000 </v>
   <v>       0.97851723       0.40234488       0.09143190 </v>
   <v>       0.72851718       0.23567820       0.18286380 </v>
   <v>       0.47851729       0.06901154       0.27429563 </v>
   <v>       0.22851718       0.90234482       0.36572757 </v>
   <v>       0.36432147       0.19633615       0.56019974 </v>
   <v>       0.61432147       0.94633603       0.89695972 </v>
   <v>       0.97851723       0.73567820       0.09143190 </v>
   <v>       0.61432147       0.19633615       0.89695972 </v>
   <v>       0.47851729       0.40234485       0.27429563 </v>
   <v>       0.22851718       0.23567812       0.36572757 </v>
   <v>       0.97851706       0.06901138       0.45715946 </v>
   <v>       0.97851729       0.06901154       0.27429566 </v>
   <v>       0.61432147       0.32133609       0.69490373 </v>
   <v>       0.97851729       0.31901154       0.00000000 </v>
   <v>       0.72851718       0.15234470       0.45715946 </v>
   <v>       0.11432147       0.57133609       0.69490373 </v>
   <v>       0.86432147       0.19633615       0.82960773 </v>
   <v>       0.86432147       0.19633615       0.56019974 </v>
   <v>       0.61432147       0.82133615       0.69490373 </v>
   <v>       0.36432147       0.44633609       0.82960773 </v>
   <v>       0.72851723       0.23567812       0.36572757 </v>
   <v>       0.11432147       0.07133615       0.69490373 </v>
   <v>       0.86432147       0.69633609       0.82960773 </v>
   <v>       0.11432147       0.69633603       0.62755173 </v>
   <v>       0.86432147       0.32133609       0.76225573 </v>
   <v>       0.22851729       0.90234494       0.00000000 </v>
   <v>       0.61432147       0.94633603       0.62755173 </v>
   <v>       0.36432147       0.57133609       0.76225573 </v>
   <v>       0.11432147       0.19633603       0.89695972 </v>
   <v>       0.11432147       0.19633615       0.62755173 </v>
   <v>       0.86432147       0.82133615       0.76225573 </v>
   <v>       0.61432147       0.44633609       0.89695972 </v>
   <v>       0.22851712       0.81901139       0.45715946 </v>
   <v>       0.36432147       0.07133615       0.76225573 </v>
   <v>       0.72851735       0.23567820       0.00000000 </v>
   <v>       0.86432147       0.94633609       0.56019974 </v>
   <v>       0.61432159       0.57133615       0.69490373 </v>
   <v>       0.36432147       0.19633615       0.82960773 </v>
   <v>       0.47851723       0.40234464       0.45715940 </v>
   <v>       0.61432147       0.07133615       0.69490373 </v>
   <v>       0.36432147       0.69633609       0.82960773 </v>
   <v>       0.36432147       0.69633609       0.56019974 </v>
   <v>       0.11432147       0.32133615       0.69490373 </v>
   <v>       0.86432147       0.94633615       0.82960773 </v>
   <v>       0.97851706       0.73567808       0.45715946 </v>
   <v>       0.11432147       0.82133609       0.69490373 </v>
   <v>       0.86432147       0.44633615       0.82960773 </v>
   <v>       0.11432159       0.94633609       0.62755173 </v>
   <v>       0.86432147       0.57133615       0.76225573 </v>
   <v>       0.72851718       0.56901151       0.18286380 </v>
   <v>       0.11432147       0.44633609       0.62755173 </v>
   <v>       0.86432147       0.07133615       0.76225573 </v>
   <v>       0.61432147       0.69633609       0.89695972 </v>
   <v>       0.61432147       0.69633603       0.62755173 </v>
   <v>       0.36432147       0.32133606       0.76225573 </v>
   <v>       0.47851729       0.73567820       0.09143189 </v>
   <v>       0.61432147       0.19633615       0.62755173 </v>
   <v>       0.36432147       0.82133615       0.76225573 </v>
   <v>       0.47851729       0.65234494       0.00000000 </v>
  </varray>
 </structure>
</modeling>
