 228 228   0   0
  0.2256881E+02  0.1697340E-08  0.1697340E-08  0.1786100E-08  0.5000000E-15
  1.000000000000000E-004
  CAR 
 Si and Ge interface calculation         
      7.15746335     -8.86552097  301      4.30482856      1.00000000
     -8.866  0.0000E+00  0.0000E+00  0.0000E+00  0.0000E+00
     -8.812  0.0000E+00  0.0000E+00  0.0000E+00  0.0000E+00
     -8.759  0.0000E+00  0.0000E+00  0.0000E+00  0.0000E+00
     -8.705  0.0000E+00  0.0000E+00  0.0000E+00  0.0000E+00
     -8.652  0.0000E+00  0.0000E+00  0.0000E+00  0.0000E+00
     -8.598  0.0000E+00  0.0000E+00  0.0000E+00  0.0000E+00
     -8.545  0.0000E+00  0.0000E+00  0.0000E+00  0.0000E+00
     -8.492  0.0000E+00  0.0000E+00  0.0000E+00  0.0000E+00
     -8.438  0.0000E+00  0.0000E+00  0.0000E+00  0.0000E+00
     -8.385  0.0000E+00  0.0000E+00  0.0000E+00  0.0000E+00
     -8.331  0.0000E+00  0.0000E+00  0.0000E+00  0.0000E+00
     -8.278  0.0000E+00  0.0000E+00  0.0000E+00  0.0000E+00
     -8.225  0.0000E+00  0.0000E+00  0.0000E+00  0.0000E+00
     -8.171  0.3595E-05  0.6599E-06  0.1920E-06  0.3524E-07
     -8.118  0.9029E+01  0.8760E+01  0.4822E+00  0.4678E+00
     -8.064  0.3329E+00  0.6020E+00  0.5000E+00  0.5000E+00
     -8.011  0.3595E+02  0.3481E+02  0.2420E+01  0.2359E+01
     -7.958  0.5989E+01  0.6503E+01  0.2740E+01  0.2707E+01
     -7.904  0.1810E+02  0.1756E+02  0.3707E+01  0.3645E+01
     -7.851  0.1485E+02  0.1601E+02  0.4500E+01  0.4500E+01
     -7.797  0.6470E-08  0.1538E-08  0.4500E+01  0.4500E+01
     -7.744  0.8430E+01  0.7066E+01  0.4950E+01  0.4877E+01
     -7.691  0.1678E+02  0.1722E+02  0.5846E+01  0.5797E+01
     -7.637  0.3568E+02  0.3272E+02  0.7752E+01  0.7545E+01
     -7.584  0.7848E+02  0.8021E+02  0.1194E+02  0.1183E+02
     -7.530  0.2983E+02  0.3157E+02  0.1354E+02  0.1352E+02
     -7.477  0.8942E+01  0.9176E+01  0.1401E+02  0.1401E+02
     -7.423  0.1734E+02  0.1678E+02  0.1494E+02  0.1490E+02
     -7.370  0.7065E+01  0.7036E+01  0.1532E+02  0.1528E+02
     -7.317  0.1814E+02  0.1850E+02  0.1629E+02  0.1627E+02
     -7.263  0.5990E+02  0.5971E+02  0.1949E+02  0.1945E+02
     -7.210  0.3333E+02  0.3122E+02  0.2127E+02  0.2112E+02
     -7.156  0.8016E+02  0.8035E+02  0.2555E+02  0.2541E+02
     -7.103  0.5274E+02  0.5291E+02  0.2836E+02  0.2824E+02
     -7.050  0.5696E+02  0.5366E+02  0.3141E+02  0.3111E+02
     -6.996  0.3414E+02  0.3949E+02  0.3323E+02  0.3321E+02
     -6.943  0.9758E+01  0.9922E+01  0.3375E+02  0.3374E+02
     -6.889  0.6125E+02  0.5696E+02  0.3702E+02  0.3679E+02
     -6.836  0.6586E+02  0.6314E+02  0.4054E+02  0.4016E+02
     -6.783  0.6887E+02  0.7419E+02  0.4422E+02  0.4412E+02
     -6.729  0.3125E+02  0.3103E+02  0.4589E+02  0.4578E+02
     -6.676  0.8264E+02  0.8018E+02  0.5030E+02  0.5006E+02
     -6.622  0.4376E+02  0.4703E+02  0.5264E+02  0.5257E+02
     -6.569  0.5200E+02  0.4934E+02  0.5542E+02  0.5521E+02
     -6.515  0.6243E+02  0.6203E+02  0.5875E+02  0.5852E+02
     -6.462  0.8443E+02  0.7975E+02  0.6326E+02  0.6278E+02
     -6.409  0.8667E+02  0.9193E+02  0.6789E+02  0.6769E+02
     -6.355  0.8527E+02  0.8657E+02  0.7244E+02  0.7231E+02
     -6.302  0.1004E+03  0.9960E+02  0.7781E+02  0.7763E+02
     -6.248  0.8186E+02  0.8248E+02  0.8218E+02  0.8204E+02
     -6.195  0.8272E+02  0.8065E+02  0.8660E+02  0.8635E+02
     -6.142  0.7025E+02  0.7242E+02  0.9035E+02  0.9021E+02
     -6.088  0.3937E+02  0.4060E+02  0.9245E+02  0.9238E+02
     -6.035  0.6979E+02  0.6685E+02  0.9618E+02  0.9595E+02
     -5.981  0.8900E+02  0.8642E+02  0.1009E+03  0.1006E+03
     -5.928  0.6520E+02  0.6921E+02  0.1044E+03  0.1043E+03
     -5.875  0.4933E+02  0.4889E+02  0.1071E+03  0.1069E+03
     -5.821  0.7090E+02  0.6903E+02  0.1108E+03  0.1106E+03
     -5.768  0.7957E+02  0.8051E+02  0.1151E+03  0.1149E+03
     -5.714  0.7767E+02  0.7634E+02  0.1192E+03  0.1189E+03
     -5.661  0.9851E+02  0.9991E+02  0.1245E+03  0.1243E+03
     -5.608  0.3871E+02  0.4096E+02  0.1266E+03  0.1265E+03
     -5.554  0.1011E+03  0.9340E+02  0.1320E+03  0.1315E+03
     -5.501  0.1103E+03  0.1154E+03  0.1379E+03  0.1376E+03
     -5.447  0.8205E+02  0.8013E+02  0.1422E+03  0.1419E+03
     -5.394  0.4596E+02  0.5000E+02  0.1447E+03  0.1446E+03
     -5.340  0.5281E+02  0.5281E+02  0.1475E+03  0.1474E+03
     -5.287  0.8885E+02  0.8713E+02  0.1523E+03  0.1520E+03
     -5.234  0.8903E+02  0.8531E+02  0.1570E+03  0.1566E+03
     -5.180  0.9706E+02  0.9760E+02  0.1622E+03  0.1618E+03
     -5.127  0.5346E+02  0.5569E+02  0.1651E+03  0.1648E+03
     -5.073  0.6526E+02  0.6676E+02  0.1685E+03  0.1684E+03
     -5.020  0.6220E+02  0.6074E+02  0.1719E+03  0.1716E+03
     -4.967  0.6636E+02  0.6499E+02  0.1754E+03  0.1751E+03
     -4.913  0.8211E+02  0.7994E+02  0.1798E+03  0.1793E+03
     -4.860  0.6528E+02  0.7189E+02  0.1833E+03  0.1832E+03
     -4.806  0.4760E+02  0.4483E+02  0.1858E+03  0.1856E+03
     -4.753  0.4865E+02  0.5055E+02  0.1884E+03  0.1883E+03
     -4.700  0.6149E+02  0.5877E+02  0.1917E+03  0.1914E+03
     -4.646  0.6191E+02  0.6582E+02  0.1950E+03  0.1949E+03
     -4.593  0.4781E+02  0.4584E+02  0.1976E+03  0.1974E+03
     -4.539  0.6054E+02  0.6142E+02  0.2008E+03  0.2007E+03
     -4.486  0.6767E+02  0.6669E+02  0.2044E+03  0.2042E+03
     -4.432  0.6235E+02  0.6275E+02  0.2077E+03  0.2076E+03
     -4.379  0.6123E+02  0.6075E+02  0.2110E+03  0.2108E+03
     -4.326  0.5826E+02  0.5824E+02  0.2141E+03  0.2139E+03
     -4.272  0.1632E+02  0.1972E+02  0.2150E+03  0.2150E+03
     -4.219  0.3774E+02  0.3648E+02  0.2170E+03  0.2169E+03
     -4.165  0.5148E+02  0.5031E+02  0.2198E+03  0.2196E+03
     -4.112  0.4042E+02  0.4137E+02  0.2219E+03  0.2218E+03
     -4.059  0.2015E+02  0.2199E+02  0.2230E+03  0.2230E+03
     -4.005  0.4797E+02  0.4201E+02  0.2256E+03  0.2252E+03
     -3.952  0.6959E+02  0.7074E+02  0.2293E+03  0.2290E+03
     -3.898  0.2354E+02  0.2799E+02  0.2305E+03  0.2305E+03
     -3.845  0.3835E+02  0.3486E+02  0.2326E+03  0.2324E+03
     -3.792  0.3330E+02  0.3239E+02  0.2344E+03  0.2341E+03
     -3.738  0.4422E+02  0.4828E+02  0.2367E+03  0.2367E+03
     -3.685  0.1920E+02  0.1921E+02  0.2377E+03  0.2377E+03
     -3.631  0.3626E+02  0.3354E+02  0.2397E+03  0.2395E+03
     -3.578  0.4609E+02  0.4598E+02  0.2421E+03  0.2420E+03
     -3.525  0.1966E+02  0.2094E+02  0.2432E+03  0.2431E+03
     -3.471  0.7226E+02  0.6391E+02  0.2471E+03  0.2465E+03
     -3.418  0.1115E+03  0.1160E+03  0.2530E+03  0.2527E+03
     -3.364  0.9072E+02  0.8983E+02  0.2579E+03  0.2575E+03
     -3.311  0.5226E+02  0.5452E+02  0.2606E+03  0.2604E+03
     -3.257  0.1003E+03  0.9896E+02  0.2660E+03  0.2657E+03
     -3.204  0.6817E+02  0.6668E+02  0.2696E+03  0.2692E+03
     -3.151  0.9495E+02  0.9325E+02  0.2747E+03  0.2742E+03
     -3.097  0.6634E+02  0.7124E+02  0.2783E+03  0.2780E+03
     -3.044  0.8908E+02  0.8745E+02  0.2830E+03  0.2827E+03
     -2.990  0.7731E+02  0.7792E+02  0.2871E+03  0.2869E+03
     -2.937  0.6080E+02  0.6122E+02  0.2904E+03  0.2901E+03
     -2.884  0.8649E+02  0.8643E+02  0.2950E+03  0.2947E+03
     -2.830  0.5548E+02  0.5588E+02  0.2980E+03  0.2977E+03
     -2.777  0.6697E+02  0.6361E+02  0.3016E+03  0.3011E+03
     -2.723  0.9197E+02  0.9610E+02  0.3065E+03  0.3063E+03
     -2.670  0.6274E+02  0.6291E+02  0.3098E+03  0.3096E+03
     -2.617  0.7041E+02  0.7067E+02  0.3136E+03  0.3134E+03
     -2.563  0.5998E+02  0.6049E+02  0.3168E+03  0.3166E+03
     -2.510  0.5236E+02  0.4820E+02  0.3196E+03  0.3192E+03
     -2.456  0.7850E+02  0.7998E+02  0.3238E+03  0.3235E+03
     -2.403  0.6091E+02  0.6377E+02  0.3270E+03  0.3269E+03
     -2.350  0.7537E+02  0.7278E+02  0.3310E+03  0.3308E+03
     -2.296  0.1094E+03  0.1097E+03  0.3369E+03  0.3366E+03
     -2.243  0.7271E+02  0.7039E+02  0.3408E+03  0.3404E+03
     -2.189  0.9659E+02  0.9656E+02  0.3459E+03  0.3455E+03
     -2.136  0.5228E+02  0.5859E+02  0.3487E+03  0.3487E+03
     -2.082  0.6096E+02  0.5687E+02  0.3520E+03  0.3517E+03
     -2.029  0.5525E+02  0.5759E+02  0.3549E+03  0.3548E+03
     -1.976  0.5301E+02  0.5002E+02  0.3578E+03  0.3575E+03
     -1.922  0.7582E+02  0.7449E+02  0.3618E+03  0.3614E+03
     -1.869  0.9624E+02  0.9734E+02  0.3670E+03  0.3666E+03
     -1.815  0.3557E+02  0.4000E+02  0.3689E+03  0.3688E+03
     -1.762  0.3894E+02  0.3855E+02  0.3709E+03  0.3708E+03
     -1.709  0.2969E+02  0.3084E+02  0.3725E+03  0.3725E+03
     -1.655  0.8142E+02  0.7936E+02  0.3769E+03  0.3767E+03
     -1.602  0.3324E+02  0.3412E+02  0.3786E+03  0.3785E+03
     -1.548  0.5104E+02  0.4848E+02  0.3814E+03  0.3811E+03
     -1.495  0.3787E+02  0.4071E+02  0.3834E+03  0.3833E+03
     -1.442  0.3635E+02  0.3398E+02  0.3853E+03  0.3851E+03
     -1.388  0.3757E+02  0.3855E+02  0.3873E+03  0.3872E+03
     -1.335  0.2230E+02  0.2290E+02  0.3885E+03  0.3884E+03
     -1.281  0.4663E+02  0.4572E+02  0.3910E+03  0.3908E+03
     -1.228  0.3515E+02  0.3633E+02  0.3929E+03  0.3928E+03
     -1.174  0.9553E+02  0.9638E+02  0.3980E+03  0.3979E+03
     -1.121  0.4414E+02  0.4177E+02  0.4004E+03  0.4002E+03
     -1.068  0.3220E+02  0.3320E+02  0.4021E+03  0.4019E+03
     -1.014  0.4085E+02  0.4323E+02  0.4043E+03  0.4042E+03
     -0.961  0.2783E+02  0.2731E+02  0.4057E+03  0.4057E+03
     -0.907  0.6296E+02  0.5961E+02  0.4091E+03  0.4089E+03
     -0.854  0.2141E+02  0.2561E+02  0.4103E+03  0.4102E+03
     -0.801  0.4123E+02  0.3871E+02  0.4125E+03  0.4123E+03
     -0.747  0.2658E+02  0.2766E+02  0.4139E+03  0.4138E+03
     -0.694  0.2222E+02  0.2241E+02  0.4151E+03  0.4150E+03
     -0.640  0.5043E+02  0.5162E+02  0.4178E+03  0.4177E+03
     -0.587  0.2350E+02  0.2131E+02  0.4190E+03  0.4189E+03
     -0.534  0.1090E+02  0.1203E+02  0.4196E+03  0.4195E+03
     -0.480  0.3614E+02  0.3628E+02  0.4215E+03  0.4215E+03
     -0.427  0.2543E+02  0.2328E+02  0.4229E+03  0.4227E+03
     -0.373  0.4165E+02  0.3841E+02  0.4251E+03  0.4248E+03
     -0.320  0.2614E+02  0.3237E+02  0.4265E+03  0.4265E+03
     -0.267  0.3361E+02  0.2997E+02  0.4283E+03  0.4281E+03
     -0.213  0.4380E+02  0.4430E+02  0.4306E+03  0.4305E+03
     -0.160  0.6038E+02  0.6039E+02  0.4339E+03  0.4337E+03
     -0.106  0.3904E+02  0.4074E+02  0.4359E+03  0.4359E+03
     -0.053  0.4244E+02  0.3574E+02  0.4382E+03  0.4378E+03
      0.001  0.6972E+02  0.7626E+02  0.4419E+03  0.4418E+03
      0.054  0.9239E+02  0.8726E+02  0.4469E+03  0.4465E+03
      0.107  0.1107E+03  0.1123E+03  0.4528E+03  0.4525E+03
      0.161  0.5764E+02  0.5799E+02  0.4559E+03  0.4556E+03
      0.214  0.1186E+03  0.1108E+03  0.4622E+03  0.4615E+03
      0.268  0.1432E+03  0.1467E+03  0.4698E+03  0.4693E+03
      0.321  0.1240E+03  0.1208E+03  0.4765E+03  0.4758E+03
      0.374  0.1033E+03  0.1078E+03  0.4820E+03  0.4816E+03
      0.428  0.1435E+03  0.1434E+03  0.4897E+03  0.4892E+03
      0.481  0.6273E+02  0.6533E+02  0.4930E+03  0.4927E+03
      0.535  0.1493E+03  0.1399E+03  0.5010E+03  0.5002E+03
      0.588  0.1541E+03  0.1563E+03  0.5092E+03  0.5085E+03
      0.641  0.1408E+03  0.1388E+03  0.5167E+03  0.5159E+03
      0.695  0.1372E+03  0.1407E+03  0.5241E+03  0.5235E+03
      0.748  0.1524E+03  0.1532E+03  0.5322E+03  0.5316E+03
      0.802  0.1122E+03  0.1127E+03  0.5382E+03  0.5377E+03
      0.855  0.1307E+03  0.1340E+03  0.5452E+03  0.5448E+03
      0.908  0.1546E+03  0.1491E+03  0.5534E+03  0.5528E+03
      0.962  0.1306E+03  0.1341E+03  0.5604E+03  0.5599E+03
      1.015  0.1146E+03  0.1146E+03  0.5665E+03  0.5661E+03
      1.069  0.9982E+02  0.9953E+02  0.5719E+03  0.5714E+03
      1.122  0.1328E+03  0.1337E+03  0.5789E+03  0.5785E+03
      1.176  0.1393E+03  0.1413E+03  0.5864E+03  0.5861E+03
      1.229  0.1417E+03  0.1441E+03  0.5940E+03  0.5938E+03
      1.282  0.1716E+03  0.1649E+03  0.6031E+03  0.6026E+03
      1.336  0.1568E+03  0.1633E+03  0.6115E+03  0.6113E+03
      1.389  0.1221E+03  0.1177E+03  0.6180E+03  0.6176E+03
      1.443  0.1161E+03  0.1168E+03  0.6242E+03  0.6238E+03
      1.496  0.1208E+03  0.1222E+03  0.6307E+03  0.6303E+03
      1.549  0.1590E+03  0.1565E+03  0.6392E+03  0.6387E+03
      1.603  0.1632E+03  0.1594E+03  0.6479E+03  0.6472E+03
      1.656  0.1620E+03  0.1680E+03  0.6565E+03  0.6562E+03
      1.710  0.1163E+03  0.1176E+03  0.6627E+03  0.6625E+03
      1.763  0.1213E+03  0.1183E+03  0.6692E+03  0.6688E+03
      1.816  0.1821E+03  0.1841E+03  0.6789E+03  0.6786E+03
      1.870  0.1084E+03  0.1047E+03  0.6847E+03  0.6842E+03
      1.923  0.1140E+03  0.1162E+03  0.6908E+03  0.6904E+03
      1.977  0.1306E+03  0.1301E+03  0.6978E+03  0.6974E+03
      2.030  0.1086E+03  0.1103E+03  0.7036E+03  0.7032E+03
      2.084  0.9037E+02  0.8958E+02  0.7084E+03  0.7080E+03
      2.137  0.1344E+03  0.1246E+03  0.7156E+03  0.7147E+03
      2.190  0.1879E+03  0.1930E+03  0.7256E+03  0.7250E+03
      2.244  0.1284E+03  0.1316E+03  0.7325E+03  0.7320E+03
      2.297  0.1329E+03  0.1331E+03  0.7396E+03  0.7391E+03
      2.351  0.1191E+03  0.1152E+03  0.7459E+03  0.7453E+03
      2.404  0.1359E+03  0.1361E+03  0.7532E+03  0.7526E+03
      2.457  0.1322E+03  0.1333E+03  0.7603E+03  0.7597E+03
      2.511  0.1120E+03  0.1119E+03  0.7663E+03  0.7656E+03
      2.564  0.1002E+03  0.1018E+03  0.7716E+03  0.7711E+03
      2.618  0.1612E+03  0.1614E+03  0.7802E+03  0.7797E+03
      2.671  0.9218E+02  0.9323E+02  0.7851E+03  0.7847E+03
      2.724  0.1265E+03  0.1246E+03  0.7919E+03  0.7913E+03
      2.778  0.1161E+03  0.1155E+03  0.7981E+03  0.7975E+03
      2.831  0.1208E+03  0.1164E+03  0.8045E+03  0.8037E+03
      2.885  0.1443E+03  0.1543E+03  0.8123E+03  0.8120E+03
      2.938  0.1311E+03  0.1298E+03  0.8193E+03  0.8189E+03
      2.991  0.1192E+03  0.1192E+03  0.8256E+03  0.8253E+03
      3.045  0.7009E+02  0.6694E+02  0.8294E+03  0.8288E+03
      3.098  0.1122E+03  0.1141E+03  0.8354E+03  0.8349E+03
      3.152  0.7348E+02  0.7369E+02  0.8393E+03  0.8389E+03
      3.205  0.7790E+02  0.7850E+02  0.8434E+03  0.8431E+03
      3.259  0.5108E+02  0.4922E+02  0.8462E+03  0.8457E+03
      3.312  0.9481E+02  0.9322E+02  0.8512E+03  0.8507E+03
      3.365  0.9179E+02  0.8926E+02  0.8561E+03  0.8554E+03
      3.419  0.1109E+03  0.1102E+03  0.8621E+03  0.8613E+03
      3.472  0.8826E+02  0.9235E+02  0.8668E+03  0.8663E+03
      3.526  0.5690E+02  0.5813E+02  0.8698E+03  0.8694E+03
      3.579  0.8942E+02  0.9273E+02  0.8746E+03  0.8743E+03
      3.632  0.4384E+02  0.4408E+02  0.8769E+03  0.8767E+03
      3.686  0.2962E+02  0.3145E+02  0.8785E+03  0.8784E+03
      3.739  0.8271E+02  0.7852E+02  0.8829E+03  0.8825E+03
      3.793  0.6108E+02  0.5403E+02  0.8862E+03  0.8854E+03
      3.846  0.6139E+02  0.7334E+02  0.8895E+03  0.8894E+03
      3.899  0.3064E+02  0.2308E+02  0.8911E+03  0.8906E+03
      3.953  0.4177E+02  0.3848E+02  0.8933E+03  0.8926E+03
      4.006  0.7744E+02  0.7999E+02  0.8975E+03  0.8969E+03
      4.060  0.3076E+02  0.3476E+02  0.8991E+03  0.8988E+03
      4.113  0.2702E+02  0.2448E+02  0.9006E+03  0.9001E+03
      4.167  0.3703E+02  0.4255E+02  0.9025E+03  0.9023E+03
      4.220  0.5937E+02  0.5046E+02  0.9057E+03  0.9050E+03
      4.273  0.7825E+02  0.7763E+02  0.9099E+03  0.9092E+03
      4.327  0.4352E+02  0.5119E+02  0.9122E+03  0.9119E+03
      4.380  0.8473E+02  0.6925E+02  0.9167E+03  0.9156E+03
      4.434  0.6255E+02  0.7061E+02  0.9201E+03  0.9194E+03
      4.487  0.4518E+02  0.5191E+02  0.9225E+03  0.9222E+03
      4.540  0.5841E+02  0.5261E+02  0.9256E+03  0.9250E+03
      4.594  0.8586E+02  0.9017E+02  0.9302E+03  0.9298E+03
      4.647  0.4679E+02  0.3953E+02  0.9327E+03  0.9319E+03
      4.701  0.7081E+02  0.7347E+02  0.9365E+03  0.9358E+03
      4.754  0.9344E+02  0.9468E+02  0.9415E+03  0.9409E+03
      4.807  0.5334E+02  0.5462E+02  0.9443E+03  0.9438E+03
      4.861  0.8662E+02  0.8075E+02  0.9489E+03  0.9481E+03
      4.914  0.9458E+02  0.9915E+02  0.9540E+03  0.9534E+03
      4.968  0.7927E+02  0.7577E+02  0.9582E+03  0.9575E+03
      5.021  0.8307E+02  0.8125E+02  0.9627E+03  0.9618E+03
      5.074  0.7266E+02  0.7896E+02  0.9666E+03  0.9660E+03
      5.128  0.1153E+03  0.1086E+03  0.9727E+03  0.9718E+03
      5.181  0.1087E+03  0.1062E+03  0.9785E+03  0.9775E+03
      5.235  0.7427E+02  0.7936E+02  0.9825E+03  0.9817E+03
      5.288  0.7273E+02  0.7120E+02  0.9864E+03  0.9855E+03
      5.342  0.8061E+02  0.8482E+02  0.9907E+03  0.9901E+03
      5.395  0.1055E+03  0.1065E+03  0.9963E+03  0.9957E+03
      5.448  0.7065E+02  0.7041E+02  0.1000E+04  0.9995E+03
      5.502  0.1350E+03  0.1347E+03  0.1007E+04  0.1007E+04
      5.555  0.9432E+02  0.8896E+02  0.1012E+04  0.1011E+04
      5.609  0.9761E+02  0.1015E+03  0.1018E+04  0.1017E+04
      5.662  0.1239E+03  0.1244E+03  0.1024E+04  0.1024E+04
      5.715  0.1072E+03  0.1057E+03  0.1030E+04  0.1029E+04
      5.769  0.7910E+02  0.7953E+02  0.1034E+04  0.1033E+04
      5.822  0.1108E+03  0.1149E+03  0.1040E+04  0.1040E+04
      5.876  0.1100E+03  0.1102E+03  0.1046E+04  0.1045E+04
      5.929  0.1323E+03  0.1288E+03  0.1053E+04  0.1052E+04
      5.982  0.1213E+03  0.1159E+03  0.1059E+04  0.1059E+04
      6.036  0.1066E+03  0.1150E+03  0.1065E+04  0.1065E+04
      6.089  0.1185E+03  0.1171E+03  0.1071E+04  0.1071E+04
      6.143  0.5580E+02  0.5831E+02  0.1074E+04  0.1074E+04
      6.196  0.1081E+03  0.1083E+03  0.1080E+04  0.1080E+04
      6.249  0.9250E+02  0.9051E+02  0.1085E+04  0.1085E+04
      6.303  0.7832E+02  0.7807E+02  0.1089E+04  0.1089E+04
      6.356  0.6554E+02  0.7803E+02  0.1093E+04  0.1093E+04
      6.410  0.4785E+02  0.4627E+02  0.1095E+04  0.1095E+04
      6.463  0.1117E+02  0.1032E+02  0.1096E+04  0.1096E+04
      6.517  0.0000E+00  0.0000E+00  0.1096E+04  0.1096E+04
      6.570  0.0000E+00  0.0000E+00  0.1096E+04  0.1096E+04
      6.623  0.0000E+00  0.0000E+00  0.1096E+04  0.1096E+04
      6.677  0.0000E+00  0.0000E+00  0.1096E+04  0.1096E+04
      6.730  0.0000E+00  0.0000E+00  0.1096E+04  0.1096E+04
      6.784  0.0000E+00  0.0000E+00  0.1096E+04  0.1096E+04
      6.837  0.0000E+00  0.0000E+00  0.1096E+04  0.1096E+04
      6.890  0.0000E+00  0.0000E+00  0.1096E+04  0.1096E+04
      6.944  0.0000E+00  0.0000E+00  0.1096E+04  0.1096E+04
      6.997  0.0000E+00  0.0000E+00  0.1096E+04  0.1096E+04
      7.051  0.0000E+00  0.0000E+00  0.1096E+04  0.1096E+04
      7.104  0.0000E+00  0.0000E+00  0.1096E+04  0.1096E+04
      7.157  0.0000E+00  0.0000E+00  0.1096E+04  0.1096E+04
