Si and Ge interface calculation         
           1
    16.973400    0.000000    0.000000
     0.000000   16.973400    0.000000
     0.000000    0.000000   17.861000
   Ge   Si
   108   120
Direct configuration=     1
   0.99430549  0.66666657  0.00000000
   0.82763886  0.66666657  0.15838417
   0.66097212  0.66666657  0.31676838
   0.99430549  0.33333328  0.00000000
   0.82763886  0.33333328  0.15838417
   0.66097212  0.33333328  0.31676838
   0.99430549  0.00000000  0.00000000
   0.82763886  0.00000000  0.15838417
   0.66097212  0.00000000  0.31676838
   0.32763880  0.66666657  0.00000000
   0.16097215  0.66666657  0.15838417
   0.99430543  0.66666657  0.31676838
   0.32763880  0.33333328  0.00000000
   0.16097215  0.33333328  0.15838417
   0.99430543  0.33333328  0.31676838
   0.32763880  0.00000000  0.00000000
   0.16097215  0.00000000  0.15838417
   0.99430543  0.00000000  0.31676838
   0.66097212  0.66666657  0.00000000
   0.49430543  0.66666657  0.15838417
   0.32763875  0.66666657  0.31676838
   0.66097212  0.33333328  0.00000000
   0.49430543  0.33333328  0.15838417
   0.32763875  0.33333328  0.31676838
   0.66097212  0.00000000  0.00000000
   0.49430543  0.00000000  0.15838417
   0.32763875  0.00000000  0.31676838
   0.07763884  0.91666657  0.07919210
   0.91097212  0.91666657  0.23757629
   0.74430549  0.91666657  0.39596048
   0.07763884  0.58333331  0.07919210
   0.91097212  0.58333331  0.23757629
   0.74430549  0.58333331  0.39596048
   0.07763884  0.24999995  0.07919210
   0.91097212  0.24999995  0.23757629
   0.74430549  0.24999995  0.39596048
   0.41097209  0.91666657  0.07919210
   0.24430542  0.91666657  0.23757629
   0.07763872  0.91666657  0.39596048
   0.41097209  0.58333331  0.07919210
   0.24430542  0.58333331  0.23757629
   0.07763872  0.58333331  0.39596048
   0.41097209  0.24999995  0.07919210
   0.24430542  0.24999995  0.23757629
   0.07763872  0.24999995  0.39596048
   0.74430549  0.91666657  0.07919210
   0.57763875  0.91666657  0.23757629
   0.41097206  0.91666657  0.39596048
   0.74430549  0.58333331  0.07919210
   0.57763875  0.58333331  0.23757629
   0.41097206  0.58333331  0.39596048
   0.74430549  0.24999995  0.07919210
   0.57763875  0.24999995  0.23757629
   0.41097206  0.24999995  0.39596048
   0.16097216  0.83333319  0.00000000
   0.99430549  0.83333319  0.15838417
   0.82763880  0.83333319  0.31676838
   0.16097216  0.49999991  0.00000000
   0.99430549  0.49999991  0.15838417
   0.82763880  0.49999991  0.31676838
   0.16097216  0.16666664  0.00000000
   0.99430549  0.16666664  0.15838417
   0.82763880  0.16666664  0.31676838
   0.49430543  0.83333319  0.00000000
   0.32763875  0.83333319  0.15838417
   0.16097207  0.83333319  0.31676838
   0.49430543  0.49999991  0.00000000
   0.32763875  0.49999991  0.15838417
   0.16097207  0.49999991  0.31676838
   0.49430543  0.16666664  0.00000000
   0.32763875  0.16666664  0.15838417
   0.16097207  0.16666664  0.31676838
   0.82763880  0.83333319  0.00000000
   0.66097212  0.83333319  0.15838417
   0.49430543  0.83333319  0.31676838
   0.82763880  0.49999991  0.00000000
   0.66097212  0.49999991  0.15838417
   0.49430543  0.49999991  0.31676838
   0.82763880  0.16666664  0.00000000
   0.66097212  0.16666664  0.15838417
   0.49430543  0.16666664  0.31676838
   0.24430546  0.74999988  0.07919210
   0.07763878  0.74999988  0.23757629
   0.91097212  0.74999988  0.39596048
   0.24430546  0.41666663  0.07919210
   0.07763878  0.41666663  0.23757629
   0.91097212  0.41666663  0.39596048
   0.24430546  0.08333333  0.07919210
   0.07763878  0.08333333  0.23757629
   0.91097212  0.08333333  0.39596048
   0.57763886  0.74999988  0.07919210
   0.41097215  0.74999988  0.23757629
   0.24430545  0.74999988  0.39596048
   0.57763886  0.41666663  0.07919210
   0.41097215  0.41666663  0.23757629
   0.24430545  0.41666663  0.39596048
   0.57763886  0.08333333  0.07919210
   0.41097215  0.08333333  0.23757629
   0.24430545  0.08333333  0.39596048
   0.91097218  0.74999988  0.07919210
   0.74430549  0.74999988  0.23757629
   0.57763875  0.74999988  0.39596048
   0.91097218  0.41666663  0.07919210
   0.74430549  0.41666663  0.23757629
   0.57763875  0.41666663  0.39596048
   0.91097218  0.08333333  0.07919210
   0.74430549  0.08333333  0.23757629
   0.57763875  0.08333333  0.39596048
   0.74196649  0.24110293  0.50793630
   0.69196653  0.89110279  0.65997148
   0.64196634  0.54110265  0.81200671
   0.84196651  0.94110292  0.50793630
   0.79196650  0.59110284  0.65997148
   0.74196637  0.24110270  0.81200671
   0.94196653  0.64110285  0.50793630
   0.89196646  0.29110280  0.65997148
   0.84196639  0.94110262  0.81200671
   0.04196656  0.34110284  0.50793630
   0.99196643  0.99110281  0.65997148
   0.94196635  0.64110261  0.81200671
   0.14196658  0.04110289  0.50793630
   0.09196651  0.69110274  0.65997148
   0.04196644  0.34110266  0.81200671
   0.24196649  0.74110287  0.50793630
   0.19196641  0.39110279  0.65997148
   0.14196634  0.04110265  0.81200671
   0.34196651  0.44110283  0.50793630
   0.29196644  0.09110284  0.65997148
   0.24196637  0.74110264  0.81200671
   0.44196665  0.14110303  0.50793630
   0.39196658  0.79110283  0.65997148
   0.34196651  0.44110274  0.81200671
   0.54196656  0.84110290  0.50793630
   0.49196649  0.49110281  0.65997148
   0.44196641  0.14110267  0.81200671
   0.64196658  0.54110289  0.50793630
   0.59196663  0.19110274  0.65997148
   0.54196644  0.84110266  0.81200671
   0.74196649  0.49110287  0.58395392
   0.69196641  0.14110279  0.73598909
   0.64196634  0.79110265  0.88802421
   0.84196651  0.19110274  0.58395392
   0.79196644  0.84110272  0.73598909
   0.74196637  0.49110258  0.88802421
   0.94196653  0.89110285  0.58395392
   0.89196646  0.54110277  0.73598909
   0.84196639  0.19110274  0.88802421
   0.04196656  0.59110284  0.58395392
   0.99196649  0.24110270  0.73598909
   0.94196641  0.89110267  0.88802421
   0.14196658  0.29110283  0.58395392
   0.09196639  0.94110274  0.73598909
   0.04196644  0.59110266  0.88802421
   0.24196661  0.99110287  0.58395392
   0.19196653  0.64110279  0.73598909
   0.14196646  0.29110271  0.88802421
   0.34196651  0.69110274  0.58395392
   0.29196644  0.34110269  0.73598909
   0.24196637  0.99110264  0.88802421
   0.44196665  0.39110285  0.58395392
   0.39196658  0.04110277  0.73598909
   0.34196651  0.69110268  0.88802421
   0.54196668  0.09110284  0.58395392
   0.49196649  0.74110276  0.73598909
   0.44196653  0.39110267  0.88802421
   0.64196658  0.79110283  0.58395392
   0.59196651  0.44110274  0.73598909
   0.54196644  0.09110260  0.88802421
   0.74196649  0.74110287  0.50793630
   0.69196653  0.39110279  0.65997148
   0.64196634  0.04110265  0.81200671
   0.84196651  0.44110286  0.50793630
   0.79196644  0.09110284  0.65997148
   0.74196637  0.74110264  0.81200671
   0.94196653  0.14110279  0.50793630
   0.89196646  0.79110277  0.65997148
   0.84196639  0.44110262  0.81200671
   0.04196656  0.84110284  0.50793630
   0.99196649  0.49110279  0.65997148
   0.94196641  0.14110267  0.81200671
   0.14196658  0.54110289  0.50793630
   0.09196651  0.19110274  0.65997148
   0.04196644  0.84110266  0.81200671
   0.24196649  0.24110281  0.50793630
   0.19196653  0.89110273  0.65997148
   0.14196634  0.54110259  0.81200671
   0.34196651  0.94110286  0.50793630
   0.29196644  0.59110278  0.65997148
   0.24196637  0.24110270  0.81200671
   0.44196653  0.64110279  0.50793630
   0.39196646  0.29110274  0.65997148
   0.34196639  0.94110262  0.81200671
   0.54196656  0.34110284  0.50793630
   0.49196649  0.99110270  0.65997148
   0.44196641  0.64110261  0.81200671
   0.64196658  0.04110289  0.50793630
   0.59196663  0.69110280  0.65997148
   0.54196644  0.34110266  0.81200671
   0.74196649  0.99110293  0.58395392
   0.69196641  0.64110279  0.73598909
   0.64196634  0.29110274  0.88802421
   0.84196651  0.69110286  0.58395392
   0.79196644  0.34110275  0.73598909
   0.74196637  0.99110270  0.88802421
   0.94196653  0.39110285  0.58395392
   0.89196646  0.04110277  0.73598909
   0.84196639  0.69110268  0.88802421
   0.04196656  0.09110284  0.58395392
   0.99196649  0.74110276  0.73598909
   0.94196641  0.39110267  0.88802421
   0.14196658  0.79110295  0.58395392
   0.09196651  0.44110283  0.73598909
   0.04196644  0.09110284  0.88802421
   0.24196649  0.49110281  0.58395392
   0.19196653  0.14110279  0.73598909
   0.14196634  0.79110265  0.88802421
   0.34196663  0.19110286  0.58395392
   0.29196644  0.84110278  0.73598909
   0.24196649  0.49110270  0.88802421
   0.44196653  0.89110291  0.58395392
   0.39196658  0.54110277  0.73598909
   0.34196639  0.19110274  0.88802421
   0.54196644  0.59110284  0.58395392
   0.49196649  0.24110270  0.73598909
   0.44196630  0.89110267  0.88802421
   0.64196658  0.29110283  0.58395392
   0.59196639  0.94110274  0.73598909
   0.54196644  0.59110260  0.88802421
