 168 168   0   0
  0.2759767E+02  0.1131560E-08  0.1600268E-08  0.2560422E-08  0.5000000E-15
  1.000000000000000E-004
  CAR 
 Si and Ge interface calculation         
      6.44073480     -9.87033895  301      3.41905425      1.00000000
     -9.870  0.0000E+00  0.0000E+00  0.0000E+00  0.0000E+00
     -9.816  0.0000E+00  0.0000E+00  0.0000E+00  0.0000E+00
     -9.762  0.0000E+00  0.0000E+00  0.0000E+00  0.0000E+00
     -9.707  0.0000E+00  0.0000E+00  0.0000E+00  0.0000E+00
     -9.653  0.0000E+00  0.0000E+00  0.0000E+00  0.0000E+00
     -9.598  0.0000E+00  0.0000E+00  0.0000E+00  0.0000E+00
     -9.544  0.0000E+00  0.0000E+00  0.0000E+00  0.0000E+00
     -9.490  0.0000E+00  0.0000E+00  0.0000E+00  0.0000E+00
     -9.435  0.0000E+00  0.0000E+00  0.0000E+00  0.0000E+00
     -9.381  0.0000E+00  0.0000E+00  0.0000E+00  0.0000E+00
     -9.327  0.0000E+00  0.0000E+00  0.0000E+00  0.0000E+00
     -9.272  0.0000E+00  0.0000E+00  0.0000E+00  0.0000E+00
     -9.218  0.0000E+00  0.0000E+00  0.0000E+00  0.0000E+00
     -9.164  0.3043E-05  0.2225E-07  0.1655E-06  0.1210E-08
     -9.109  0.6115E+01  0.5956E+01  0.3325E+00  0.3239E+00
     -9.055  0.7194E-01  0.1770E+00  0.3364E+00  0.3335E+00
     -9.000  0.2335E+02  0.2048E+02  0.1606E+01  0.1447E+01
     -8.946  0.1148E+01  0.4041E+01  0.1669E+01  0.1667E+01
     -8.892  0.3061E+02  0.3059E+02  0.3333E+01  0.3330E+01
     -8.837  0.1223E+02  0.1210E+02  0.3998E+01  0.3988E+01
     -8.783  0.1231E+02  0.1243E+02  0.4667E+01  0.4664E+01
     -8.729  0.3676E+02  0.3672E+02  0.6666E+01  0.6660E+01
     -8.674  0.2942E+02  0.2090E+02  0.8265E+01  0.7797E+01
     -8.620  0.4019E+02  0.4394E+02  0.1045E+02  0.1019E+02
     -8.565  0.3241E+02  0.2930E+02  0.1221E+02  0.1178E+02
     -8.511  0.3124E+02  0.3531E+02  0.1391E+02  0.1370E+02
     -8.457  0.1359E+02  0.1698E+02  0.1465E+02  0.1462E+02
     -8.402  0.2426E+02  0.2255E+02  0.1597E+02  0.1585E+02
     -8.348  0.1891E+02  0.2103E+02  0.1700E+02  0.1699E+02
     -8.294  0.2357E+02  0.1865E+02  0.1828E+02  0.1801E+02
     -8.239  0.2743E+02  0.2924E+02  0.1977E+02  0.1960E+02
     -8.185  0.1650E+02  0.1970E+02  0.2067E+02  0.2067E+02
     -8.130  0.3643E+02  0.3503E+02  0.2265E+02  0.2257E+02
     -8.076  0.6476E+01  0.7896E+01  0.2300E+02  0.2300E+02
     -8.022  0.1226E+02  0.1226E+02  0.2367E+02  0.2367E+02
     -7.967  0.1777E-05  0.2496E-02  0.2367E+02  0.2367E+02
     -7.913  0.2981E+02  0.2235E+02  0.2529E+02  0.2488E+02
     -7.859  0.1689E+02  0.2050E+02  0.2621E+02  0.2600E+02
     -7.804  0.4083E+02  0.3880E+02  0.2843E+02  0.2811E+02
     -7.750  0.2225E+02  0.2689E+02  0.2964E+02  0.2957E+02
     -7.696  0.1177E+02  0.1037E+02  0.3028E+02  0.3013E+02
     -7.641  0.5616E+02  0.5825E+02  0.3333E+02  0.3330E+02
     -7.587  0.2294E+02  0.1918E+02  0.3458E+02  0.3434E+02
     -7.532  0.3880E+02  0.3587E+02  0.3669E+02  0.3629E+02
     -7.478  0.3288E+02  0.3717E+02  0.3847E+02  0.3831E+02
     -7.424  0.2182E+02  0.2200E+02  0.3966E+02  0.3951E+02
     -7.369  0.1883E+02  0.2125E+02  0.4068E+02  0.4066E+02
     -7.315  0.1931E+02  0.1549E+02  0.4173E+02  0.4151E+02
     -7.261  0.4746E+02  0.4422E+02  0.4431E+02  0.4391E+02
     -7.206  0.3645E+02  0.3989E+02  0.4630E+02  0.4608E+02
     -7.152  0.4623E+02  0.4145E+02  0.4881E+02  0.4833E+02
     -7.097  0.5096E+02  0.5378E+02  0.5158E+02  0.5126E+02
     -7.043  0.2348E+02  0.2704E+02  0.5286E+02  0.5273E+02
     -6.989  0.7151E+02  0.6695E+02  0.5674E+02  0.5637E+02
     -6.934  0.3572E+02  0.4232E+02  0.5869E+02  0.5867E+02
     -6.880  0.3770E+02  0.3696E+02  0.6074E+02  0.6068E+02
     -6.826  0.4536E+02  0.3781E+02  0.6320E+02  0.6273E+02
     -6.771  0.4534E+02  0.5393E+02  0.6567E+02  0.6567E+02
     -6.717  0.5487E+02  0.5323E+02  0.6865E+02  0.6856E+02
     -6.662  0.3088E+02  0.3207E+02  0.7033E+02  0.7030E+02
     -6.608  0.7000E+02  0.6173E+02  0.7414E+02  0.7366E+02
     -6.554  0.1587E+02  0.2465E+02  0.7500E+02  0.7500E+02
     -6.499  0.8474E+01  0.5016E+01  0.7546E+02  0.7527E+02
     -6.445  0.3281E+02  0.2949E+02  0.7724E+02  0.7688E+02
     -6.391  0.4374E+02  0.4435E+02  0.7962E+02  0.7929E+02
     -6.336  0.4963E+02  0.4759E+02  0.8232E+02  0.8188E+02
     -6.282  0.6893E+02  0.6657E+02  0.8607E+02  0.8549E+02
     -6.228  0.6201E+02  0.6830E+02  0.8944E+02  0.8921E+02
     -6.173  0.7863E+02  0.7941E+02  0.9372E+02  0.9353E+02
     -6.119  0.3691E+02  0.3957E+02  0.9572E+02  0.9568E+02
     -6.064  0.5327E+02  0.4551E+02  0.9862E+02  0.9815E+02
     -6.010  0.1718E+02  0.2362E+02  0.9955E+02  0.9944E+02
     -5.956  0.3651E+02  0.3281E+02  0.1015E+03  0.1012E+03
     -5.901  0.2071E+02  0.2608E+02  0.1027E+03  0.1026E+03
     -5.847  0.3631E+02  0.3022E+02  0.1046E+03  0.1043E+03
     -5.793  0.2511E+02  0.2720E+02  0.1060E+03  0.1058E+03
     -5.738  0.3207E+02  0.3212E+02  0.1077E+03  0.1075E+03
     -5.684  0.6973E+02  0.7032E+02  0.1115E+03  0.1113E+03
     -5.629  0.3070E+02  0.3208E+02  0.1132E+03  0.1131E+03
     -5.575  0.2916E+02  0.2512E+02  0.1148E+03  0.1144E+03
     -5.521  0.3495E+02  0.3874E+02  0.1167E+03  0.1165E+03
     -5.466  0.4735E+02  0.4643E+02  0.1193E+03  0.1191E+03
     -5.412  0.6993E+02  0.7002E+02  0.1231E+03  0.1229E+03
     -5.358  0.4115E+02  0.3877E+02  0.1253E+03  0.1250E+03
     -5.303  0.5567E+02  0.6155E+02  0.1283E+03  0.1283E+03
     -5.249  0.6107E+02  0.5266E+02  0.1317E+03  0.1312E+03
     -5.194  0.7816E+02  0.7697E+02  0.1359E+03  0.1354E+03
     -5.140  0.6880E+02  0.7493E+02  0.1396E+03  0.1395E+03
     -5.086  0.3047E+02  0.3062E+02  0.1413E+03  0.1411E+03
     -5.031  0.5823E+02  0.5770E+02  0.1445E+03  0.1443E+03
     -4.977  0.5224E+02  0.4742E+02  0.1473E+03  0.1468E+03
     -4.923  0.3202E+02  0.3592E+02  0.1490E+03  0.1488E+03
     -4.868  0.6103E+02  0.5459E+02  0.1524E+03  0.1518E+03
     -4.814  0.6372E+02  0.6675E+02  0.1558E+03  0.1554E+03
     -4.760  0.7088E+02  0.7440E+02  0.1597E+03  0.1594E+03
     -4.705  0.4660E+02  0.4659E+02  0.1622E+03  0.1620E+03
     -4.651  0.1843E+02  0.2042E+02  0.1632E+03  0.1631E+03
     -4.596  0.6131E+02  0.5876E+02  0.1666E+03  0.1663E+03
     -4.542  0.6359E+02  0.6496E+02  0.1700E+03  0.1698E+03
     -4.488  0.5479E+02  0.5796E+02  0.1730E+03  0.1730E+03
     -4.433  0.5398E+02  0.5018E+02  0.1759E+03  0.1757E+03
     -4.379  0.3125E+02  0.3206E+02  0.1776E+03  0.1774E+03
     -4.325  0.8058E+02  0.7886E+02  0.1820E+03  0.1817E+03
     -4.270  0.4725E+02  0.4973E+02  0.1846E+03  0.1844E+03
     -4.216  0.3760E+02  0.3358E+02  0.1866E+03  0.1862E+03
     -4.161  0.4572E+02  0.4291E+02  0.1891E+03  0.1886E+03
     -4.107  0.2936E+02  0.3544E+02  0.1907E+03  0.1905E+03
     -4.053  0.5158E+02  0.4824E+02  0.1935E+03  0.1931E+03
     -3.998  0.5741E+02  0.6114E+02  0.1966E+03  0.1964E+03
     -3.944  0.5053E+02  0.4503E+02  0.1994E+03  0.1989E+03
     -3.890  0.6080E+02  0.6633E+02  0.2027E+03  0.2025E+03
     -3.835  0.7382E+02  0.7612E+02  0.2067E+03  0.2066E+03
     -3.781  0.1733E+02  0.1476E+02  0.2076E+03  0.2074E+03
     -3.727  0.5490E+02  0.4783E+02  0.2106E+03  0.2100E+03
     -3.672  0.6889E+02  0.7515E+02  0.2144E+03  0.2141E+03
     -3.618  0.4188E+02  0.4320E+02  0.2166E+03  0.2165E+03
     -3.563  0.8386E+02  0.8018E+02  0.2212E+03  0.2208E+03
     -3.509  0.3305E+02  0.3976E+02  0.2230E+03  0.2230E+03
     -3.455  0.1675E+02  0.1366E+02  0.2239E+03  0.2237E+03
     -3.400  0.6275E+02  0.6503E+02  0.2273E+03  0.2273E+03
     -3.346  0.5506E+02  0.4880E+02  0.2303E+03  0.2299E+03
     -3.292  0.3663E+02  0.4270E+02  0.2323E+03  0.2323E+03
     -3.237  0.3093E+02  0.2740E+02  0.2340E+03  0.2337E+03
     -3.183  0.5959E+02  0.6118E+02  0.2372E+03  0.2371E+03
     -3.128  0.3388E+02  0.3454E+02  0.2391E+03  0.2389E+03
     -3.074  0.3032E+02  0.3180E+02  0.2407E+03  0.2407E+03
     -3.020  0.4105E+02  0.3764E+02  0.2430E+03  0.2427E+03
     -2.965  0.5921E+02  0.5868E+02  0.2462E+03  0.2459E+03
     -2.911  0.8654E+02  0.8403E+02  0.2509E+03  0.2505E+03
     -2.857  0.2700E+02  0.3407E+02  0.2523E+03  0.2523E+03
     -2.802  0.3451E+02  0.2888E+02  0.2542E+03  0.2539E+03
     -2.748  0.4135E+02  0.4297E+02  0.2565E+03  0.2562E+03
     -2.693  0.4197E+02  0.4421E+02  0.2588E+03  0.2586E+03
     -2.639  0.3558E+02  0.3620E+02  0.2607E+03  0.2606E+03
     -2.585  0.7730E+02  0.6782E+02  0.2649E+03  0.2643E+03
     -2.530  0.6753E+02  0.6960E+02  0.2686E+03  0.2681E+03
     -2.476  0.4794E+02  0.5135E+02  0.2712E+03  0.2709E+03
     -2.422  0.2987E+02  0.3060E+02  0.2728E+03  0.2725E+03
     -2.367  0.6377E+02  0.6626E+02  0.2763E+03  0.2761E+03
     -2.313  0.5192E+02  0.5253E+02  0.2791E+03  0.2790E+03
     -2.259  0.2589E+02  0.2327E+02  0.2805E+03  0.2803E+03
     -2.204  0.5774E+02  0.5860E+02  0.2836E+03  0.2835E+03
     -2.150  0.3751E+02  0.4062E+02  0.2857E+03  0.2857E+03
     -2.095  0.1332E+02  0.1269E+02  0.2864E+03  0.2863E+03
     -2.041  0.4772E+02  0.4728E+02  0.2890E+03  0.2889E+03
     -1.987  0.4708E+02  0.4465E+02  0.2915E+03  0.2913E+03
     -1.932  0.7540E+01  0.1017E+02  0.2920E+03  0.2919E+03
     -1.878  0.3150E+02  0.3248E+02  0.2937E+03  0.2937E+03
     -1.824  0.5224E+02  0.4939E+02  0.2965E+03  0.2964E+03
     -1.769  0.3659E+02  0.3765E+02  0.2985E+03  0.2984E+03
     -1.715  0.4568E+02  0.4437E+02  0.3010E+03  0.3008E+03
     -1.660  0.3323E+02  0.3000E+02  0.3028E+03  0.3024E+03
     -1.606  0.3233E+02  0.3580E+02  0.3045E+03  0.3044E+03
     -1.552  0.2852E+02  0.3015E+02  0.3061E+03  0.3060E+03
     -1.497  0.4025E+02  0.4010E+02  0.3083E+03  0.3082E+03
     -1.443  0.2696E+02  0.2363E+02  0.3098E+03  0.3095E+03
     -1.389  0.4098E+02  0.4455E+02  0.3120E+03  0.3119E+03
     -1.334  0.6547E+01  0.7697E+01  0.3123E+03  0.3123E+03
     -1.280  0.1918E+02  0.1833E+02  0.3134E+03  0.3133E+03
     -1.225  0.1146E+02  0.1233E+02  0.3140E+03  0.3140E+03
     -1.171  0.1440E+02  0.7743E+01  0.3148E+03  0.3144E+03
     -1.117  0.2856E+02  0.3518E+02  0.3163E+03  0.3163E+03
     -1.062  0.7572E+01  0.6444E+01  0.3167E+03  0.3167E+03
     -1.008  0.2272E+02  0.2291E+02  0.3180E+03  0.3179E+03
     -0.954  0.1992E+02  0.1717E+02  0.3191E+03  0.3189E+03
     -0.899  0.3810E+02  0.3566E+02  0.3211E+03  0.3208E+03
     -0.845  0.3788E+01  0.9809E+01  0.3213E+03  0.3213E+03
     -0.791  0.1727E+02  0.1367E+02  0.3223E+03  0.3221E+03
     -0.736  0.3318E+02  0.3286E+02  0.3241E+03  0.3239E+03
     -0.682  0.3954E+02  0.3903E+02  0.3262E+03  0.3260E+03
     -0.627  0.3857E+02  0.4315E+02  0.3283E+03  0.3283E+03
     -0.573  0.6065E+02  0.4784E+02  0.3316E+03  0.3309E+03
     -0.519  0.5520E+02  0.5984E+02  0.3346E+03  0.3342E+03
     -0.464  0.6477E+02  0.6185E+02  0.3382E+03  0.3376E+03
     -0.410  0.7923E+02  0.8818E+02  0.3425E+03  0.3423E+03
     -0.356  0.6058E+02  0.5811E+02  0.3458E+03  0.3455E+03
     -0.301  0.8936E+02  0.8897E+02  0.3506E+03  0.3503E+03
     -0.247  0.5498E+02  0.5442E+02  0.3536E+03  0.3533E+03
     -0.192  0.9110E+02  0.9164E+02  0.3586E+03  0.3583E+03
     -0.138  0.5891E+02  0.6158E+02  0.3618E+03  0.3616E+03
     -0.084  0.6566E+02  0.6340E+02  0.3653E+03  0.3651E+03
     -0.029  0.7122E+02  0.6908E+02  0.3692E+03  0.3688E+03
      0.025  0.9213E+02  0.8730E+02  0.3742E+03  0.3736E+03
      0.079  0.5977E+02  0.6918E+02  0.3775E+03  0.3773E+03
      0.134  0.9324E+02  0.8674E+02  0.3825E+03  0.3821E+03
      0.188  0.6371E+02  0.6411E+02  0.3860E+03  0.3855E+03
      0.243  0.9535E+02  0.9213E+02  0.3912E+03  0.3906E+03
      0.297  0.7985E+02  0.8176E+02  0.3955E+03  0.3950E+03
      0.351  0.9680E+02  0.9365E+02  0.4008E+03  0.4001E+03
      0.406  0.1004E+03  0.1027E+03  0.4062E+03  0.4057E+03
      0.460  0.1070E+03  0.1091E+03  0.4121E+03  0.4116E+03
      0.514  0.9235E+02  0.8865E+02  0.4171E+03  0.4164E+03
      0.569  0.1296E+03  0.1288E+03  0.4241E+03  0.4234E+03
      0.623  0.1118E+03  0.1130E+03  0.4302E+03  0.4296E+03
      0.677  0.1271E+03  0.1230E+03  0.4371E+03  0.4363E+03
      0.732  0.1812E+03  0.1837E+03  0.4470E+03  0.4463E+03
      0.786  0.7228E+02  0.7882E+02  0.4509E+03  0.4505E+03
      0.841  0.9723E+02  0.9174E+02  0.4562E+03  0.4555E+03
      0.895  0.1162E+03  0.1128E+03  0.4625E+03  0.4617E+03
      0.949  0.1050E+03  0.1084E+03  0.4682E+03  0.4676E+03
      1.004  0.8973E+02  0.9623E+02  0.4731E+03  0.4728E+03
      1.058  0.7445E+02  0.7562E+02  0.4771E+03  0.4769E+03
      1.112  0.1299E+03  0.1217E+03  0.4842E+03  0.4835E+03
      1.167  0.1018E+03  0.1065E+03  0.4897E+03  0.4893E+03
      1.221  0.1059E+03  0.1009E+03  0.4955E+03  0.4948E+03
      1.276  0.1558E+03  0.1542E+03  0.5040E+03  0.5032E+03
      1.330  0.1140E+03  0.1162E+03  0.5102E+03  0.5095E+03
      1.384  0.9506E+02  0.1023E+03  0.5153E+03  0.5151E+03
      1.439  0.1103E+03  0.1067E+03  0.5213E+03  0.5209E+03
      1.493  0.1183E+03  0.1136E+03  0.5278E+03  0.5270E+03
      1.547  0.1234E+03  0.1240E+03  0.5345E+03  0.5338E+03
      1.602  0.1076E+03  0.1120E+03  0.5403E+03  0.5399E+03
      1.656  0.9464E+02  0.9098E+02  0.5455E+03  0.5448E+03
      1.711  0.1214E+03  0.1201E+03  0.5521E+03  0.5513E+03
      1.765  0.9193E+02  0.9685E+02  0.5571E+03  0.5566E+03
      1.819  0.1358E+03  0.1370E+03  0.5645E+03  0.5641E+03
      1.874  0.1051E+03  0.1046E+03  0.5702E+03  0.5697E+03
      1.928  0.5571E+02  0.5732E+02  0.5732E+03  0.5729E+03
      1.982  0.1220E+03  0.1181E+03  0.5798E+03  0.5793E+03
      2.037  0.8818E+02  0.8434E+02  0.5846E+03  0.5839E+03
      2.091  0.1043E+03  0.1110E+03  0.5903E+03  0.5899E+03
      2.145  0.6667E+02  0.6447E+02  0.5939E+03  0.5934E+03
      2.200  0.9938E+02  0.9649E+02  0.5993E+03  0.5986E+03
      2.254  0.9141E+02  0.9278E+02  0.6043E+03  0.6037E+03
      2.309  0.8339E+02  0.8638E+02  0.6088E+03  0.6084E+03
      2.363  0.6990E+02  0.6730E+02  0.6126E+03  0.6120E+03
      2.417  0.5247E+02  0.6082E+02  0.6155E+03  0.6154E+03
      2.472  0.7245E+02  0.6464E+02  0.6194E+03  0.6189E+03
      2.526  0.8056E+02  0.7685E+02  0.6238E+03  0.6230E+03
      2.580  0.1075E+03  0.1178E+03  0.6296E+03  0.6295E+03
      2.635  0.4794E+02  0.4756E+02  0.6323E+03  0.6320E+03
      2.689  0.5519E+02  0.4656E+02  0.6353E+03  0.6346E+03
      2.744  0.8320E+02  0.8427E+02  0.6398E+03  0.6392E+03
      2.798  0.6346E+02  0.7067E+02  0.6432E+03  0.6430E+03
      2.852  0.5876E+02  0.5738E+02  0.6464E+03  0.6461E+03
      2.907  0.5346E+02  0.5277E+02  0.6493E+03  0.6490E+03
      2.961  0.2829E+02  0.2649E+02  0.6509E+03  0.6504E+03
      3.015  0.6692E+02  0.6801E+02  0.6545E+03  0.6541E+03
      3.070  0.4671E+02  0.4791E+02  0.6570E+03  0.6567E+03
      3.124  0.3853E+02  0.3928E+02  0.6591E+03  0.6589E+03
      3.179  0.2400E+02  0.2078E+02  0.6604E+03  0.6600E+03
      3.233  0.6573E+02  0.6366E+02  0.6640E+03  0.6635E+03
      3.287  0.5377E+02  0.5131E+02  0.6669E+03  0.6662E+03
      3.342  0.3833E+02  0.3876E+02  0.6690E+03  0.6683E+03
      3.396  0.2857E+02  0.3203E+02  0.6706E+03  0.6701E+03
      3.450  0.3374E+02  0.3544E+02  0.6724E+03  0.6720E+03
      3.505  0.2481E+02  0.1795E+02  0.6738E+03  0.6730E+03
      3.559  0.2521E+02  0.2561E+02  0.6751E+03  0.6744E+03
      3.613  0.5333E+02  0.6467E+02  0.6780E+03  0.6779E+03
      3.668  0.4270E+02  0.3156E+02  0.6804E+03  0.6796E+03
      3.722  0.4576E+02  0.4520E+02  0.6828E+03  0.6821E+03
      3.777  0.2928E+01  0.1699E+02  0.6830E+03  0.6830E+03
      3.831  0.1736E+02  0.1047E+02  0.6839E+03  0.6836E+03
      3.885  0.1943E+01  0.8258E+01  0.6840E+03  0.6840E+03
      3.940  0.4189E+02  0.4197E+02  0.6863E+03  0.6863E+03
      3.994  0.1143E+00  0.6069E+00  0.6863E+03  0.6863E+03
      4.048  0.2060E+02  0.1562E+02  0.6875E+03  0.6872E+03
      4.103  0.1706E+02  0.2117E+02  0.6884E+03  0.6883E+03
      4.157  0.3082E+02  0.2345E+02  0.6901E+03  0.6896E+03
      4.212  0.6131E+02  0.5987E+02  0.6934E+03  0.6929E+03
      4.266  0.2843E+02  0.3267E+02  0.6949E+03  0.6946E+03
      4.320  0.7323E+01  0.1274E+02  0.6953E+03  0.6953E+03
      4.375  0.3703E+02  0.2916E+02  0.6973E+03  0.6969E+03
      4.429  0.4397E+02  0.4552E+02  0.6997E+03  0.6994E+03
      4.483  0.5601E+02  0.5021E+02  0.7028E+03  0.7021E+03
      4.538  0.5602E+02  0.6255E+02  0.7058E+03  0.7055E+03
      4.592  0.8378E+02  0.8227E+02  0.7104E+03  0.7100E+03
      4.647  0.9477E+02  0.9976E+02  0.7155E+03  0.7154E+03
      4.701  0.3854E+02  0.3617E+02  0.7176E+03  0.7174E+03
      4.755  0.1037E+03  0.1036E+03  0.7233E+03  0.7230E+03
      4.810  0.8921E+02  0.8716E+02  0.7281E+03  0.7278E+03
      4.864  0.5137E+02  0.5297E+02  0.7309E+03  0.7306E+03
      4.918  0.1016E+03  0.9694E+02  0.7364E+03  0.7359E+03
      4.973  0.9603E+02  0.9309E+02  0.7417E+03  0.7410E+03
      5.027  0.1094E+03  0.1148E+03  0.7476E+03  0.7472E+03
      5.081  0.9391E+02  0.9447E+02  0.7527E+03  0.7523E+03
      5.136  0.1264E+03  0.1250E+03  0.7596E+03  0.7591E+03
      5.190  0.9138E+02  0.8991E+02  0.7646E+03  0.7640E+03
      5.245  0.1096E+03  0.1073E+03  0.7705E+03  0.7699E+03
      5.299  0.9106E+02  0.9713E+02  0.7755E+03  0.7752E+03
      5.353  0.8537E+02  0.8109E+02  0.7801E+03  0.7796E+03
      5.408  0.1097E+03  0.1111E+03  0.7861E+03  0.7856E+03
      5.462  0.1197E+03  0.1170E+03  0.7926E+03  0.7920E+03
      5.516  0.1401E+03  0.1355E+03  0.8002E+03  0.7993E+03
      5.571  0.6575E+02  0.7649E+02  0.8038E+03  0.8035E+03
      5.625  0.2891E+02  0.4011E+02  0.8053E+03  0.8057E+03
      5.680  0.3658E+02  0.4160E+02  0.8073E+03  0.8079E+03
      5.734  0.1223E+02  0.1181E+01  0.8080E+03  0.8080E+03
      5.788  0.0000E+00  0.0000E+00  0.8080E+03  0.8080E+03
      5.843  0.0000E+00  0.0000E+00  0.8080E+03  0.8080E+03
      5.897  0.0000E+00  0.0000E+00  0.8080E+03  0.8080E+03
      5.951  0.0000E+00  0.0000E+00  0.8080E+03  0.8080E+03
      6.006  0.0000E+00  0.0000E+00  0.8080E+03  0.8080E+03
      6.060  0.0000E+00  0.0000E+00  0.8080E+03  0.8080E+03
      6.115  0.0000E+00  0.0000E+00  0.8080E+03  0.8080E+03
      6.169  0.0000E+00  0.0000E+00  0.8080E+03  0.8080E+03
      6.223  0.0000E+00  0.0000E+00  0.8080E+03  0.8080E+03
      6.278  0.0000E+00  0.0000E+00  0.8080E+03  0.8080E+03
      6.332  0.0000E+00  0.0000E+00  0.8080E+03  0.8080E+03
      6.386  0.0000E+00  0.0000E+00  0.8080E+03  0.8080E+03
      6.441  0.0000E+00  0.0000E+00  0.8080E+03  0.8080E+03
