Si and Ge interface calculation         
           1
    11.315600    0.000000    0.000000
     0.000000   16.002676    0.000000
     0.000000    0.000000   25.604216
   Ge   Sn
    96    72
Direct configuration=     1
   0.97066277  0.45599416  0.00000002
   0.72066271  0.08099414  0.07812521
   0.47066277  0.70599413  0.15625042
   0.22066289  0.33099425  0.23437557
   0.97066271  0.95599413  0.31250077
   0.72066271  0.58099413  0.39062604
   0.47066277  0.45599416  0.00000002
   0.22066276  0.08099414  0.07812521
   0.97066277  0.70599413  0.15625042
   0.72066283  0.33099425  0.23437557
   0.47066283  0.95599413  0.31250077
   0.22066277  0.58099413  0.39062604
   0.97066277  0.95599413  0.00000002
   0.72066271  0.58099413  0.07812522
   0.47066277  0.20599413  0.15625040
   0.22066289  0.83099437  0.23437557
   0.97066271  0.45599413  0.31250080
   0.72066271  0.08099413  0.39062601
   0.47066277  0.95599413  0.00000002
   0.22066276  0.58099413  0.07812522
   0.97066277  0.20599413  0.15625040
   0.72066283  0.83099437  0.23437557
   0.47066283  0.45599413  0.31250080
   0.22066277  0.08099413  0.39062601
   0.97066277  0.70599413  0.00000002
   0.72066271  0.33099413  0.07812521
   0.47066277  0.95599413  0.15625040
   0.22066289  0.58099425  0.23437560
   0.97066271  0.20599419  0.31250080
   0.72066271  0.83099413  0.39062604
   0.47066277  0.70599413  0.00000002
   0.22066276  0.33099413  0.07812521
   0.97066277  0.95599413  0.15625040
   0.72066283  0.58099425  0.23437560
   0.47066283  0.20599419  0.31250080
   0.22066277  0.83099413  0.39062604
   0.97066277  0.20599414  0.00000002
   0.72066271  0.83099413  0.07812521
   0.47066277  0.45599413  0.15625040
   0.22066289  0.08099425  0.23437560
   0.97066271  0.70599425  0.31250077
   0.72066271  0.33099413  0.39062601
   0.47066277  0.20599414  0.00000002
   0.22066276  0.83099413  0.07812521
   0.97066277  0.45599413  0.15625040
   0.72066283  0.08099425  0.23437560
   0.47066283  0.70599425  0.31250077
   0.22066277  0.33099413  0.39062601
   0.34566274  0.58099419  0.00000003
   0.09566276  0.20599416  0.07812521
   0.84566277  0.83099413  0.15625040
   0.59566283  0.45599425  0.23437557
   0.34566277  0.08099419  0.31250080
   0.09566271  0.70599413  0.39062604
   0.84566283  0.58099419  0.00000003
   0.59566277  0.20599416  0.07812521
   0.34566280  0.83099413  0.15625040
   0.09566288  0.45599425  0.23437557
   0.84566283  0.08099419  0.31250080
   0.59566277  0.70599413  0.39062604
   0.34566274  0.08099414  0.00000001
   0.09566276  0.70599413  0.07812521
   0.84566277  0.33099413  0.15625040
   0.59566283  0.95599425  0.23437560
   0.34566277  0.58099425  0.31250077
   0.09566271  0.20599401  0.39062601
   0.84566283  0.08099414  0.00000001
   0.59566277  0.70599413  0.07812521
   0.34566280  0.33099413  0.15625040
   0.09566288  0.95599425  0.23437560
   0.84566283  0.58099425  0.31250077
   0.59566277  0.20599401  0.39062601
   0.34566274  0.83099419  0.00000000
   0.09566276  0.45599419  0.07812521
   0.84566277  0.08099417  0.15625040
   0.59566283  0.70599431  0.23437557
   0.34566277  0.33099425  0.31250077
   0.09566271  0.95599413  0.39062598
   0.84566283  0.83099419  0.00000000
   0.59566277  0.45599419  0.07812521
   0.34566280  0.08099417  0.15625040
   0.09566288  0.70599431  0.23437557
   0.84566283  0.33099425  0.31250077
   0.59566277  0.95599413  0.39062598
   0.34566274  0.33099413  0.00000002
   0.09566276  0.95599413  0.07812522
   0.84566277  0.58099413  0.15625040
   0.59566283  0.20599425  0.23437560
   0.34566277  0.83099413  0.31250077
   0.09566271  0.45599413  0.39062601
   0.84566283  0.33099413  0.00000002
   0.59566277  0.95599413  0.07812522
   0.34566280  0.58099413  0.15625040
   0.09566288  0.20599425  0.23437560
   0.84566283  0.83099413  0.31250077
   0.59566277  0.45599413  0.39062601
   0.11607143  0.10602983  0.47129923
   0.11607134  0.35602990  0.56090480
   0.11607134  0.60603005  0.65051037
   0.11607122  0.85603023  0.74011582
   0.11607122  0.10603029  0.82972133
   0.11607122  0.35603040  0.91932684
   0.44940481  0.43936318  0.47129923
   0.44940475  0.68936318  0.56090480
   0.44940475  0.93936336  0.65051037
   0.44940466  0.18936354  0.74011582
   0.44940466  0.43936366  0.82972133
   0.44940460  0.68936378  0.91932684
   0.78273815  0.77269656  0.47129923
   0.78273809  0.02269661  0.56090480
   0.78273821  0.27269679  0.65051037
   0.78273791  0.52269679  0.74011582
   0.78273797  0.77269691  0.82972133
   0.78273797  0.02269721  0.91932684
   0.11607145  0.60602987  0.47129923
   0.11607134  0.85602993  0.56090474
   0.11607134  0.10603005  0.65051037
   0.11607134  0.35603017  0.74011582
   0.11607122  0.60603029  0.82972133
   0.11607122  0.85603040  0.91932684
   0.44940481  0.93936318  0.47129923
   0.44940478  0.18936330  0.56090474
   0.44940481  0.43936354  0.65051037
   0.44940469  0.68936354  0.74011582
   0.44940472  0.93936366  0.82972133
   0.44940454  0.18936390  0.91932684
   0.78273821  0.27269653  0.47129923
   0.78273803  0.52269656  0.56090474
   0.78273809  0.77269673  0.65051037
   0.78273803  0.02269685  0.74011582
   0.78273791  0.27269691  0.82972133
   0.78273797  0.52269703  0.91932684
   0.19940475  0.43936315  0.47129923
   0.19940467  0.68936318  0.56090474
   0.19940472  0.93936336  0.65051037
   0.19940455  0.18936342  0.74011582
   0.19940455  0.43936354  0.82972133
   0.19940457  0.68936366  0.91932684
   0.53273815  0.77269649  0.47129923
   0.53273803  0.02269661  0.56090480
   0.53273809  0.27269679  0.65051037
   0.53273803  0.52269691  0.74011582
   0.53273779  0.77269691  0.82972133
   0.53273791  0.02269709  0.91932684
   0.86607140  0.10602986  0.47129923
   0.86607140  0.35602990  0.56090480
   0.86607134  0.60603005  0.65051037
   0.86607122  0.85603017  0.74011582
   0.86607122  0.10603029  0.82972133
   0.86607122  0.35603040  0.91932684
   0.19940476  0.93936324  0.47129923
   0.19940470  0.18936330  0.56090480
   0.19940466  0.43936342  0.65051031
   0.19940467  0.68936378  0.74011582
   0.19940457  0.93936366  0.82972139
   0.19940451  0.18936390  0.91932684
   0.53273815  0.27269653  0.47129923
   0.53273809  0.52269656  0.56090480
   0.53273797  0.77269673  0.65051037
   0.53273797  0.02269685  0.74011582
   0.53273797  0.27269691  0.82972133
   0.53273785  0.52269703  0.91932684
   0.86607140  0.60602981  0.47129923
   0.86607134  0.85602993  0.56090480
   0.86607140  0.10603005  0.65051037
   0.86607128  0.35603017  0.74011582
   0.86607122  0.60603017  0.82972133
   0.86607117  0.85603040  0.91932684
