Si and Ge interface calculation         
           1
     8.001338    0.000000    0.000000
     4.000669   12.002007    0.000000
     0.000000    0.000000    9.429667
   Ge
    48
Direct configuration=     1
   0.66097212  0.66097212  0.00000000
   0.49430537  0.49430546  0.29999992
   0.32763863  0.32763877  0.59999996
   0.32763880  0.32763880  0.00000000
   0.16097209  0.16097215  0.29999992
   0.99430531  0.99430549  0.59999996
   0.99430549  0.99430549  0.00000000
   0.82763880  0.82763886  0.29999992
   0.66097200  0.66097218  0.59999996
   0.41097209  0.66097206  0.14999996
   0.24430537  0.49430540  0.44999993
   0.07763863  0.32763872  0.74999994
   0.74430549  0.99430549  0.14999996
   0.57763869  0.82763886  0.44999993
   0.41097194  0.66097212  0.74999994
   0.07763884  0.32763884  0.14999996
   0.91097212  0.16097215  0.44999993
   0.74430537  0.99430543  0.74999994
   0.82763875  0.32763884  0.00000000
   0.66097206  0.16097218  0.29999992
   0.49430531  0.99430549  0.59999996
   0.16097221  0.66097212  0.00000000
   0.99430549  0.49430549  0.29999992
   0.82763875  0.32763877  0.59999996
   0.49430543  0.99430549  0.00000000
   0.32763872  0.82763886  0.29999992
   0.16097200  0.66097212  0.59999996
   0.91097230  0.66097206  0.14999996
   0.74430549  0.49430540  0.44999993
   0.57763875  0.32763872  0.74999994
   0.57763880  0.32763884  0.14999996
   0.41097203  0.16097215  0.44999993
   0.24430528  0.99430543  0.74999994
   0.24430548  0.99430549  0.14999996
   0.07763872  0.82763886  0.44999993
   0.91097200  0.66097212  0.74999994
   0.98938477  0.97346187  0.74999994
   0.87827361  0.69568408  0.84999996
   0.76716244  0.41790623  0.94999999
   0.48938474  0.97346187  0.74999994
   0.37827358  0.69568402  0.84999996
   0.26716244  0.41790623  0.94999999
   0.68382913  0.08457294  0.79999989
   0.57271797  0.80679512  0.89999992
   0.46160680  0.52901727  0.99999994
   0.18382916  0.08457294  0.79999989
   0.07271801  0.80679512  0.89999992
   0.96160686  0.52901721  0.99999994
