  24  24   0   0
  0.2846441E+02  0.6489200E-09  0.6489200E-09  0.1622300E-08  0.5000000E-15
  1.000000000000000E-004
  CAR 
 Si and Ge interface calculation         
      8.54515281     -9.03468791  301      5.35766216      1.00000000
     -9.035  0.0000E+00  0.0000E+00  0.0000E+00  0.0000E+00
     -8.976  0.0000E+00  0.0000E+00  0.0000E+00  0.0000E+00
     -8.917  0.0000E+00  0.0000E+00  0.0000E+00  0.0000E+00
     -8.859  0.0000E+00  0.0000E+00  0.0000E+00  0.0000E+00
     -8.800  0.0000E+00  0.0000E+00  0.0000E+00  0.0000E+00
     -8.742  0.0000E+00  0.0000E+00  0.0000E+00  0.0000E+00
     -8.683  0.0000E+00  0.0000E+00  0.0000E+00  0.0000E+00
     -8.624  0.0000E+00  0.0000E+00  0.0000E+00  0.0000E+00
     -8.566  0.0000E+00  0.0000E+00  0.0000E+00  0.0000E+00
     -8.507  0.0000E+00  0.0000E+00  0.0000E+00  0.0000E+00
     -8.449  0.0000E+00  0.0000E+00  0.0000E+00  0.0000E+00
     -8.390  0.0000E+00  0.0000E+00  0.0000E+00  0.0000E+00
     -8.331  0.0000E+00  0.0000E+00  0.0000E+00  0.0000E+00
     -8.273  0.4564E-07  0.0000E+00  0.2674E-08  0.0000E+00
     -8.214  0.2104E+01  0.6474E-02  0.1233E+00  0.3794E-03
     -8.156  0.1017E+01  0.2717E+01  0.1829E+00  0.1596E+00
     -8.097  0.1599E+02  0.8208E+01  0.1120E+01  0.6406E+00
     -8.038  0.5983E-10  0.8181E+01  0.1120E+01  0.1120E+01
     -7.980  0.1053E+02  0.4781E-03  0.1737E+01  0.1120E+01
     -7.921  0.1131E+02  0.2071E+02  0.2400E+01  0.2334E+01
     -7.863  0.1598E+02  0.1397E+01  0.3336E+01  0.2416E+01
     -7.804  0.4027E+00  0.1611E+02  0.3360E+01  0.3360E+01
     -7.745  0.1056E-01  0.1970E-14  0.3361E+01  0.3360E+01
     -7.687  0.1091E+02  0.4532E+01  0.4000E+01  0.3626E+01
     -7.628  0.5501E+01  0.6390E+01  0.4322E+01  0.4000E+01
     -7.570  0.5421E+01  0.1070E+02  0.4640E+01  0.4627E+01
     -7.511  0.2438E-03  0.2109E+00  0.4640E+01  0.4640E+01
     -7.453  0.1091E+02  0.1040E+01  0.5279E+01  0.4701E+01
     -7.394  0.5008E-01  0.9882E+01  0.5282E+01  0.5280E+01
     -7.335  0.5419E+01  0.4001E+01  0.5600E+01  0.5514E+01
     -7.277  0.4017E-14  0.1459E+01  0.5600E+01  0.5600E+01
     -7.218  0.1366E+01  0.1931E-05  0.5680E+01  0.5600E+01
     -7.160  0.4095E+01  0.5009E+01  0.5920E+01  0.5894E+01
     -7.101  0.1078E+02  0.8651E+00  0.6552E+01  0.5944E+01
     -7.042  0.1399E+00  0.1051E+02  0.6560E+01  0.6560E+01
     -6.984  0.1682E-01  0.1561E-13  0.6561E+01  0.6560E+01
     -6.925  0.1090E+02  0.5846E+01  0.7200E+01  0.6903E+01
     -6.867  0.0000E+00  0.5075E+01  0.7200E+01  0.7200E+01
     -6.808  0.0000E+00  0.0000E+00  0.7200E+01  0.7200E+01
     -6.749  0.0000E+00  0.0000E+00  0.7200E+01  0.7200E+01
     -6.691  0.7578E-15  0.0000E+00  0.7200E+01  0.7200E+01
     -6.632  0.2820E+01  0.1832E-05  0.7365E+01  0.7200E+01
     -6.574  0.8102E+01  0.1068E+02  0.7840E+01  0.7826E+01
     -6.515  0.1906E-07  0.2380E+00  0.7840E+01  0.7840E+01
     -6.456  0.1058E+02  0.3226E-01  0.8460E+01  0.7842E+01
     -6.398  0.3402E+00  0.1089E+02  0.8480E+01  0.8480E+01
     -6.339  0.5460E+01  0.4825E+00  0.8800E+01  0.8508E+01
     -6.281  0.0000E+00  0.4978E+01  0.8800E+01  0.8800E+01
     -6.222  0.0000E+00  0.0000E+00  0.8800E+01  0.8800E+01
     -6.163  0.0000E+00  0.0000E+00  0.8800E+01  0.8800E+01
     -6.105  0.0000E+00  0.0000E+00  0.8800E+01  0.8800E+01
     -6.046  0.6152E-10  0.0000E+00  0.8800E+01  0.8800E+01
     -5.988  0.4741E+01  0.2468E-02  0.9078E+01  0.8800E+01
     -5.929  0.7201E+00  0.5458E+01  0.9120E+01  0.9120E+01
     -5.870  0.1092E+02  0.1147E+01  0.9760E+01  0.9187E+01
     -5.812  0.0000E+00  0.9774E+01  0.9760E+01  0.9760E+01
     -5.753  0.3987E-06  0.0000E+00  0.9760E+01  0.9760E+01
     -5.695  0.1090E+02  0.3221E+00  0.1040E+02  0.9779E+01
     -5.636  0.2069E-01  0.1060E+02  0.1040E+02  0.1040E+02
     -5.577  0.0000E+00  0.0000E+00  0.1040E+02  0.1040E+02
     -5.519  0.0000E+00  0.0000E+00  0.1040E+02  0.1040E+02
     -5.460  0.0000E+00  0.0000E+00  0.1040E+02  0.1040E+02
     -5.402  0.0000E+00  0.0000E+00  0.1040E+02  0.1040E+02
     -5.343  0.8725E+00  0.3291E-05  0.1045E+02  0.1040E+02
     -5.284  0.5812E+01  0.2730E+01  0.1079E+02  0.1056E+02
     -5.226  0.4108E+01  0.5467E+01  0.1103E+02  0.1088E+02
     -5.167  0.1293E+00  0.2724E+01  0.1104E+02  0.1104E+02
     -5.109  0.6979E+00  0.4034E+00  0.1108E+02  0.1106E+02
     -5.050  0.1035E+02  0.4171E+01  0.1169E+02  0.1131E+02
     -4.991  0.4648E+01  0.1112E+02  0.1196E+02  0.1196E+02
     -4.933  0.1809E-01  0.4453E-02  0.1196E+02  0.1196E+02
     -4.874  0.1080E+02  0.7299E+01  0.1259E+02  0.1239E+02
     -4.816  0.5279E+01  0.6345E+01  0.1290E+02  0.1276E+02
     -4.757  0.3014E+01  0.5468E+01  0.1308E+02  0.1308E+02
     -4.698  0.4410E+01  0.1276E-01  0.1334E+02  0.1308E+02
     -4.640  0.3793E+01  0.7280E+01  0.1356E+02  0.1351E+02
     -4.581  0.1353E+01  0.2225E+01  0.1364E+02  0.1364E+02
     -4.523  0.2730E+01  0.2217E+01  0.1380E+02  0.1377E+02
     -4.464  0.1978E+01  0.5519E+00  0.1392E+02  0.1380E+02
     -4.405  0.7529E+00  0.2730E+01  0.1396E+02  0.1396E+02
     -4.347  0.5460E+01  0.4890E+01  0.1428E+02  0.1425E+02
     -4.288  0.2723E+01  0.9538E+00  0.1444E+02  0.1430E+02
     -4.230  0.7966E+01  0.3316E+01  0.1491E+02  0.1450E+02
     -4.171  0.4980E+01  0.8600E+01  0.1520E+02  0.1500E+02
     -4.112  0.4252E+01  0.4449E+01  0.1545E+02  0.1526E+02
     -4.054  0.3280E+01  0.6191E+01  0.1564E+02  0.1562E+02
     -3.995  0.1144E+01  0.2728E+00  0.1571E+02  0.1564E+02
     -3.937  0.5683E+01  0.5985E+01  0.1604E+02  0.1599E+02
     -3.878  0.4125E+01  0.3051E+01  0.1628E+02  0.1617E+02
     -3.819  0.1175E+02  0.7156E+01  0.1697E+02  0.1659E+02
     -3.761  0.4387E+01  0.8383E+01  0.1723E+02  0.1708E+02
     -3.702  0.9473E+01  0.4130E+01  0.1778E+02  0.1732E+02
     -3.644  0.6612E+01  0.1190E+02  0.1817E+02  0.1802E+02
     -3.585  0.1263E+02  0.1393E+02  0.1891E+02  0.1884E+02
     -3.526  0.1437E+02  0.1336E+02  0.1975E+02  0.1962E+02
     -3.468  0.6023E+01  0.4750E+01  0.2011E+02  0.1990E+02
     -3.409  0.2154E+01  0.3794E+01  0.2023E+02  0.2012E+02
     -3.351  0.6194E+01  0.5835E+01  0.2059E+02  0.2046E+02
     -3.292  0.1643E+02  0.1342E+02  0.2156E+02  0.2125E+02
     -3.233  0.1938E+01  0.5590E+01  0.2167E+02  0.2158E+02
     -3.175  0.6316E+01  0.6983E+01  0.2204E+02  0.2199E+02
     -3.116  0.9110E+01  0.3725E+01  0.2257E+02  0.2220E+02
     -3.058  0.6382E+01  0.8248E+01  0.2295E+02  0.2269E+02
     -2.999  0.1593E+02  0.1100E+02  0.2388E+02  0.2333E+02
     -2.940  0.5416E+01  0.1481E+02  0.2420E+02  0.2420E+02
     -2.882  0.1002E+01  0.1153E-01  0.2426E+02  0.2420E+02
     -2.823  0.5321E+01  0.3103E+01  0.2457E+02  0.2438E+02
     -2.765  0.1540E+02  0.9686E+01  0.2547E+02  0.2495E+02
     -2.706  0.1354E+02  0.1712E+02  0.2627E+02  0.2595E+02
     -2.647  0.3293E+02  0.1694E+02  0.2820E+02  0.2695E+02
     -2.589  0.1513E+02  0.2705E+02  0.2908E+02  0.2853E+02
     -2.530  0.2674E+01  0.1208E+02  0.2924E+02  0.2924E+02
     -2.472  0.2629E+01  0.5569E-01  0.2939E+02  0.2924E+02
     -2.413  0.1094E+02  0.9667E+01  0.3004E+02  0.2981E+02
     -2.354  0.4169E+01  0.5330E+01  0.3028E+02  0.3012E+02
     -2.296  0.2308E+01  0.2715E+01  0.3041E+02  0.3028E+02
     -2.237  0.8239E+01  0.5740E+01  0.3090E+02  0.3062E+02
     -2.179  0.6939E+01  0.1062E+02  0.3130E+02  0.3124E+02
     -2.120  0.3023E+01  0.2766E+01  0.3148E+02  0.3140E+02
     -2.061  0.1342E+01  0.2203E+01  0.3156E+02  0.3153E+02
     -2.003  0.3516E+01  0.1876E+01  0.3177E+02  0.3164E+02
     -1.944  0.5354E+01  0.4967E+01  0.3208E+02  0.3193E+02
     -1.886  0.6266E+01  0.2576E+01  0.3245E+02  0.3208E+02
     -1.827  0.1941E+01  0.8158E+01  0.3256E+02  0.3256E+02
     -1.768  0.7202E+01  0.1471E+01  0.3298E+02  0.3265E+02
     -1.710  0.7408E+01  0.1121E+02  0.3342E+02  0.3330E+02
     -1.651  0.6525E+01  0.3490E+01  0.3380E+02  0.3351E+02
     -1.593  0.1954E-01  0.4993E+01  0.3380E+02  0.3380E+02
     -1.534  0.8006E+01  0.3396E+01  0.3427E+02  0.3400E+02
     -1.475  0.5640E+01  0.9921E+01  0.3460E+02  0.3458E+02
     -1.417  0.3301E-02  0.3349E+00  0.3460E+02  0.3460E+02
     -1.358  0.3534E+01  0.2531E+01  0.3481E+02  0.3475E+02
     -1.300  0.3247E+01  0.1646E+01  0.3500E+02  0.3484E+02
     -1.241  0.5457E+01  0.3173E+01  0.3532E+02  0.3503E+02
     -1.182  0.6390E+01  0.6349E+01  0.3569E+02  0.3540E+02
     -1.124  0.9517E+00  0.5413E+01  0.3575E+02  0.3572E+02
     -1.065  0.3625E+01  0.4092E+01  0.3596E+02  0.3596E+02
     -1.007  0.4120E+00  0.3716E-02  0.3598E+02  0.3596E+02
     -0.948  0.3626E+01  0.2730E+01  0.3620E+02  0.3612E+02
     -0.889  0.5795E-01  0.1364E+01  0.3620E+02  0.3620E+02
     -0.831  0.4915E+01  0.7456E-01  0.3649E+02  0.3620E+02
     -0.772  0.1946E+02  0.8829E+01  0.3763E+02  0.3672E+02
     -0.714  0.1173E+02  0.1989E+02  0.3832E+02  0.3789E+02
     -0.655  0.1399E+02  0.1395E+02  0.3914E+02  0.3870E+02
     -0.596  0.8602E+01  0.1445E+02  0.3964E+02  0.3955E+02
     -0.538  0.4477E+01  0.4425E+01  0.3990E+02  0.3981E+02
     -0.479  0.1343E+02  0.7273E+01  0.4069E+02  0.4024E+02
     -0.421  0.6887E+01  0.1411E+02  0.4109E+02  0.4106E+02
     -0.362  0.1435E+02  0.7816E+01  0.4193E+02  0.4152E+02
     -0.303  0.1353E+02  0.1200E+02  0.4273E+02  0.4223E+02
     -0.245  0.8187E+01  0.1119E+02  0.4321E+02  0.4288E+02
     -0.186  0.2004E+02  0.1244E+02  0.4438E+02  0.4361E+02
     -0.128  0.1171E+02  0.1416E+02  0.4507E+02  0.4444E+02
     -0.069  0.1324E+02  0.1954E+02  0.4584E+02  0.4559E+02
     -0.010  0.6160E+00  0.4655E+01  0.4588E+02  0.4586E+02
      0.048  0.1856E+01  0.5036E+00  0.4599E+02  0.4589E+02
      0.107  0.2673E+01  0.3964E+01  0.4615E+02  0.4612E+02
      0.165  0.5034E+01  0.5424E+01  0.4644E+02  0.4644E+02
      0.224  0.1139E+02  0.2910E+01  0.4711E+02  0.4661E+02
      0.283  0.6351E+01  0.1071E+02  0.4748E+02  0.4724E+02
      0.341  0.4049E+01  0.4562E+01  0.4772E+02  0.4750E+02
      0.400  0.5995E+01  0.6482E+01  0.4807E+02  0.4788E+02
      0.458  0.9933E+01  0.5405E+01  0.4865E+02  0.4820E+02
      0.517  0.1001E+02  0.1103E+02  0.4924E+02  0.4885E+02
      0.576  0.8267E+01  0.9854E+01  0.4972E+02  0.4942E+02
      0.634  0.9245E+01  0.6626E+01  0.5026E+02  0.4981E+02
      0.693  0.1484E+01  0.7982E+01  0.5035E+02  0.5028E+02
      0.751  0.7301E+00  0.1365E+01  0.5039E+02  0.5036E+02
      0.810  0.1474E+02  0.7244E+01  0.5126E+02  0.5078E+02
      0.869  0.3814E+01  0.1157E+02  0.5148E+02  0.5146E+02
      0.927  0.7260E+01  0.3074E+00  0.5191E+02  0.5148E+02
      0.986  0.5671E+01  0.1088E+02  0.5224E+02  0.5212E+02
      1.044  0.9974E+00  0.2761E+01  0.5230E+02  0.5228E+02
      1.103  0.8189E+01  0.2175E+01  0.5278E+02  0.5241E+02
      1.162  0.5839E+01  0.8169E+01  0.5312E+02  0.5289E+02
      1.220  0.1395E+01  0.4139E+01  0.5320E+02  0.5313E+02
      1.279  0.7778E+01  0.1253E+01  0.5366E+02  0.5320E+02
      1.337  0.1387E+02  0.1371E+02  0.5447E+02  0.5401E+02
      1.396  0.2925E+01  0.1003E+02  0.5464E+02  0.5459E+02
      1.455  0.1092E+02  0.1329E+01  0.5528E+02  0.5467E+02
      1.513  0.6693E+01  0.1115E+02  0.5567E+02  0.5532E+02
      1.572  0.9189E+01  0.1016E+02  0.5621E+02  0.5592E+02
      1.630  0.2291E+01  0.6831E+01  0.5634E+02  0.5632E+02
      1.689  0.1525E+02  0.5785E+01  0.5724E+02  0.5666E+02
      1.748  0.3309E+01  0.9915E+01  0.5743E+02  0.5724E+02
      1.806  0.1170E+01  0.4095E+01  0.5750E+02  0.5748E+02
      1.865  0.4168E+01  0.1367E+01  0.5775E+02  0.5756E+02
      1.923  0.7001E+01  0.8188E+01  0.5816E+02  0.5804E+02
      1.982  0.9403E+00  0.2730E+01  0.5821E+02  0.5820E+02
      2.041  0.2927E+01  0.2714E+01  0.5838E+02  0.5836E+02
      2.099  0.1183E+02  0.6199E+01  0.5908E+02  0.5872E+02
      2.158  0.1493E+02  0.1578E+02  0.5995E+02  0.5965E+02
      2.216  0.7974E+01  0.5454E+01  0.6042E+02  0.5997E+02
      2.275  0.4465E+01  0.8092E+01  0.6068E+02  0.6044E+02
      2.334  0.1417E+02  0.7508E+01  0.6151E+02  0.6088E+02
      2.392  0.9082E+01  0.1654E+02  0.6204E+02  0.6185E+02
      2.451  0.1455E+02  0.1285E+02  0.6289E+02  0.6260E+02
      2.509  0.9980E+01  0.7896E+01  0.6348E+02  0.6307E+02
      2.568  0.6877E+01  0.7154E+01  0.6388E+02  0.6348E+02
      2.627  0.1412E+02  0.1091E+02  0.6471E+02  0.6412E+02
      2.685  0.1054E+02  0.1465E+02  0.6533E+02  0.6498E+02
      2.744  0.2721E+02  0.1769E+02  0.6692E+02  0.6602E+02
      2.802  0.6093E+01  0.2059E+02  0.6728E+02  0.6723E+02
      2.861  0.1415E+02  0.2755E+01  0.6811E+02  0.6739E+02
      2.920  0.1968E+02  0.1796E+02  0.6926E+02  0.6844E+02
      2.978  0.1112E+02  0.2116E+02  0.6991E+02  0.6968E+02
      3.037  0.7173E+01  0.7975E+01  0.7033E+02  0.7015E+02
      3.095  0.2656E+02  0.1659E+02  0.7189E+02  0.7112E+02
      3.154  0.7333E+01  0.1756E+02  0.7232E+02  0.7215E+02
      3.213  0.9634E+01  0.6569E+01  0.7289E+02  0.7253E+02
      3.271  0.2009E+02  0.1101E+02  0.7406E+02  0.7318E+02
      3.330  0.6061E+01  0.1999E+02  0.7442E+02  0.7435E+02
      3.388  0.1374E+02  0.1141E+02  0.7522E+02  0.7502E+02
      3.447  0.1230E+02  0.8664E+01  0.7594E+02  0.7553E+02
      3.506  0.1114E+02  0.1041E+02  0.7660E+02  0.7614E+02
      3.564  0.2260E+02  0.2812E+02  0.7792E+02  0.7778E+02
      3.623  0.2929E+01  0.3758E+01  0.7809E+02  0.7800E+02
      3.681  0.1587E+02  0.4665E+01  0.7902E+02  0.7828E+02
      3.740  0.1000E+02  0.1821E+02  0.7961E+02  0.7934E+02
      3.799  0.1662E+02  0.1485E+02  0.8058E+02  0.8021E+02
      3.857  0.1169E+02  0.1200E+02  0.8127E+02  0.8092E+02
      3.916  0.8064E+01  0.1343E+02  0.8174E+02  0.8170E+02
      3.974  0.1056E+02  0.8151E+01  0.8236E+02  0.8218E+02
      4.033  0.3680E+01  0.3237E+01  0.8257E+02  0.8237E+02
      4.092  0.1596E+02  0.9683E+01  0.8351E+02  0.8294E+02
      4.150  0.1320E+02  0.1620E+02  0.8428E+02  0.8389E+02
      4.209  0.1223E+02  0.9984E+01  0.8500E+02  0.8447E+02
      4.267  0.1020E+02  0.1106E+02  0.8560E+02  0.8512E+02
      4.326  0.4658E+01  0.1009E+02  0.8587E+02  0.8571E+02
      4.385  0.1193E+02  0.1038E+02  0.8657E+02  0.8632E+02
      4.443  0.1008E+02  0.1052E+02  0.8716E+02  0.8694E+02
      4.502  0.1223E+02  0.6716E+01  0.8788E+02  0.8733E+02
      4.560  0.1848E+02  0.9769E+01  0.8896E+02  0.8790E+02
      4.619  0.1349E+02  0.2558E+02  0.8975E+02  0.8940E+02
      4.678  0.9909E+01  0.6770E+01  0.9033E+02  0.8980E+02
      4.736  0.7533E+01  0.1093E+02  0.9077E+02  0.9044E+02
      4.795  0.1145E+02  0.1197E+02  0.9144E+02  0.9114E+02
      4.853  0.1047E+02  0.7677E+01  0.9206E+02  0.9159E+02
      4.912  0.3258E+01  0.1096E+02  0.9225E+02  0.9223E+02
      4.971  0.9452E+01  0.3168E+01  0.9280E+02  0.9242E+02
      5.029  0.1324E+02  0.7368E+01  0.9358E+02  0.9285E+02
      5.088  0.1011E+02  0.1948E+02  0.9417E+02  0.9399E+02
      5.146  0.2028E+01  0.4892E+01  0.9429E+02  0.9428E+02
      5.205  0.1234E+01  0.1311E+01  0.9436E+02  0.9436E+02
      5.264  0.8167E+01  0.5530E+01  0.9484E+02  0.9468E+02
      5.322  0.2727E+01  0.5023E+01  0.9500E+02  0.9497E+02
      5.381  0.7146E+01  0.4446E+00  0.9542E+02  0.9500E+02
      5.439  0.5138E+01  0.7756E+01  0.9572E+02  0.9545E+02
      5.498  0.1053E+01  0.4523E+01  0.9578E+02  0.9572E+02
      5.557  0.1073E+02  0.4973E+01  0.9641E+02  0.9601E+02
      5.615  0.1906E+02  0.8361E+01  0.9753E+02  0.9650E+02
      5.674  0.1080E+02  0.2086E+02  0.9816E+02  0.9772E+02
      5.732  0.2987E+01  0.7474E+01  0.9834E+02  0.9816E+02
      5.791  0.6578E+01  0.6448E+01  0.9872E+02  0.9854E+02
      5.850  0.2755E+01  0.3707E+01  0.9888E+02  0.9876E+02
      5.908  0.1494E+02  0.2947E+01  0.9976E+02  0.9893E+02
      5.967  0.1077E+02  0.2262E+02  0.1004E+03  0.1003E+03
      6.025  0.9029E+01  0.3022E+01  0.1009E+03  0.1004E+03
      6.084  0.4685E+01  0.1069E+02  0.1012E+03  0.1011E+03
      6.143  0.5574E+01  0.2871E+01  0.1015E+03  0.1012E+03
      6.201  0.1142E+02  0.1007E+02  0.1022E+03  0.1018E+03
      6.260  0.2691E+01  0.5554E+01  0.1023E+03  0.1021E+03
      6.318  0.2280E+01  0.4894E+01  0.1025E+03  0.1024E+03
      6.377  0.1467E+02  0.5607E+01  0.1033E+03  0.1028E+03
      6.436  0.2647E+02  0.1683E+02  0.1049E+03  0.1037E+03
      6.494  0.1055E+02  0.2094E+02  0.1055E+03  0.1050E+03
      6.553  0.2306E+01  0.9772E+01  0.1056E+03  0.1055E+03
      6.611  0.6430E+01  0.4339E+01  0.1060E+03  0.1058E+03
      6.670  0.1501E+02  0.1219E+02  0.1069E+03  0.1065E+03
      6.729  0.4558E+01  0.9209E+01  0.1072E+03  0.1071E+03
      6.787  0.2073E+02  0.1663E+02  0.1084E+03  0.1080E+03
      6.846  0.2327E+02  0.1210E+02  0.1097E+03  0.1087E+03
      6.904  0.1275E+02  0.2541E+02  0.1105E+03  0.1102E+03
      6.963  0.2140E+02  0.1249E+02  0.1117E+03  0.1110E+03
      7.022  0.1556E+02  0.1694E+02  0.1127E+03  0.1119E+03
      7.080  0.1845E+02  0.1343E+02  0.1137E+03  0.1127E+03
      7.139  0.1829E+02  0.2293E+02  0.1148E+03  0.1141E+03
      7.197  0.1343E+02  0.2161E+02  0.1156E+03  0.1153E+03
      7.256  0.1756E+02  0.9935E+01  0.1166E+03  0.1159E+03
      7.315  0.1866E+02  0.1788E+02  0.1177E+03  0.1170E+03
      7.373  0.8916E+01  0.1615E+02  0.1182E+03  0.1179E+03
      7.432  0.1712E+02  0.1173E+02  0.1192E+03  0.1186E+03
      7.490  0.8553E+01  0.1424E+02  0.1197E+03  0.1194E+03
      7.549  0.1556E+01  0.6740E+01  0.1198E+03  0.1198E+03
      7.608  0.0000E+00  0.2604E-01  0.1198E+03  0.1198E+03
      7.666  0.1117E-07  0.0000E+00  0.1198E+03  0.1198E+03
      7.725  0.2707E+01  0.5603E-02  0.1200E+03  0.1198E+03
      7.783  0.2387E-01  0.2725E+01  0.1200E+03  0.1200E+03
      7.842  0.0000E+00  0.0000E+00  0.1200E+03  0.1200E+03
      7.901  0.0000E+00  0.0000E+00  0.1200E+03  0.1200E+03
      7.959  0.0000E+00  0.0000E+00  0.1200E+03  0.1200E+03
      8.018  0.0000E+00  0.0000E+00  0.1200E+03  0.1200E+03
      8.076  0.0000E+00  0.0000E+00  0.1200E+03  0.1200E+03
      8.135  0.0000E+00  0.0000E+00  0.1200E+03  0.1200E+03
      8.194  0.0000E+00  0.0000E+00  0.1200E+03  0.1200E+03
      8.252  0.0000E+00  0.0000E+00  0.1200E+03  0.1200E+03
      8.311  0.0000E+00  0.0000E+00  0.1200E+03  0.1200E+03
      8.369  0.0000E+00  0.0000E+00  0.1200E+03  0.1200E+03
      8.428  0.0000E+00  0.0000E+00  0.1200E+03  0.1200E+03
      8.487  0.0000E+00  0.0000E+00  0.1200E+03  0.1200E+03
      8.545  0.0000E+00  0.0000E+00  0.1200E+03  0.1200E+03
