       N       E                     dE             d eps       ncg     rms          rms(c)
DAV:   1     0.755247656838E+03    0.75525E+03   -0.39218E+04  4320   0.159E+03
DAV:   2     0.184565619751E+03   -0.57068E+03   -0.55096E+03  5228   0.183E+02
DAV:   3     0.123445808034E+03   -0.61120E+02   -0.58656E+02  5576   0.619E+01
DAV:   4     0.121149517968E+03   -0.22963E+01   -0.22435E+01  5440   0.118E+01
DAV:   5     0.121072661330E+03   -0.76857E-01   -0.76297E-01  5616   0.205E+00    0.248E+01
DAV:   6     0.133593444817E+03    0.12521E+02   -0.39997E+00  5004   0.641E+00    0.112E+01
DAV:   7     0.136620723826E+03    0.30273E+01   -0.21091E+00  5408   0.474E+00    0.108E+00
DAV:   8     0.136648591715E+03    0.27868E-01   -0.18024E-01  5104   0.131E+00    0.630E-01
DAV:   9     0.136644271379E+03   -0.43203E-02   -0.28246E-02  5232   0.491E-01    0.301E-01
DAV:  10     0.136644247993E+03   -0.23386E-04   -0.39685E-03  5404   0.224E-01    0.101E-01
DAV:  11     0.136644042094E+03   -0.20590E-03   -0.19944E-03  5192   0.136E-01    0.556E-02
DAV:  12     0.136643959513E+03   -0.82581E-04   -0.36549E-04  5072   0.709E-02    0.252E-02
DAV:  13     0.136643957515E+03   -0.19974E-05   -0.55532E-05  5536   0.227E-02    0.123E-02
DAV:  14     0.136643957858E+03    0.34214E-06   -0.97463E-06  5100   0.122E-02    0.703E-03
DAV:  15     0.136643956811E+03   -0.10468E-05   -0.22162E-06  5016   0.647E-03    0.188E-03
DAV:  16     0.136643956915E+03    0.10418E-06   -0.47659E-07  4524   0.289E-03    0.787E-04
DAV:  17     0.136643956998E+03    0.83492E-07   -0.14367E-07  3360   0.179E-03
   1 F= 0.13664396E+03 E0= 0.13664422E+03  d E =-.521578E-03  mag=     1.0000
