Si and Ge interface calculation         
           1
     6.489200    0.000000    0.000000
     0.000000    6.489200    0.000000
     0.000000    0.000000   16.223000
   Sn
    24
Direct configuration=     1
   0.01489471  0.00000000  0.00000000
   0.51489466  0.00000000  0.20000000
   0.01489448  0.00000000  0.39999992
   0.26489469  0.74999994  0.09999999
   0.76489454  0.74999994  0.29999998
   0.26489461  0.74999994  0.50000000
   0.51489466  0.49999997  0.00000000
   0.01489472  0.49999997  0.20000000
   0.51489448  0.49999997  0.39999992
   0.76489466  0.24999999  0.09999999
   0.26489448  0.24999999  0.29999998
   0.76489448  0.24999999  0.50000000
   0.01489471  0.00000000  0.50000000
   0.51489466  0.00000000  0.70000005
   0.01489448  0.00000000  0.89999998
   0.26489469  0.74999994  0.59999996
   0.76489454  0.74999994  0.80000001
   0.26489461  0.74999994  0.00000000
   0.51489466  0.49999997  0.50000000
   0.01489472  0.49999997  0.70000005
   0.51489448  0.49999997  0.89999998
   0.76489466  0.24999999  0.59999996
   0.26489448  0.24999999  0.80000001
   0.76489448  0.24999999  0.00000000
