 180 180   0   0
  0.2656311E+02  0.1385872E-08  0.1959920E-08  0.1760313E-08  0.5000000E-15
  1.000000000000000E-004
  CAR 
 Si and Ge interface calculation         
      5.90798417    -10.23496001  301      2.95684359      1.00000000
    -10.235  0.0000E+00  0.0000E+00  0.0000E+00  0.0000E+00
    -10.181  0.0000E+00  0.0000E+00  0.0000E+00  0.0000E+00
    -10.127  0.0000E+00  0.0000E+00  0.0000E+00  0.0000E+00
    -10.074  0.0000E+00  0.0000E+00  0.0000E+00  0.0000E+00
    -10.020  0.0000E+00  0.0000E+00  0.0000E+00  0.0000E+00
     -9.966  0.0000E+00  0.0000E+00  0.0000E+00  0.0000E+00
     -9.912  0.0000E+00  0.0000E+00  0.0000E+00  0.0000E+00
     -9.858  0.0000E+00  0.0000E+00  0.0000E+00  0.0000E+00
     -9.804  0.0000E+00  0.0000E+00  0.0000E+00  0.0000E+00
     -9.751  0.0000E+00  0.0000E+00  0.0000E+00  0.0000E+00
     -9.697  0.0000E+00  0.0000E+00  0.0000E+00  0.0000E+00
     -9.643  0.0000E+00  0.0000E+00  0.0000E+00  0.0000E+00
     -9.589  0.0000E+00  0.0000E+00  0.0000E+00  0.0000E+00
     -9.535  0.3619E-05  0.3586E-06  0.1947E-06  0.1930E-07
     -9.482  0.9248E+01  0.9149E+01  0.4976E+00  0.4923E+00
     -9.428  0.1475E+01  0.7314E+00  0.5770E+00  0.5317E+00
     -9.374  0.1715E+02  0.1800E+02  0.1500E+01  0.1500E+01
     -9.320  0.1844E+02  0.1816E+02  0.2492E+01  0.2477E+01
     -9.266  0.1308E+02  0.1155E+02  0.3196E+01  0.3099E+01
     -9.213  0.2478E+02  0.2619E+02  0.4530E+01  0.4508E+01
     -9.159  0.9112E+01  0.9286E+01  0.5020E+01  0.5008E+01
     -9.105  0.8918E+01  0.9152E+01  0.5500E+01  0.5500E+01
     -9.051  0.1842E+02  0.1429E+02  0.6491E+01  0.6269E+01
     -8.997  0.2653E+02  0.2795E+02  0.7919E+01  0.7773E+01
     -8.944  0.2490E+02  0.2599E+02  0.9258E+01  0.9172E+01
     -8.890  0.4148E+02  0.4278E+02  0.1149E+02  0.1147E+02
     -8.836  0.1266E+02  0.1127E+02  0.1217E+02  0.1208E+02
     -8.782  0.4940E+02  0.4604E+02  0.1483E+02  0.1456E+02
     -8.728  0.5112E+02  0.5223E+02  0.1758E+02  0.1737E+02
     -8.674  0.8339E+01  0.1191E+02  0.1803E+02  0.1801E+02
     -8.621  0.2755E+02  0.2692E+02  0.1951E+02  0.1946E+02
     -8.567  0.5549E+02  0.5639E+02  0.2250E+02  0.2249E+02
     -8.513  0.9523E+01  0.5174E+01  0.2301E+02  0.2277E+02
     -8.459  0.6160E+02  0.6315E+02  0.2632E+02  0.2617E+02
     -8.405  0.3807E+02  0.3744E+02  0.2837E+02  0.2818E+02
     -8.352  0.6800E+01  0.9928E+01  0.2874E+02  0.2872E+02
     -8.298  0.3352E+02  0.2808E+02  0.3054E+02  0.3023E+02
     -8.244  0.5677E+02  0.6080E+02  0.3360E+02  0.3350E+02
     -8.190  0.2008E+02  0.2035E+02  0.3468E+02  0.3459E+02
     -8.136  0.2257E+02  0.2173E+02  0.3589E+02  0.3576E+02
     -8.083  0.6870E+02  0.6523E+02  0.3959E+02  0.3927E+02
     -8.029  0.7064E+02  0.7425E+02  0.4339E+02  0.4327E+02
     -7.975  0.4680E+02  0.4674E+02  0.4591E+02  0.4578E+02
     -7.921  0.6364E+02  0.6179E+02  0.4933E+02  0.4911E+02
     -7.867  0.3561E+02  0.3692E+02  0.5125E+02  0.5110E+02
     -7.814  0.2162E+02  0.2281E+02  0.5241E+02  0.5232E+02
     -7.760  0.4131E+02  0.4131E+02  0.5464E+02  0.5455E+02
     -7.706  0.6306E+02  0.5982E+02  0.5803E+02  0.5777E+02
     -7.652  0.5573E+02  0.5973E+02  0.6103E+02  0.6098E+02
     -7.598  0.4977E+02  0.4624E+02  0.6371E+02  0.6347E+02
     -7.544  0.6406E+02  0.6437E+02  0.6715E+02  0.6693E+02
     -7.491  0.7160E+02  0.7016E+02  0.7101E+02  0.7071E+02
     -7.437  0.1082E+03  0.1035E+03  0.7683E+02  0.7628E+02
     -7.383  0.3134E+02  0.3882E+02  0.7852E+02  0.7837E+02
     -7.329  0.6499E+02  0.6336E+02  0.8201E+02  0.8178E+02
     -7.275  0.4780E+02  0.4757E+02  0.8459E+02  0.8434E+02
     -7.222  0.8041E+02  0.8065E+02  0.8891E+02  0.8868E+02
     -7.168  0.6656E+02  0.6299E+02  0.9250E+02  0.9207E+02
     -7.114  0.4667E+02  0.5184E+02  0.9501E+02  0.9486E+02
     -7.060  0.3306E+02  0.3365E+02  0.9679E+02  0.9667E+02
     -7.006  0.6427E+02  0.6071E+02  0.1002E+03  0.9993E+02
     -6.953  0.5282E+02  0.5447E+02  0.1031E+03  0.1029E+03
     -6.899  0.4000E+02  0.3880E+02  0.1052E+03  0.1050E+03
     -6.845  0.3938E+02  0.4212E+02  0.1074E+03  0.1072E+03
     -6.791  0.7026E+02  0.6821E+02  0.1111E+03  0.1109E+03
     -6.737  0.4252E+02  0.4585E+02  0.1134E+03  0.1134E+03
     -6.684  0.5644E+02  0.5549E+02  0.1165E+03  0.1163E+03
     -6.630  0.5529E+02  0.5554E+02  0.1194E+03  0.1193E+03
     -6.576  0.5629E+02  0.5347E+02  0.1225E+03  0.1222E+03
     -6.522  0.5048E+02  0.5361E+02  0.1252E+03  0.1251E+03
     -6.468  0.5167E+02  0.5053E+02  0.1280E+03  0.1278E+03
     -6.414  0.3562E+02  0.3502E+02  0.1299E+03  0.1297E+03
     -6.361  0.3099E+02  0.3326E+02  0.1315E+03  0.1315E+03
     -6.307  0.2918E+02  0.2800E+02  0.1331E+03  0.1330E+03
     -6.253  0.4560E+02  0.4222E+02  0.1356E+03  0.1353E+03
     -6.199  0.6560E+02  0.6293E+02  0.1391E+03  0.1386E+03
     -6.145  0.4092E+02  0.4579E+02  0.1413E+03  0.1411E+03
     -6.092  0.6561E+02  0.6406E+02  0.1448E+03  0.1446E+03
     -6.038  0.4118E+02  0.4022E+02  0.1470E+03  0.1467E+03
     -5.984  0.5831E+02  0.6248E+02  0.1502E+03  0.1501E+03
     -5.930  0.2954E+02  0.2835E+02  0.1518E+03  0.1516E+03
     -5.876  0.2453E+02  0.2629E+02  0.1531E+03  0.1530E+03
     -5.823  0.1435E+02  0.1409E+02  0.1539E+03  0.1538E+03
     -5.769  0.5493E+02  0.5283E+02  0.1568E+03  0.1566E+03
     -5.715  0.4300E+02  0.4251E+02  0.1591E+03  0.1589E+03
     -5.661  0.1603E+02  0.1949E+02  0.1600E+03  0.1600E+03
     -5.607  0.4386E+02  0.4155E+02  0.1624E+03  0.1622E+03
     -5.554  0.2550E+02  0.1914E+02  0.1637E+03  0.1632E+03
     -5.500  0.4909E+02  0.5682E+02  0.1664E+03  0.1663E+03
     -5.446  0.1128E+02  0.1197E+02  0.1670E+03  0.1669E+03
     -5.392  0.2428E+02  0.2345E+02  0.1683E+03  0.1682E+03
     -5.338  0.4463E+02  0.4394E+02  0.1707E+03  0.1706E+03
     -5.284  0.4669E+02  0.4743E+02  0.1732E+03  0.1731E+03
     -5.231  0.5258E+02  0.4817E+02  0.1760E+03  0.1757E+03
     -5.177  0.7113E+02  0.6945E+02  0.1799E+03  0.1794E+03
     -5.123  0.4235E+02  0.4636E+02  0.1821E+03  0.1819E+03
     -5.069  0.3686E+02  0.3862E+02  0.1841E+03  0.1840E+03
     -5.015  0.1884E+02  0.1923E+02  0.1851E+03  0.1850E+03
     -4.962  0.3577E+02  0.3660E+02  0.1871E+03  0.1870E+03
     -4.908  0.4563E+02  0.4193E+02  0.1895E+03  0.1893E+03
     -4.854  0.5656E+02  0.6016E+02  0.1926E+03  0.1925E+03
     -4.800  0.5595E+02  0.5264E+02  0.1956E+03  0.1953E+03
     -4.746  0.5705E+02  0.5786E+02  0.1986E+03  0.1985E+03
     -4.693  0.4076E+02  0.3973E+02  0.2008E+03  0.2006E+03
     -4.639  0.4672E+02  0.4619E+02  0.2033E+03  0.2031E+03
     -4.585  0.6290E+02  0.6449E+02  0.2067E+03  0.2065E+03
     -4.531  0.7869E+02  0.7663E+02  0.2110E+03  0.2107E+03
     -4.477  0.6978E+02  0.6894E+02  0.2147E+03  0.2144E+03
     -4.424  0.9007E+02  0.8928E+02  0.2196E+03  0.2192E+03
     -4.370  0.6909E+02  0.6934E+02  0.2233E+03  0.2229E+03
     -4.316  0.7144E+02  0.7432E+02  0.2271E+03  0.2269E+03
     -4.262  0.6788E+02  0.6745E+02  0.2308E+03  0.2305E+03
     -4.208  0.5362E+02  0.5198E+02  0.2337E+03  0.2333E+03
     -4.154  0.8275E+02  0.8214E+02  0.2381E+03  0.2378E+03
     -4.101  0.7884E+02  0.7731E+02  0.2424E+03  0.2419E+03
     -4.047  0.9402E+02  0.9594E+02  0.2474E+03  0.2471E+03
     -3.993  0.9653E+02  0.9539E+02  0.2526E+03  0.2522E+03
     -3.939  0.6656E+02  0.7119E+02  0.2562E+03  0.2560E+03
     -3.885  0.4746E+02  0.4607E+02  0.2588E+03  0.2585E+03
     -3.832  0.3642E+02  0.3864E+02  0.2607E+03  0.2606E+03
     -3.778  0.5553E+02  0.5428E+02  0.2637E+03  0.2635E+03
     -3.724  0.3391E+02  0.3472E+02  0.2655E+03  0.2654E+03
     -3.670  0.4133E+02  0.3810E+02  0.2677E+03  0.2674E+03
     -3.616  0.2844E+02  0.3360E+02  0.2693E+03  0.2693E+03
     -3.563  0.4076E+02  0.3813E+02  0.2715E+03  0.2713E+03
     -3.509  0.3813E+02  0.4046E+02  0.2735E+03  0.2735E+03
     -3.455  0.3608E+02  0.3432E+02  0.2755E+03  0.2753E+03
     -3.401  0.5672E+02  0.5375E+02  0.2785E+03  0.2782E+03
     -3.347  0.3451E+02  0.3566E+02  0.2804E+03  0.2801E+03
     -3.293  0.4709E+02  0.4532E+02  0.2829E+03  0.2826E+03
     -3.240  0.5357E+02  0.5589E+02  0.2858E+03  0.2856E+03
     -3.186  0.4149E+02  0.3947E+02  0.2880E+03  0.2877E+03
     -3.132  0.3779E+02  0.4168E+02  0.2901E+03  0.2900E+03
     -3.078  0.5330E+02  0.4860E+02  0.2929E+03  0.2926E+03
     -3.024  0.5031E+02  0.5321E+02  0.2956E+03  0.2954E+03
     -2.971  0.5763E+02  0.5924E+02  0.2987E+03  0.2986E+03
     -2.917  0.2116E+02  0.1957E+02  0.2999E+03  0.2997E+03
     -2.863  0.3326E+02  0.3259E+02  0.3017E+03  0.3014E+03
     -2.809  0.2223E+02  0.2128E+02  0.3029E+03  0.3026E+03
     -2.755  0.2242E+02  0.2544E+02  0.3041E+03  0.3039E+03
     -2.702  0.3625E+02  0.3795E+02  0.3060E+03  0.3060E+03
     -2.648  0.4000E+02  0.3491E+02  0.3082E+03  0.3079E+03
     -2.594  0.4630E+02  0.4516E+02  0.3107E+03  0.3103E+03
     -2.540  0.2786E+02  0.3209E+02  0.3122E+03  0.3120E+03
     -2.486  0.2561E+02  0.2359E+02  0.3135E+03  0.3133E+03
     -2.433  0.2574E+02  0.2702E+02  0.3149E+03  0.3147E+03
     -2.379  0.2778E+02  0.2922E+02  0.3164E+03  0.3163E+03
     -2.325  0.4294E+02  0.3846E+02  0.3187E+03  0.3184E+03
     -2.271  0.3415E+02  0.3738E+02  0.3206E+03  0.3204E+03
     -2.217  0.3513E+02  0.3695E+02  0.3225E+03  0.3224E+03
     -2.163  0.1997E+02  0.1832E+02  0.3235E+03  0.3234E+03
     -2.110  0.1493E+02  0.1658E+02  0.3243E+03  0.3243E+03
     -2.056  0.4103E+02  0.4120E+02  0.3265E+03  0.3265E+03
     -2.002  0.1342E+02  0.1432E+02  0.3273E+03  0.3272E+03
     -1.948  0.1458E+02  0.1170E+02  0.3280E+03  0.3279E+03
     -1.894  0.1461E+02  0.1503E+02  0.3288E+03  0.3287E+03
     -1.841  0.4476E+02  0.4695E+02  0.3312E+03  0.3312E+03
     -1.787  0.1665E+02  0.1593E+02  0.3321E+03  0.3321E+03
     -1.733  0.3272E+02  0.3037E+02  0.3339E+03  0.3337E+03
     -1.679  0.5305E+02  0.5280E+02  0.3368E+03  0.3365E+03
     -1.625  0.2355E+02  0.2413E+02  0.3380E+03  0.3378E+03
     -1.572  0.3200E+02  0.3320E+02  0.3397E+03  0.3396E+03
     -1.518  0.2448E+02  0.2532E+02  0.3411E+03  0.3410E+03
     -1.464  0.1312E+02  0.1407E+02  0.3418E+03  0.3418E+03
     -1.410  0.1398E+02  0.1336E+02  0.3425E+03  0.3425E+03
     -1.356  0.2433E+02  0.2388E+02  0.3438E+03  0.3438E+03
     -1.303  0.2710E+02  0.2611E+02  0.3453E+03  0.3452E+03
     -1.249  0.2767E+02  0.2757E+02  0.3468E+03  0.3466E+03
     -1.195  0.1334E+02  0.1503E+02  0.3475E+03  0.3475E+03
     -1.141  0.1757E+02  0.1155E+02  0.3484E+03  0.3481E+03
     -1.087  0.3982E+02  0.4472E+02  0.3506E+03  0.3505E+03
     -1.033  0.7021E+02  0.6411E+02  0.3544E+03  0.3539E+03
     -0.980  0.8286E+02  0.8722E+02  0.3588E+03  0.3586E+03
     -0.926  0.9973E+02  0.9741E+02  0.3642E+03  0.3639E+03
     -0.872  0.7288E+02  0.7242E+02  0.3681E+03  0.3678E+03
     -0.818  0.8586E+02  0.8491E+02  0.3727E+03  0.3723E+03
     -0.764  0.1032E+03  0.1048E+03  0.3783E+03  0.3780E+03
     -0.711  0.6373E+02  0.6347E+02  0.3817E+03  0.3814E+03
     -0.657  0.9913E+02  0.9884E+02  0.3870E+03  0.3867E+03
     -0.603  0.1117E+03  0.1094E+03  0.3930E+03  0.3926E+03
     -0.549  0.1199E+03  0.1187E+03  0.3995E+03  0.3990E+03
     -0.495  0.8478E+02  0.8371E+02  0.4041E+03  0.4035E+03
     -0.442  0.1059E+03  0.1081E+03  0.4098E+03  0.4093E+03
     -0.388  0.7547E+02  0.7666E+02  0.4138E+03  0.4134E+03
     -0.334  0.7550E+02  0.7612E+02  0.4179E+03  0.4175E+03
     -0.280  0.8931E+02  0.9099E+02  0.4227E+03  0.4224E+03
     -0.226  0.6026E+02  0.6102E+02  0.4259E+03  0.4257E+03
     -0.173  0.7621E+02  0.7280E+02  0.4300E+03  0.4296E+03
     -0.119  0.7680E+02  0.7708E+02  0.4342E+03  0.4338E+03
     -0.065  0.1188E+03  0.1152E+03  0.4406E+03  0.4400E+03
     -0.011  0.1217E+03  0.1257E+03  0.4471E+03  0.4467E+03
      0.043  0.1349E+03  0.1321E+03  0.4544E+03  0.4538E+03
      0.097  0.1152E+03  0.1132E+03  0.4606E+03  0.4599E+03
      0.150  0.1093E+03  0.1114E+03  0.4664E+03  0.4659E+03
      0.204  0.1285E+03  0.1282E+03  0.4734E+03  0.4728E+03
      0.258  0.9888E+02  0.1027E+03  0.4787E+03  0.4783E+03
      0.312  0.1458E+03  0.1372E+03  0.4865E+03  0.4857E+03
      0.366  0.1188E+03  0.1216E+03  0.4929E+03  0.4923E+03
      0.419  0.1069E+03  0.1080E+03  0.4987E+03  0.4981E+03
      0.473  0.1101E+03  0.1118E+03  0.5046E+03  0.5041E+03
      0.527  0.1205E+03  0.1184E+03  0.5111E+03  0.5105E+03
      0.581  0.1383E+03  0.1365E+03  0.5185E+03  0.5178E+03
      0.635  0.1119E+03  0.1131E+03  0.5245E+03  0.5239E+03
      0.688  0.9236E+02  0.9654E+02  0.5295E+03  0.5291E+03
      0.742  0.1119E+03  0.1106E+03  0.5355E+03  0.5350E+03
      0.796  0.1142E+03  0.1127E+03  0.5417E+03  0.5411E+03
      0.850  0.1075E+03  0.1093E+03  0.5475E+03  0.5470E+03
      0.904  0.1087E+03  0.1073E+03  0.5533E+03  0.5528E+03
      0.957  0.1022E+03  0.1028E+03  0.5588E+03  0.5583E+03
      1.011  0.1183E+03  0.1205E+03  0.5652E+03  0.5648E+03
      1.065  0.1192E+03  0.1161E+03  0.5716E+03  0.5710E+03
      1.119  0.8268E+02  0.8761E+02  0.5760E+03  0.5757E+03
      1.173  0.1251E+03  0.1204E+03  0.5828E+03  0.5822E+03
      1.227  0.8404E+02  0.8430E+02  0.5873E+03  0.5868E+03
      1.280  0.9788E+02  0.1023E+03  0.5926E+03  0.5923E+03
      1.334  0.9328E+02  0.8927E+02  0.5976E+03  0.5971E+03
      1.388  0.8934E+02  0.9310E+02  0.6024E+03  0.6021E+03
      1.442  0.8789E+02  0.8746E+02  0.6071E+03  0.6068E+03
      1.496  0.1070E+03  0.1070E+03  0.6129E+03  0.6125E+03
      1.549  0.9965E+02  0.9674E+02  0.6182E+03  0.6177E+03
      1.603  0.6898E+02  0.7445E+02  0.6219E+03  0.6217E+03
      1.657  0.7642E+02  0.7219E+02  0.6261E+03  0.6256E+03
      1.711  0.1048E+03  0.1033E+03  0.6317E+03  0.6312E+03
      1.765  0.8985E+02  0.8956E+02  0.6365E+03  0.6360E+03
      1.818  0.6010E+02  0.6491E+02  0.6398E+03  0.6395E+03
      1.872  0.7977E+02  0.8225E+02  0.6441E+03  0.6439E+03
      1.926  0.7219E+02  0.6806E+02  0.6479E+03  0.6476E+03
      1.980  0.9537E+02  0.9133E+02  0.6531E+03  0.6525E+03
      2.034  0.5879E+02  0.5913E+02  0.6562E+03  0.6557E+03
      2.087  0.7785E+02  0.8074E+02  0.6604E+03  0.6600E+03
      2.141  0.6309E+02  0.6216E+02  0.6638E+03  0.6634E+03
      2.195  0.9329E+02  0.9252E+02  0.6688E+03  0.6684E+03
      2.249  0.7411E+02  0.6974E+02  0.6728E+03  0.6721E+03
      2.303  0.5384E+02  0.6050E+02  0.6757E+03  0.6754E+03
      2.357  0.7962E+02  0.7591E+02  0.6800E+03  0.6794E+03
      2.410  0.7714E+02  0.7580E+02  0.6842E+03  0.6835E+03
      2.464  0.3965E+02  0.3892E+02  0.6863E+03  0.6856E+03
      2.518  0.7237E+02  0.7249E+02  0.6902E+03  0.6895E+03
      2.572  0.7360E+02  0.7850E+02  0.6942E+03  0.6937E+03
      2.626  0.6085E+02  0.6037E+02  0.6974E+03  0.6970E+03
      2.679  0.5834E+02  0.5592E+02  0.7006E+03  0.7000E+03
      2.733  0.7548E+02  0.6885E+02  0.7046E+03  0.7037E+03
      2.787  0.7266E+02  0.7538E+02  0.7085E+03  0.7078E+03
      2.841  0.7219E+02  0.7024E+02  0.7124E+03  0.7115E+03
      2.895  0.6928E+02  0.7442E+02  0.7161E+03  0.7155E+03
      2.948  0.6221E+02  0.5554E+02  0.7195E+03  0.7185E+03
      3.002  0.5531E+02  0.6502E+02  0.7225E+03  0.7220E+03
      3.056  0.5628E+02  0.5119E+02  0.7255E+03  0.7248E+03
      3.110  0.4582E+02  0.4302E+02  0.7280E+03  0.7271E+03
      3.164  0.6058E+02  0.5762E+02  0.7312E+03  0.7302E+03
      3.217  0.6089E+02  0.6743E+02  0.7345E+03  0.7338E+03
      3.271  0.6464E+02  0.6617E+02  0.7380E+03  0.7374E+03
      3.325  0.5931E+02  0.4527E+02  0.7412E+03  0.7398E+03
      3.379  0.4437E+02  0.5392E+02  0.7436E+03  0.7427E+03
      3.433  0.6958E+02  0.7854E+02  0.7473E+03  0.7470E+03
      3.487  0.5306E+02  0.3593E+02  0.7502E+03  0.7489E+03
      3.540  0.3950E+02  0.5884E+02  0.7523E+03  0.7521E+03
      3.594  0.6022E+02  0.5707E+02  0.7555E+03  0.7551E+03
      3.648  0.4420E+02  0.4421E+02  0.7579E+03  0.7575E+03
      3.702  0.4583E+02  0.5044E+02  0.7604E+03  0.7602E+03
      3.756  0.4609E+02  0.4164E+02  0.7629E+03  0.7625E+03
      3.809  0.5346E+02  0.5041E+02  0.7657E+03  0.7652E+03
      3.863  0.6022E+02  0.6175E+02  0.7690E+03  0.7685E+03
      3.917  0.4998E+02  0.5410E+02  0.7717E+03  0.7714E+03
      3.971  0.3862E+02  0.3290E+02  0.7737E+03  0.7732E+03
      4.025  0.5207E+02  0.5597E+02  0.7765E+03  0.7762E+03
      4.078  0.3933E+02  0.4332E+02  0.7787E+03  0.7785E+03
      4.132  0.5407E+02  0.5488E+02  0.7816E+03  0.7815E+03
      4.186  0.3560E+02  0.3475E+02  0.7835E+03  0.7833E+03
      4.240  0.5587E+02  0.5089E+02  0.7865E+03  0.7861E+03
      4.294  0.8532E+02  0.8139E+02  0.7911E+03  0.7905E+03
      4.347  0.7122E+02  0.7909E+02  0.7949E+03  0.7947E+03
      4.401  0.6825E+02  0.6428E+02  0.7986E+03  0.7982E+03
      4.455  0.4849E+02  0.5218E+02  0.8012E+03  0.8010E+03
      4.509  0.7809E+02  0.7566E+02  0.8054E+03  0.8051E+03
      4.563  0.9207E+02  0.8647E+02  0.8103E+03  0.8097E+03
      4.617  0.1006E+03  0.1054E+03  0.8158E+03  0.8154E+03
      4.670  0.1006E+03  0.1017E+03  0.8212E+03  0.8209E+03
      4.724  0.9147E+02  0.9371E+02  0.8261E+03  0.8259E+03
      4.778  0.6730E+02  0.6477E+02  0.8297E+03  0.8294E+03
      4.832  0.8062E+02  0.8086E+02  0.8341E+03  0.8337E+03
      4.886  0.8189E+02  0.8163E+02  0.8385E+03  0.8381E+03
      4.939  0.9589E+02  0.8866E+02  0.8436E+03  0.8429E+03
      4.993  0.1245E+03  0.1290E+03  0.8503E+03  0.8498E+03
      5.047  0.1287E+03  0.1281E+03  0.8572E+03  0.8567E+03
      5.101  0.8078E+02  0.8668E+02  0.8616E+03  0.8614E+03
      5.155  0.4237E+02  0.3613E+02  0.8639E+03  0.8633E+03
      5.208  0.2320E+01  0.1221E+02  0.8640E+03  0.8640E+03
      5.262  0.0000E+00  0.0000E+00  0.8640E+03  0.8640E+03
      5.316  0.0000E+00  0.0000E+00  0.8640E+03  0.8640E+03
      5.370  0.0000E+00  0.0000E+00  0.8640E+03  0.8640E+03
      5.424  0.0000E+00  0.0000E+00  0.8640E+03  0.8640E+03
      5.478  0.0000E+00  0.0000E+00  0.8640E+03  0.8640E+03
      5.531  0.0000E+00  0.0000E+00  0.8640E+03  0.8640E+03
      5.585  0.0000E+00  0.0000E+00  0.8640E+03  0.8640E+03
      5.639  0.0000E+00  0.0000E+00  0.8640E+03  0.8640E+03
      5.693  0.0000E+00  0.0000E+00  0.8640E+03  0.8640E+03
      5.747  0.0000E+00  0.0000E+00  0.8640E+03  0.8640E+03
      5.800  0.0000E+00  0.0000E+00  0.8640E+03  0.8640E+03
      5.854  0.0000E+00  0.0000E+00  0.8640E+03  0.8640E+03
      5.908  0.0000E+00  0.0000E+00  0.8640E+03  0.8640E+03
