 120 120   0   0
  0.1350815E+02  0.1629300E-08  0.1629300E-08  0.8192404E-09  0.5000000E-15
  1.000000000000000E-004
  CAR 
 Si and Ge interface calculation         
      7.38173294    -15.05734010  301      4.02775430      1.00000000
    -15.057  0.0000E+00  0.0000E+00  0.0000E+00  0.0000E+00
    -14.983  0.0000E+00  0.0000E+00  0.0000E+00  0.0000E+00
    -14.908  0.0000E+00  0.0000E+00  0.0000E+00  0.0000E+00
    -14.833  0.0000E+00  0.0000E+00  0.0000E+00  0.0000E+00
    -14.758  0.0000E+00  0.0000E+00  0.0000E+00  0.0000E+00
    -14.683  0.0000E+00  0.0000E+00  0.0000E+00  0.0000E+00
    -14.609  0.0000E+00  0.0000E+00  0.0000E+00  0.0000E+00
    -14.534  0.0000E+00  0.0000E+00  0.0000E+00  0.0000E+00
    -14.459  0.0000E+00  0.0000E+00  0.0000E+00  0.0000E+00
    -14.384  0.0000E+00  0.0000E+00  0.0000E+00  0.0000E+00
    -14.309  0.0000E+00  0.0000E+00  0.0000E+00  0.0000E+00
    -14.235  0.0000E+00  0.0000E+00  0.0000E+00  0.0000E+00
    -14.160  0.0000E+00  0.0000E+00  0.0000E+00  0.0000E+00
    -14.085  0.1730E-10  0.1443E-14  0.1294E-11  0.1079E-15
    -14.010  0.2973E+01  0.2955E+01  0.2224E+00  0.2210E+00
    -13.935  0.1781E+02  0.1747E+02  0.1555E+01  0.1529E+01
    -13.861  0.4004E+01  0.7422E+00  0.1855E+01  0.1611E+01
    -13.786  0.1392E+02  0.1709E+02  0.2896E+01  0.2889E+01
    -13.711  0.1689E+02  0.1298E+02  0.4160E+01  0.3860E+01
    -13.636  0.1187E+02  0.1630E+02  0.5110E+01  0.5079E+01
    -13.561  0.1743E+02  0.1459E+02  0.6415E+01  0.6203E+01
    -13.487  0.4079E-06  0.2503E+01  0.6444E+01  0.6444E+01
    -13.412  0.8620E+01  0.6366E+01  0.7089E+01  0.6921E+01
    -13.337  0.2710E+02  0.2445E+02  0.9116E+01  0.8750E+01
    -13.262  0.1070E+02  0.1670E+02  0.1002E+02  0.1000E+02
    -13.187  0.5896E+01  0.5942E+01  0.1046E+02  0.1045E+02
    -13.113  0.1169E+02  0.1170E+02  0.1133E+02  0.1132E+02
    -13.038  0.6208E+01  0.5499E+01  0.1180E+02  0.1174E+02
    -12.963  0.2486E+02  0.2184E+02  0.1366E+02  0.1341E+02
    -12.888  0.1612E+02  0.1967E+02  0.1489E+02  0.1489E+02
    -12.813  0.2171E+02  0.2070E+02  0.1651E+02  0.1644E+02
    -12.739  0.1232E+02  0.1193E+02  0.1744E+02  0.1734E+02
    -12.664  0.4580E+01  0.5814E+01  0.1778E+02  0.1778E+02
    -12.589  0.1401E+02  0.1122E+02  0.1883E+02  0.1862E+02
    -12.514  0.1557E+02  0.1674E+02  0.2000E+02  0.1995E+02
    -12.439  0.1816E+00  0.4203E-02  0.2001E+02  0.2000E+02
    -12.365  0.2665E+02  0.2470E+02  0.2201E+02  0.2185E+02
    -12.290  0.1452E+02  0.1570E+02  0.2311E+02  0.2305E+02
    -12.215  0.4495E+01  0.8438E+00  0.2345E+02  0.2317E+02
    -12.140  0.1333E+02  0.1698E+02  0.2444E+02  0.2444E+02
    -12.065  0.1004E+02  0.4983E+01  0.2520E+02  0.2482E+02
    -11.991  0.3828E+00  0.6901E+01  0.2534E+02  0.2533E+02
    -11.916  0.1288E+02  0.1206E+02  0.2630E+02  0.2624E+02
    -11.841  0.1076E+02  0.1102E+02  0.2710E+02  0.2706E+02
    -11.766  0.1093E+02  0.8308E+01  0.2793E+02  0.2773E+02
    -11.691  0.1363E-12  0.3575E+01  0.2800E+02  0.2800E+02
    -11.617  0.2968E+01  0.2901E+01  0.2822E+02  0.2822E+02
    -11.542  0.5705E+01  0.4392E+01  0.2865E+02  0.2855E+02
    -11.467  0.1507E+00  0.1556E+01  0.2868E+02  0.2867E+02
    -11.392  0.1173E+02  0.1188E+02  0.2956E+02  0.2956E+02
    -11.317  0.1836E+02  0.1121E+02  0.3093E+02  0.3039E+02
    -11.243  0.2323E+02  0.2839E+02  0.3284E+02  0.3252E+02
    -11.168  0.3760E+01  0.7928E+01  0.3312E+02  0.3311E+02
    -11.093  0.1610E+02  0.1321E+02  0.3432E+02  0.3410E+02
    -11.018  0.2745E+02  0.2809E+02  0.3638E+02  0.3620E+02
    -10.944  0.1485E+02  0.1790E+02  0.3756E+02  0.3754E+02
    -10.869  0.5504E+01  0.3028E+01  0.3797E+02  0.3778E+02
    -10.794  0.1111E+02  0.1106E+02  0.3883E+02  0.3861E+02
    -10.719  0.1280E+02  0.9991E+01  0.3985E+02  0.3938E+02
    -10.644  0.9893E+01  0.1577E+02  0.4067E+02  0.4056E+02
    -10.570  0.1761E+02  0.1854E+02  0.4200E+02  0.4200E+02
    -10.495  0.6121E+01  0.5040E+01  0.4246E+02  0.4238E+02
    -10.420  0.5687E+01  0.5931E+01  0.4289E+02  0.4289E+02
    -10.345  0.1188E+02  0.1188E+02  0.4378E+02  0.4378E+02
    -10.270  0.1318E-01  0.1246E-03  0.4378E+02  0.4378E+02
    -10.196  0.1185E+02  0.1136E+02  0.4467E+02  0.4463E+02
    -10.121  0.7395E+01  0.6072E+01  0.4522E+02  0.4512E+02
    -10.046  0.1637E+02  0.1761E+02  0.4644E+02  0.4644E+02
     -9.971  0.1156E+02  0.9567E+01  0.4731E+02  0.4716E+02
     -9.896  0.2082E+01  0.2430E+01  0.4749E+02  0.4735E+02
     -9.822  0.1869E+02  0.1798E+02  0.4889E+02  0.4870E+02
     -9.747  0.7623E+01  0.8667E+01  0.4946E+02  0.4935E+02
     -9.672  0.2417E+02  0.2102E+02  0.5127E+02  0.5092E+02
     -9.597  0.2765E+02  0.3223E+02  0.5333E+02  0.5333E+02
     -9.522  0.1437E+02  0.1212E+02  0.5441E+02  0.5424E+02
     -9.448  0.9985E+01  0.9656E+01  0.5516E+02  0.5496E+02
     -9.373  0.2936E+02  0.2933E+02  0.5736E+02  0.5716E+02
     -9.298  0.2430E+02  0.2177E+02  0.5919E+02  0.5878E+02
     -9.223  0.1467E+02  0.1466E+02  0.6029E+02  0.5988E+02
     -9.148  0.1688E+02  0.1989E+02  0.6159E+02  0.6137E+02
     -9.074  0.3176E+02  0.2513E+02  0.6398E+02  0.6325E+02
     -8.999  0.2427E+02  0.3131E+02  0.6584E+02  0.6559E+02
     -8.924  0.1709E+02  0.2000E+02  0.6712E+02  0.6709E+02
     -8.849  0.1805E+02  0.1300E+02  0.6847E+02  0.6806E+02
     -8.774  0.1923E+02  0.2117E+02  0.7003E+02  0.6967E+02
     -8.700  0.1693E+02  0.1995E+02  0.7130E+02  0.7116E+02
     -8.625  0.1821E+02  0.1925E+02  0.7268E+02  0.7260E+02
     -8.550  0.1336E+02  0.1194E+02  0.7368E+02  0.7352E+02
     -8.475  0.3318E+02  0.3178E+02  0.7619E+02  0.7590E+02
     -8.400  0.1117E+02  0.1323E+02  0.7703E+02  0.7692E+02
     -8.326  0.2194E+02  0.2329E+02  0.7869E+02  0.7867E+02
     -8.251  0.1496E+02  0.1466E+02  0.7981E+02  0.7976E+02
     -8.176  0.1199E+02  0.1173E+02  0.8070E+02  0.8066E+02
     -8.101  0.1659E+02  0.1529E+02  0.8195E+02  0.8181E+02
     -8.026  0.4741E+01  0.4370E+01  0.8235E+02  0.8214E+02
     -7.952  0.6474E+00  0.4022E+01  0.8245E+02  0.8244E+02
     -7.877  0.1181E+02  0.1188E+02  0.8333E+02  0.8333E+02
     -7.802  0.0000E+00  0.0000E+00  0.8333E+02  0.8333E+02
     -7.727  0.2456E-02  0.4226E-04  0.8333E+02  0.8333E+02
     -7.652  0.8840E+01  0.6362E+01  0.8399E+02  0.8381E+02
     -7.578  0.3042E+01  0.5522E+01  0.8422E+02  0.8422E+02
     -7.503  0.1724E+01  0.3190E+00  0.8435E+02  0.8425E+02
     -7.428  0.4218E+01  0.5623E+01  0.8467E+02  0.8467E+02
     -7.353  0.2971E+01  0.2971E+01  0.8489E+02  0.8489E+02
     -7.278  0.5956E+01  0.5900E+01  0.8533E+02  0.8533E+02
     -7.204  0.1362E+02  0.1079E+02  0.8635E+02  0.8614E+02
     -7.129  0.7014E+01  0.9938E+01  0.8690E+02  0.8689E+02
     -7.054  0.1046E+02  0.8471E+01  0.8768E+02  0.8752E+02
     -6.979  0.7000E+01  0.8625E+01  0.8821E+02  0.8817E+02
     -6.904  0.2534E+01  0.2157E+01  0.8841E+02  0.8833E+02
     -6.830  0.1368E+02  0.1312E+02  0.8944E+02  0.8933E+02
     -6.755  0.1721E+01  0.2627E+01  0.8957E+02  0.8956E+02
     -6.680  0.9970E+01  0.8575E+01  0.9031E+02  0.9020E+02
     -6.605  0.1603E+02  0.1498E+02  0.9151E+02  0.9132E+02
     -6.530  0.1763E+02  0.1798E+02  0.9286E+02  0.9269E+02
     -6.456  0.1963E+02  0.1814E+02  0.9433E+02  0.9407E+02
     -6.381  0.3578E+02  0.3498E+02  0.9703E+02  0.9669E+02
     -6.306  0.2637E+02  0.2623E+02  0.9905E+02  0.9868E+02
     -6.231  0.3033E+02  0.3146E+02  0.1013E+03  0.1010E+03
     -6.157  0.3143E+02  0.3109E+02  0.1037E+03  0.1034E+03
     -6.082  0.1628E+02  0.1714E+02  0.1050E+03  0.1048E+03
     -6.007  0.2311E+02  0.2490E+02  0.1068E+03  0.1067E+03
     -5.932  0.3024E+02  0.2695E+02  0.1090E+03  0.1087E+03
     -5.857  0.2427E+02  0.2786E+02  0.1109E+03  0.1108E+03
     -5.783  0.3814E+02  0.3745E+02  0.1138E+03  0.1136E+03
     -5.708  0.1902E+02  0.1674E+02  0.1152E+03  0.1149E+03
     -5.633  0.3266E+02  0.3164E+02  0.1177E+03  0.1173E+03
     -5.558  0.2679E+02  0.2907E+02  0.1197E+03  0.1195E+03
     -5.483  0.2448E+02  0.2441E+02  0.1216E+03  0.1214E+03
     -5.409  0.2459E+02  0.2307E+02  0.1234E+03  0.1231E+03
     -5.334  0.2867E+02  0.2848E+02  0.1256E+03  0.1253E+03
     -5.259  0.2669E+02  0.2772E+02  0.1277E+03  0.1274E+03
     -5.184  0.3293E+02  0.3154E+02  0.1301E+03  0.1298E+03
     -5.109  0.2876E+02  0.3060E+02  0.1323E+03  0.1321E+03
     -5.035  0.2860E+02  0.2712E+02  0.1345E+03  0.1342E+03
     -4.960  0.3814E+02  0.3513E+02  0.1374E+03  0.1368E+03
     -4.885  0.3257E+02  0.3681E+02  0.1399E+03  0.1396E+03
     -4.810  0.2755E+02  0.2711E+02  0.1420E+03  0.1417E+03
     -4.735  0.1958E+02  0.2222E+02  0.1435E+03  0.1433E+03
     -4.661  0.2582E+02  0.2493E+02  0.1454E+03  0.1452E+03
     -4.586  0.2903E+02  0.2952E+02  0.1477E+03  0.1474E+03
     -4.511  0.3481E+02  0.3186E+02  0.1503E+03  0.1498E+03
     -4.436  0.3892E+02  0.4011E+02  0.1532E+03  0.1529E+03
     -4.361  0.3632E+02  0.3757E+02  0.1560E+03  0.1557E+03
     -4.287  0.3280E+02  0.3330E+02  0.1584E+03  0.1582E+03
     -4.212  0.3398E+02  0.3112E+02  0.1610E+03  0.1606E+03
     -4.137  0.2889E+02  0.3197E+02  0.1632E+03  0.1630E+03
     -4.062  0.2228E+02  0.2129E+02  0.1649E+03  0.1646E+03
     -3.987  0.2262E+02  0.2501E+02  0.1667E+03  0.1665E+03
     -3.913  0.2527E+02  0.2241E+02  0.1686E+03  0.1682E+03
     -3.838  0.3101E+02  0.3272E+02  0.1709E+03  0.1707E+03
     -3.763  0.3153E+02  0.3075E+02  0.1733E+03  0.1730E+03
     -3.688  0.3332E+02  0.3507E+02  0.1758E+03  0.1757E+03
     -3.613  0.1610E+02  0.1420E+02  0.1770E+03  0.1768E+03
     -3.539  0.2674E+02  0.2790E+02  0.1791E+03  0.1789E+03
     -3.464  0.2760E+02  0.2608E+02  0.1812E+03  0.1809E+03
     -3.389  0.3886E+02  0.3813E+02  0.1841E+03  0.1837E+03
     -3.314  0.3423E+02  0.3375E+02  0.1867E+03  0.1863E+03
     -3.239  0.2939E+02  0.3456E+02  0.1890E+03  0.1889E+03
     -3.165  0.2648E+02  0.2274E+02  0.1909E+03  0.1906E+03
     -3.090  0.3135E+02  0.3120E+02  0.1933E+03  0.1930E+03
     -3.015  0.2998E+02  0.3383E+02  0.1956E+03  0.1955E+03
     -2.940  0.1982E+02  0.1881E+02  0.1971E+03  0.1969E+03
     -2.865  0.1843E+02  0.1881E+02  0.1985E+03  0.1984E+03
     -2.791  0.1758E+02  0.1780E+02  0.1998E+03  0.1997E+03
     -2.716  0.1655E+02  0.1361E+02  0.2011E+03  0.2008E+03
     -2.641  0.2472E+02  0.2695E+02  0.2029E+03  0.2028E+03
     -2.566  0.2652E+02  0.2408E+02  0.2049E+03  0.2046E+03
     -2.491  0.3803E+02  0.3734E+02  0.2078E+03  0.2074E+03
     -2.417  0.2679E+02  0.2664E+02  0.2099E+03  0.2095E+03
     -2.342  0.3762E+02  0.3842E+02  0.2127E+03  0.2124E+03
     -2.267  0.3213E+02  0.3392E+02  0.2151E+03  0.2150E+03
     -2.192  0.3904E+02  0.3740E+02  0.2181E+03  0.2178E+03
     -2.117  0.3599E+02  0.3664E+02  0.2208E+03  0.2206E+03
     -2.043  0.3323E+02  0.3208E+02  0.2233E+03  0.2230E+03
     -1.968  0.3347E+02  0.3374E+02  0.2258E+03  0.2256E+03
     -1.893  0.3592E+02  0.3532E+02  0.2285E+03  0.2282E+03
     -1.818  0.3532E+02  0.3445E+02  0.2312E+03  0.2309E+03
     -1.743  0.3094E+02  0.2906E+02  0.2336E+03  0.2331E+03
     -1.669  0.4137E+02  0.4290E+02  0.2367E+03  0.2363E+03
     -1.594  0.4212E+02  0.4322E+02  0.2399E+03  0.2396E+03
     -1.519  0.3820E+02  0.3579E+02  0.2428E+03  0.2423E+03
     -1.444  0.5085E+02  0.4960E+02  0.2467E+03  0.2460E+03
     -1.370  0.3426E+02  0.4054E+02  0.2493E+03  0.2491E+03
     -1.295  0.4036E+02  0.3787E+02  0.2524E+03  0.2519E+03
     -1.220  0.4169E+02  0.4148E+02  0.2556E+03  0.2551E+03
     -1.145  0.3854E+02  0.4018E+02  0.2585E+03  0.2582E+03
     -1.070  0.3902E+02  0.3870E+02  0.2614E+03  0.2611E+03
     -0.996  0.3224E+02  0.3376E+02  0.2639E+03  0.2637E+03
     -0.921  0.4333E+02  0.4040E+02  0.2672E+03  0.2667E+03
     -0.846  0.4509E+02  0.4269E+02  0.2706E+03  0.2700E+03
     -0.771  0.3830E+02  0.4329E+02  0.2735E+03  0.2732E+03
     -0.696  0.4573E+02  0.4125E+02  0.2770E+03  0.2764E+03
     -0.622  0.4659E+02  0.5049E+02  0.2805E+03  0.2802E+03
     -0.547  0.2663E+02  0.2888E+02  0.2826E+03  0.2824E+03
     -0.472  0.3589E+02  0.3405E+02  0.2853E+03  0.2850E+03
     -0.397  0.3037E+02  0.2973E+02  0.2876E+03  0.2873E+03
     -0.322  0.3099E+02  0.3065E+02  0.2899E+03  0.2896E+03
     -0.248  0.3406E+02  0.3168E+02  0.2925E+03  0.2920E+03
     -0.173  0.2444E+02  0.2728E+02  0.2943E+03  0.2941E+03
     -0.098  0.3307E+02  0.3157E+02  0.2968E+03  0.2964E+03
     -0.023  0.3006E+02  0.2889E+02  0.2991E+03  0.2986E+03
      0.052  0.3155E+02  0.3295E+02  0.3015E+03  0.3011E+03
      0.126  0.3493E+02  0.3429E+02  0.3041E+03  0.3037E+03
      0.201  0.3227E+02  0.3380E+02  0.3066E+03  0.3063E+03
      0.276  0.3816E+02  0.3398E+02  0.3094E+03  0.3089E+03
      0.351  0.4903E+02  0.4876E+02  0.3131E+03  0.3126E+03
      0.426  0.2966E+02  0.3243E+02  0.3154E+03  0.3150E+03
      0.500  0.3435E+02  0.3449E+02  0.3180E+03  0.3176E+03
      0.575  0.2708E+02  0.2864E+02  0.3201E+03  0.3197E+03
      0.650  0.3781E+02  0.3842E+02  0.3230E+03  0.3226E+03
      0.725  0.3121E+02  0.3054E+02  0.3253E+03  0.3250E+03
      0.800  0.4283E+02  0.4110E+02  0.3285E+03  0.3281E+03
      0.874  0.4135E+02  0.4229E+02  0.3316E+03  0.3313E+03
      0.949  0.5121E+02  0.4839E+02  0.3355E+03  0.3349E+03
      1.024  0.3678E+02  0.4122E+02  0.3383E+03  0.3380E+03
      1.099  0.4524E+02  0.3933E+02  0.3417E+03  0.3410E+03
      1.174  0.4750E+02  0.4746E+02  0.3453E+03  0.3446E+03
      1.248  0.3095E+02  0.3599E+02  0.3477E+03  0.3474E+03
      1.323  0.3633E+02  0.3455E+02  0.3504E+03  0.3500E+03
      1.398  0.3675E+02  0.3438E+02  0.3532E+03  0.3526E+03
      1.473  0.5003E+02  0.5261E+02  0.3570E+03  0.3565E+03
      1.548  0.4213E+02  0.3845E+02  0.3601E+03  0.3595E+03
      1.622  0.4303E+02  0.4534E+02  0.3634E+03  0.3629E+03
      1.697  0.4500E+02  0.4435E+02  0.3668E+03  0.3663E+03
      1.772  0.3385E+02  0.3491E+02  0.3694E+03  0.3689E+03
      1.847  0.5193E+02  0.5025E+02  0.3733E+03  0.3727E+03
      1.922  0.4401E+02  0.4259E+02  0.3766E+03  0.3759E+03
      1.996  0.4421E+02  0.4319E+02  0.3800E+03  0.3793E+03
      2.071  0.3981E+02  0.4589E+02  0.3830E+03  0.3827E+03
      2.146  0.4775E+02  0.4448E+02  0.3866E+03  0.3861E+03
      2.221  0.4586E+02  0.3947E+02  0.3901E+03  0.3891E+03
      2.296  0.5008E+02  0.5337E+02  0.3939E+03  0.3931E+03
      2.370  0.5440E+02  0.5684E+02  0.3980E+03  0.3974E+03
      2.445  0.4632E+02  0.4341E+02  0.4015E+03  0.4007E+03
      2.520  0.5184E+02  0.5360E+02  0.4054E+03  0.4048E+03
      2.595  0.4587E+02  0.4553E+02  0.4089E+03  0.4083E+03
      2.670  0.5469E+02  0.5028E+02  0.4130E+03  0.4121E+03
      2.744  0.5443E+02  0.5306E+02  0.4172E+03  0.4161E+03
      2.819  0.4732E+02  0.4590E+02  0.4207E+03  0.4196E+03
      2.894  0.4822E+02  0.4830E+02  0.4244E+03  0.4233E+03
      2.969  0.4966E+02  0.5087E+02  0.4282E+03  0.4271E+03
      3.044  0.5803E+02  0.5952E+02  0.4326E+03  0.4316E+03
      3.118  0.5134E+02  0.5331E+02  0.4365E+03  0.4357E+03
      3.193  0.4057E+02  0.3938E+02  0.4395E+03  0.4387E+03
      3.268  0.4880E+02  0.5224E+02  0.4433E+03  0.4427E+03
      3.343  0.4449E+02  0.4611E+02  0.4466E+03  0.4462E+03
      3.417  0.4136E+02  0.3856E+02  0.4498E+03  0.4491E+03
      3.492  0.4931E+02  0.4616E+02  0.4535E+03  0.4526E+03
      3.567  0.3932E+02  0.4268E+02  0.4565E+03  0.4559E+03
      3.642  0.5081E+02  0.5076E+02  0.4603E+03  0.4597E+03
      3.717  0.5566E+02  0.5459E+02  0.4645E+03  0.4638E+03
      3.791  0.4569E+02  0.4481E+02  0.4679E+03  0.4672E+03
      3.866  0.5292E+02  0.4919E+02  0.4719E+03  0.4709E+03
      3.941  0.5112E+02  0.4950E+02  0.4758E+03  0.4746E+03
      4.016  0.4747E+02  0.5033E+02  0.4794E+03  0.4785E+03
      4.091  0.4920E+02  0.4805E+02  0.4831E+03  0.4822E+03
      4.165  0.5227E+02  0.5214E+02  0.4871E+03  0.4861E+03
      4.240  0.5170E+02  0.4677E+02  0.4910E+03  0.4897E+03
      4.315  0.5166E+02  0.5047E+02  0.4949E+03  0.4935E+03
      4.390  0.4528E+02  0.5457E+02  0.4984E+03  0.4977E+03
      4.465  0.3847E+02  0.3652E+02  0.5013E+03  0.5004E+03
      4.539  0.4230E+02  0.4283E+02  0.5045E+03  0.5036E+03
      4.614  0.3763E+02  0.3981E+02  0.5074E+03  0.5067E+03
      4.689  0.4673E+02  0.4269E+02  0.5109E+03  0.5099E+03
      4.764  0.4319E+02  0.4748E+02  0.5142E+03  0.5135E+03
      4.839  0.3945E+02  0.4277E+02  0.5172E+03  0.5168E+03
      4.913  0.3675E+02  0.3525E+02  0.5199E+03  0.5195E+03
      4.988  0.3979E+02  0.3878E+02  0.5229E+03  0.5224E+03
      5.063  0.3824E+02  0.3571E+02  0.5258E+03  0.5251E+03
      5.138  0.4573E+02  0.4659E+02  0.5293E+03  0.5287E+03
      5.213  0.4783E+02  0.4637E+02  0.5329E+03  0.5322E+03
      5.287  0.4074E+02  0.4423E+02  0.5360E+03  0.5355E+03
      5.362  0.4026E+02  0.3731E+02  0.5390E+03  0.5383E+03
      5.437  0.4726E+02  0.4843E+02  0.5426E+03  0.5420E+03
      5.512  0.4586E+02  0.4088E+02  0.5460E+03  0.5451E+03
      5.587  0.4126E+02  0.4215E+02  0.5492E+03  0.5483E+03
      5.661  0.2645E+02  0.2841E+02  0.5512E+03  0.5504E+03
      5.736  0.3208E+02  0.3290E+02  0.5536E+03  0.5529E+03
      5.811  0.3029E+02  0.3155E+02  0.5559E+03  0.5553E+03
      5.886  0.3814E+02  0.3915E+02  0.5587E+03  0.5583E+03
      5.961  0.3793E+02  0.3780E+02  0.5616E+03  0.5611E+03
      6.035  0.4564E+02  0.4527E+02  0.5650E+03  0.5645E+03
      6.110  0.4015E+02  0.3560E+02  0.5680E+03  0.5673E+03
      6.185  0.4138E+02  0.4145E+02  0.5712E+03  0.5704E+03
      6.260  0.4190E+02  0.4181E+02  0.5744E+03  0.5735E+03
      6.335  0.1952E+02  0.2695E+02  0.5759E+03  0.5756E+03
      6.409  0.1485E+01  0.5094E+01  0.5760E+03  0.5760E+03
      6.484  0.0000E+00  0.0000E+00  0.5760E+03  0.5760E+03
      6.559  0.0000E+00  0.0000E+00  0.5760E+03  0.5760E+03
      6.634  0.0000E+00  0.0000E+00  0.5760E+03  0.5760E+03
      6.709  0.0000E+00  0.0000E+00  0.5760E+03  0.5760E+03
      6.783  0.0000E+00  0.0000E+00  0.5760E+03  0.5760E+03
      6.858  0.0000E+00  0.0000E+00  0.5760E+03  0.5760E+03
      6.933  0.0000E+00  0.0000E+00  0.5760E+03  0.5760E+03
      7.008  0.0000E+00  0.0000E+00  0.5760E+03  0.5760E+03
      7.083  0.0000E+00  0.0000E+00  0.5760E+03  0.5760E+03
      7.157  0.0000E+00  0.0000E+00  0.5760E+03  0.5760E+03
      7.232  0.0000E+00  0.0000E+00  0.5760E+03  0.5760E+03
      7.307  0.0000E+00  0.0000E+00  0.5760E+03  0.5760E+03
      7.382  0.0000E+00  0.0000E+00  0.5760E+03  0.5760E+03
