Si and Ge interface calculation         
           1
    11.315600    0.000000    0.000000
     0.000000   17.891535    0.000000
     0.000000   -0.000000   11.095906
   Ge   Sn
    48    48
Direct configuration=     1
   0.94556874  0.07620380  0.00000002
   0.69556868  0.42620391  0.08062237
   0.44556868  0.77620399  0.16124472
   0.19556862  0.12620413  0.24186717
   0.94556868  0.47620416  0.32248947
   0.69556868  0.82620430  0.40311176
   0.44556874  0.07620380  0.00000002
   0.19556871  0.42620391  0.08062237
   0.94556868  0.77620399  0.16124472
   0.69556868  0.12620413  0.24186717
   0.44556868  0.47620416  0.32248947
   0.19556862  0.82620430  0.40311176
   0.07056873  0.82620394  0.00000004
   0.82056868  0.17620409  0.08062234
   0.57056868  0.52620411  0.16124466
   0.32056862  0.87620413  0.24186711
   0.07056862  0.22620416  0.32248950
   0.82056856  0.57620430  0.40311184
   0.57056874  0.82620394  0.00000004
   0.32056874  0.17620409  0.08062234
   0.07056871  0.52620411  0.16124466
   0.82056868  0.87620413  0.24186711
   0.57056868  0.22620416  0.32248950
   0.32056862  0.57620430  0.40311184
   0.94556874  0.57620382  0.00000002
   0.69556868  0.92620391  0.08062233
   0.44556868  0.27620399  0.16124473
   0.19556862  0.62620413  0.24186707
   0.94556868  0.97620416  0.32248947
   0.69556868  0.32620430  0.40311184
   0.44556874  0.57620382  0.00000002
   0.19556871  0.92620391  0.08062233
   0.94556868  0.27620399  0.16124473
   0.69556868  0.62620413  0.24186707
   0.44556868  0.97620416  0.32248947
   0.19556862  0.32620430  0.40311184
   0.07056873  0.32620382  0.00000000
   0.82056868  0.67620397  0.08062237
   0.57056868  0.02620399  0.16124472
   0.32056862  0.37620413  0.24186707
   0.07056862  0.72620416  0.32248944
   0.82056856  0.07620430  0.40311173
   0.57056874  0.32620382  0.00000000
   0.32056874  0.67620397  0.08062237
   0.07056871  0.02620399  0.16124472
   0.82056868  0.37620413  0.24186707
   0.57056868  0.72620416  0.32248944
   0.32056862  0.07620430  0.40311173
   0.93079686  0.92214650  0.40311188
   0.59746337  0.54714644  0.52248949
   0.26412994  0.17214638  0.64186704
   0.93079650  0.79714632  0.76124471
   0.59746301  0.42214620  0.88062239
   0.26412964  0.04714620  0.99999988
   0.93079686  0.42214650  0.40311188
   0.59746337  0.04714644  0.52248949
   0.26412994  0.67214638  0.64186704
   0.93079662  0.29714638  0.76124471
   0.59746301  0.92214620  0.88062239
   0.26412952  0.54714620  0.00000000
   0.18079685  0.17214648  0.40311188
   0.84746337  0.79714644  0.52248949
   0.51413000  0.42214638  0.64186704
   0.18079656  0.04714638  0.76124465
   0.84746301  0.67214620  0.88062239
   0.51412964  0.29714620  0.99999988
   0.18079685  0.67214650  0.40311188
   0.84746337  0.29714644  0.52248949
   0.51413000  0.92214638  0.64186704
   0.18079656  0.54714638  0.76124465
   0.84746301  0.17214620  0.88062239
   0.51412964  0.79714620  0.99999988
   0.93079686  0.17214650  0.40311188
   0.59746337  0.79714644  0.52248949
   0.26412994  0.42214638  0.64186704
   0.93079662  0.04714638  0.76124471
   0.59746301  0.67214620  0.88062239
   0.26412952  0.29714620  0.99999988
   0.93079686  0.67214650  0.40311188
   0.59746337  0.29714644  0.52248949
   0.26412994  0.92214638  0.64186704
   0.93079650  0.54714632  0.76124471
   0.59746301  0.17214620  0.88062239
   0.26412952  0.79714620  0.00000000
   0.18079689  0.92214644  0.40311188
   0.84746343  0.54714644  0.52248949
   0.51413000  0.17214632  0.64186704
   0.18079656  0.79714632  0.76124465
   0.84746301  0.42214620  0.88062239
   0.51412964  0.04714620  0.99999988
   0.18079689  0.42214650  0.40311188
   0.84746343  0.04714646  0.52248949
   0.51413000  0.67214644  0.64186704
   0.18079656  0.29714638  0.76124465
   0.84746301  0.92214620  0.88062239
   0.51412964  0.54714620  0.99999988
