 264 264   0   0
  0.2774202E+02  0.1958175E-08  0.1958175E-08  0.1910025E-08  0.5000000E-15
  1.000000000000000E-004
  CAR 
 Si and Ge interface calculation         
      6.63612141     -9.18750451  301      4.04207255      1.00000000
     -9.188  0.0000E+00  0.0000E+00  0.0000E+00  0.0000E+00
     -9.135  0.0000E+00  0.0000E+00  0.0000E+00  0.0000E+00
     -9.082  0.0000E+00  0.0000E+00  0.0000E+00  0.0000E+00
     -9.029  0.0000E+00  0.0000E+00  0.0000E+00  0.0000E+00
     -8.977  0.0000E+00  0.0000E+00  0.0000E+00  0.0000E+00
     -8.924  0.0000E+00  0.0000E+00  0.0000E+00  0.0000E+00
     -8.871  0.0000E+00  0.0000E+00  0.0000E+00  0.0000E+00
     -8.818  0.0000E+00  0.0000E+00  0.0000E+00  0.0000E+00
     -8.766  0.0000E+00  0.0000E+00  0.0000E+00  0.0000E+00
     -8.713  0.0000E+00  0.0000E+00  0.0000E+00  0.0000E+00
     -8.660  0.0000E+00  0.0000E+00  0.0000E+00  0.0000E+00
     -8.607  0.0000E+00  0.0000E+00  0.0000E+00  0.0000E+00
     -8.555  0.0000E+00  0.0000E+00  0.0000E+00  0.0000E+00
     -8.502  0.9712E-05  0.3307E-05  0.5123E-06  0.1744E-06
     -8.449  0.2243E+02  0.2099E+02  0.1183E+01  0.1107E+01
     -8.396  0.1549E+02  0.1693E+02  0.2000E+01  0.2000E+01
     -8.344  0.0000E+00  0.0000E+00  0.2000E+01  0.2000E+01
     -8.291  0.2290E-01  0.1117E-01  0.2001E+01  0.2001E+01
     -8.238  0.1868E+02  0.1853E+02  0.2987E+01  0.2978E+01
     -8.185  0.1271E+02  0.1220E+02  0.3657E+01  0.3621E+01
     -8.133  0.2422E+02  0.2442E+02  0.4935E+01  0.4909E+01
     -8.080  0.1072E+02  0.1119E+02  0.5500E+01  0.5500E+01
     -8.027  0.9569E+01  0.9527E+01  0.6005E+01  0.6002E+01
     -7.974  0.3770E+02  0.3762E+02  0.7993E+01  0.7987E+01
     -7.922  0.7129E+01  0.6399E+01  0.8369E+01  0.8324E+01
     -7.869  0.3614E+01  0.4019E+01  0.8560E+01  0.8536E+01
     -7.816  0.2731E+02  0.2775E+02  0.1000E+02  0.1000E+02
     -7.763  0.1885E+01  0.1271E+01  0.1010E+02  0.1007E+02
     -7.711  0.2655E+02  0.2717E+02  0.1150E+02  0.1150E+02
     -7.658  0.1032E+00  0.5457E-01  0.1151E+02  0.1150E+02
     -7.605  0.2329E+02  0.2133E+02  0.1273E+02  0.1263E+02
     -7.552  0.1824E+02  0.1932E+02  0.1370E+02  0.1365E+02
     -7.500  0.4043E+02  0.4033E+02  0.1583E+02  0.1577E+02
     -7.447  0.3270E+01  0.4291E+01  0.1600E+02  0.1600E+02
     -7.394  0.2084E+02  0.2024E+02  0.1710E+02  0.1707E+02
     -7.341  0.8763E+01  0.8936E+01  0.1756E+02  0.1754E+02
     -7.289  0.3665E+02  0.3699E+02  0.1950E+02  0.1949E+02
     -7.236  0.3166E+02  0.2971E+02  0.2117E+02  0.2106E+02
     -7.183  0.3224E+02  0.3226E+02  0.2287E+02  0.2276E+02
     -7.130  0.3953E+02  0.4103E+02  0.2495E+02  0.2492E+02
     -7.078  0.1857E+02  0.1711E+02  0.2593E+02  0.2583E+02
     -7.025  0.4861E+02  0.5010E+02  0.2849E+02  0.2847E+02
     -6.972  0.2568E+02  0.2509E+02  0.2985E+02  0.2979E+02
     -6.919  0.4077E+02  0.4183E+02  0.3200E+02  0.3200E+02
     -6.867  0.1654E+02  0.1506E+02  0.3287E+02  0.3279E+02
     -6.814  0.4034E+02  0.3970E+02  0.3500E+02  0.3489E+02
     -6.761  0.6342E+02  0.6155E+02  0.3834E+02  0.3813E+02
     -6.708  0.4142E+02  0.4403E+02  0.4053E+02  0.4045E+02
     -6.656  0.4911E+02  0.4867E+02  0.4312E+02  0.4302E+02
     -6.603  0.3051E+02  0.3057E+02  0.4473E+02  0.4463E+02
     -6.550  0.3223E+02  0.3232E+02  0.4643E+02  0.4634E+02
     -6.497  0.3939E+02  0.4099E+02  0.4851E+02  0.4850E+02
     -6.445  0.3957E+02  0.3858E+02  0.5059E+02  0.5054E+02
     -6.392  0.5511E+02  0.5475E+02  0.5350E+02  0.5342E+02
     -6.339  0.5295E+02  0.5274E+02  0.5629E+02  0.5621E+02
     -6.287  0.2762E+02  0.2637E+02  0.5775E+02  0.5760E+02
     -6.234  0.5489E+02  0.5448E+02  0.6065E+02  0.6047E+02
     -6.181  0.6399E+02  0.6442E+02  0.6402E+02  0.6387E+02
     -6.128  0.5511E+02  0.5596E+02  0.6693E+02  0.6682E+02
     -6.076  0.8170E+02  0.8173E+02  0.7124E+02  0.7113E+02
     -6.023  0.8928E+02  0.8776E+02  0.7595E+02  0.7576E+02
     -5.970  0.6016E+02  0.6069E+02  0.7912E+02  0.7896E+02
     -5.917  0.7067E+02  0.7014E+02  0.8285E+02  0.8266E+02
     -5.865  0.5854E+02  0.5927E+02  0.8593E+02  0.8579E+02
     -5.812  0.6756E+02  0.6692E+02  0.8950E+02  0.8932E+02
     -5.759  0.9171E+02  0.9191E+02  0.9434E+02  0.9416E+02
     -5.706  0.8482E+02  0.8430E+02  0.9881E+02  0.9861E+02
     -5.654  0.8116E+02  0.8094E+02  0.1031E+03  0.1029E+03
     -5.601  0.9436E+02  0.9409E+02  0.1081E+03  0.1078E+03
     -5.548  0.6432E+02  0.6624E+02  0.1115E+03  0.1113E+03
     -5.495  0.7615E+02  0.7533E+02  0.1155E+03  0.1153E+03
     -5.443  0.6275E+02  0.6061E+02  0.1188E+03  0.1185E+03
     -5.390  0.7032E+02  0.7172E+02  0.1225E+03  0.1223E+03
     -5.337  0.8452E+02  0.8584E+02  0.1270E+03  0.1268E+03
     -5.284  0.7735E+02  0.7504E+02  0.1310E+03  0.1308E+03
     -5.232  0.7362E+02  0.7563E+02  0.1349E+03  0.1348E+03
     -5.179  0.5937E+02  0.5955E+02  0.1380E+03  0.1379E+03
     -5.126  0.4890E+02  0.4834E+02  0.1406E+03  0.1405E+03
     -5.073  0.7409E+02  0.7411E+02  0.1445E+03  0.1444E+03
     -5.021  0.6961E+02  0.6927E+02  0.1482E+03  0.1480E+03
     -4.968  0.7036E+02  0.7113E+02  0.1519E+03  0.1518E+03
     -4.915  0.7342E+02  0.7309E+02  0.1558E+03  0.1556E+03
     -4.862  0.8716E+02  0.8532E+02  0.1604E+03  0.1601E+03
     -4.810  0.7893E+02  0.7774E+02  0.1645E+03  0.1642E+03
     -4.757  0.1120E+03  0.1117E+03  0.1705E+03  0.1701E+03
     -4.704  0.1230E+03  0.1232E+03  0.1769E+03  0.1766E+03
     -4.651  0.1046E+03  0.1043E+03  0.1825E+03  0.1821E+03
     -4.599  0.1005E+03  0.1025E+03  0.1878E+03  0.1875E+03
     -4.546  0.8514E+02  0.8358E+02  0.1922E+03  0.1919E+03
     -4.493  0.1106E+03  0.1098E+03  0.1981E+03  0.1977E+03
     -4.440  0.1009E+03  0.1006E+03  0.2034E+03  0.2030E+03
     -4.388  0.9236E+02  0.9105E+02  0.2083E+03  0.2078E+03
     -4.335  0.8575E+02  0.8867E+02  0.2128E+03  0.2125E+03
     -4.282  0.6460E+02  0.6539E+02  0.2162E+03  0.2160E+03
     -4.229  0.7457E+02  0.7453E+02  0.2201E+03  0.2199E+03
     -4.177  0.9851E+02  0.9638E+02  0.2253E+03  0.2250E+03
     -4.124  0.9589E+02  0.9892E+02  0.2304E+03  0.2302E+03
     -4.071  0.6762E+02  0.6615E+02  0.2340E+03  0.2337E+03
     -4.018  0.7318E+02  0.7390E+02  0.2378E+03  0.2376E+03
     -3.966  0.5717E+02  0.5865E+02  0.2408E+03  0.2407E+03
     -3.913  0.4396E+02  0.4525E+02  0.2432E+03  0.2431E+03
     -3.860  0.5574E+02  0.5469E+02  0.2461E+03  0.2459E+03
     -3.807  0.6247E+02  0.6154E+02  0.2494E+03  0.2492E+03
     -3.755  0.4706E+02  0.4888E+02  0.2519E+03  0.2518E+03
     -3.702  0.7489E+02  0.6878E+02  0.2558E+03  0.2554E+03
     -3.649  0.5410E+02  0.5818E+02  0.2587E+03  0.2585E+03
     -3.596  0.8336E+02  0.8028E+02  0.2631E+03  0.2627E+03
     -3.544  0.5409E+02  0.5580E+02  0.2659E+03  0.2656E+03
     -3.491  0.8452E+02  0.8289E+02  0.2704E+03  0.2700E+03
     -3.438  0.7016E+02  0.7300E+02  0.2741E+03  0.2739E+03
     -3.386  0.6558E+02  0.6212E+02  0.2775E+03  0.2771E+03
     -3.333  0.8441E+02  0.8665E+02  0.2820E+03  0.2817E+03
     -3.280  0.8144E+02  0.7851E+02  0.2863E+03  0.2859E+03
     -3.227  0.6902E+02  0.7335E+02  0.2899E+03  0.2897E+03
     -3.175  0.7756E+02  0.7573E+02  0.2940E+03  0.2937E+03
     -3.122  0.7524E+02  0.7450E+02  0.2980E+03  0.2976E+03
     -3.069  0.7504E+02  0.7835E+02  0.3019E+03  0.3018E+03
     -3.016  0.6598E+02  0.6366E+02  0.3054E+03  0.3051E+03
     -2.964  0.8302E+02  0.8077E+02  0.3098E+03  0.3094E+03
     -2.911  0.9517E+02  0.9657E+02  0.3148E+03  0.3145E+03
     -2.858  0.9109E+02  0.9057E+02  0.3196E+03  0.3193E+03
     -2.805  0.8257E+02  0.8440E+02  0.3240E+03  0.3237E+03
     -2.753  0.1038E+03  0.1018E+03  0.3295E+03  0.3291E+03
     -2.700  0.9250E+02  0.9500E+02  0.3343E+03  0.3341E+03
     -2.647  0.1134E+03  0.1117E+03  0.3403E+03  0.3400E+03
     -2.594  0.1021E+03  0.1014E+03  0.3457E+03  0.3453E+03
     -2.542  0.1165E+03  0.1177E+03  0.3519E+03  0.3515E+03
     -2.489  0.1032E+03  0.1034E+03  0.3573E+03  0.3570E+03
     -2.436  0.1123E+03  0.1119E+03  0.3632E+03  0.3629E+03
     -2.383  0.9825E+02  0.9945E+02  0.3684E+03  0.3681E+03
     -2.331  0.8608E+02  0.8515E+02  0.3729E+03  0.3726E+03
     -2.278  0.1050E+03  0.1053E+03  0.3785E+03  0.3782E+03
     -2.225  0.7326E+02  0.7646E+02  0.3823E+03  0.3822E+03
     -2.172  0.4451E+02  0.4536E+02  0.3847E+03  0.3846E+03
     -2.120  0.4943E+02  0.4643E+02  0.3873E+03  0.3871E+03
     -2.067  0.6929E+02  0.6887E+02  0.3910E+03  0.3907E+03
     -2.014  0.8696E+02  0.8377E+02  0.3955E+03  0.3951E+03
     -1.961  0.9169E+02  0.9448E+02  0.4004E+03  0.4001E+03
     -1.909  0.1062E+03  0.1077E+03  0.4060E+03  0.4058E+03
     -1.856  0.6325E+02  0.6280E+02  0.4093E+03  0.4091E+03
     -1.803  0.6708E+02  0.6440E+02  0.4129E+03  0.4125E+03
     -1.750  0.1055E+03  0.1077E+03  0.4184E+03  0.4182E+03
     -1.698  0.9493E+02  0.9664E+02  0.4234E+03  0.4233E+03
     -1.645  0.9623E+02  0.9660E+02  0.4285E+03  0.4284E+03
     -1.592  0.7211E+02  0.7190E+02  0.4323E+03  0.4322E+03
     -1.539  0.9527E+02  0.9489E+02  0.4373E+03  0.4372E+03
     -1.487  0.5339E+02  0.5197E+02  0.4401E+03  0.4399E+03
     -1.434  0.4633E+02  0.4642E+02  0.4426E+03  0.4423E+03
     -1.381  0.7293E+02  0.7288E+02  0.4464E+03  0.4462E+03
     -1.328  0.6055E+02  0.6129E+02  0.4496E+03  0.4494E+03
     -1.276  0.4267E+02  0.4136E+02  0.4519E+03  0.4516E+03
     -1.223  0.6003E+02  0.6112E+02  0.4550E+03  0.4548E+03
     -1.170  0.5069E+02  0.5270E+02  0.4577E+03  0.4576E+03
     -1.117  0.5519E+02  0.5355E+02  0.4606E+03  0.4604E+03
     -1.065  0.4005E+02  0.4062E+02  0.4627E+03  0.4626E+03
     -1.012  0.5936E+02  0.5760E+02  0.4659E+03  0.4656E+03
     -0.959  0.3773E+02  0.4022E+02  0.4679E+03  0.4677E+03
     -0.906  0.4147E+02  0.4037E+02  0.4701E+03  0.4699E+03
     -0.854  0.6563E+02  0.6273E+02  0.4735E+03  0.4732E+03
     -0.801  0.7184E+02  0.7311E+02  0.4773E+03  0.4770E+03
     -0.748  0.4221E+02  0.4512E+02  0.4795E+03  0.4794E+03
     -0.695  0.6878E+02  0.6489E+02  0.4832E+03  0.4828E+03
     -0.643  0.6492E+02  0.6745E+02  0.4866E+03  0.4864E+03
     -0.590  0.3832E+02  0.4058E+02  0.4886E+03  0.4885E+03
     -0.537  0.1972E+02  0.1860E+02  0.4896E+03  0.4895E+03
     -0.485  0.2940E+02  0.3064E+02  0.4912E+03  0.4911E+03
     -0.432  0.2844E+02  0.2794E+02  0.4927E+03  0.4926E+03
     -0.379  0.3534E+02  0.3359E+02  0.4946E+03  0.4944E+03
     -0.326  0.6591E+02  0.6520E+02  0.4980E+03  0.4978E+03
     -0.274  0.6667E+02  0.6807E+02  0.5015E+03  0.5014E+03
     -0.221  0.8381E+02  0.8300E+02  0.5060E+03  0.5058E+03
     -0.168  0.1064E+03  0.1056E+03  0.5116E+03  0.5114E+03
     -0.115  0.1070E+03  0.1056E+03  0.5172E+03  0.5169E+03
     -0.063  0.1214E+03  0.1228E+03  0.5236E+03  0.5234E+03
     -0.010  0.1083E+03  0.1068E+03  0.5293E+03  0.5290E+03
      0.043  0.1192E+03  0.1169E+03  0.5356E+03  0.5352E+03
      0.096  0.1266E+03  0.1303E+03  0.5423E+03  0.5421E+03
      0.148  0.1158E+03  0.1148E+03  0.5484E+03  0.5481E+03
      0.201  0.8401E+02  0.8621E+02  0.5528E+03  0.5527E+03
      0.254  0.7728E+02  0.7671E+02  0.5569E+03  0.5567E+03
      0.307  0.9288E+02  0.9146E+02  0.5618E+03  0.5615E+03
      0.359  0.7850E+02  0.8050E+02  0.5660E+03  0.5658E+03
      0.412  0.1123E+03  0.1078E+03  0.5719E+03  0.5715E+03
      0.465  0.8262E+02  0.8578E+02  0.5762E+03  0.5760E+03
      0.518  0.9710E+02  0.9576E+02  0.5814E+03  0.5810E+03
      0.570  0.1229E+03  0.1218E+03  0.5878E+03  0.5875E+03
      0.623  0.1261E+03  0.1277E+03  0.5945E+03  0.5942E+03
      0.676  0.1289E+03  0.1282E+03  0.6013E+03  0.6010E+03
      0.729  0.1539E+03  0.1527E+03  0.6094E+03  0.6090E+03
      0.781  0.1155E+03  0.1156E+03  0.6155E+03  0.6151E+03
      0.834  0.1128E+03  0.1166E+03  0.6215E+03  0.6213E+03
      0.887  0.1093E+03  0.1065E+03  0.6272E+03  0.6269E+03
      0.940  0.1166E+03  0.1185E+03  0.6334E+03  0.6331E+03
      0.992  0.1110E+03  0.1099E+03  0.6392E+03  0.6389E+03
      1.045  0.1192E+03  0.1169E+03  0.6455E+03  0.6451E+03
      1.098  0.1660E+03  0.1651E+03  0.6543E+03  0.6538E+03
      1.151  0.1698E+03  0.1687E+03  0.6632E+03  0.6627E+03
      1.203  0.1753E+03  0.1736E+03  0.6725E+03  0.6719E+03
      1.256  0.1727E+03  0.1760E+03  0.6816E+03  0.6811E+03
      1.309  0.1841E+03  0.1810E+03  0.6913E+03  0.6907E+03
      1.362  0.1926E+03  0.1961E+03  0.7014E+03  0.7010E+03
      1.414  0.1444E+03  0.1455E+03  0.7091E+03  0.7087E+03
      1.467  0.1456E+03  0.1443E+03  0.7167E+03  0.7163E+03
      1.520  0.2132E+03  0.2101E+03  0.7280E+03  0.7274E+03
      1.573  0.1815E+03  0.1805E+03  0.7376E+03  0.7369E+03
      1.625  0.1943E+03  0.1967E+03  0.7478E+03  0.7473E+03
      1.678  0.1791E+03  0.1784E+03  0.7573E+03  0.7567E+03
      1.731  0.1733E+03  0.1746E+03  0.7664E+03  0.7659E+03
      1.784  0.2039E+03  0.2039E+03  0.7772E+03  0.7767E+03
      1.836  0.1696E+03  0.1703E+03  0.7861E+03  0.7857E+03
      1.889  0.1357E+03  0.1357E+03  0.7933E+03  0.7928E+03
      1.942  0.2118E+03  0.2051E+03  0.8044E+03  0.8036E+03
      1.995  0.1867E+03  0.1929E+03  0.8143E+03  0.8138E+03
      2.047  0.1763E+03  0.1730E+03  0.8236E+03  0.8229E+03
      2.100  0.1854E+03  0.1832E+03  0.8334E+03  0.8326E+03
      2.153  0.2082E+03  0.2089E+03  0.8443E+03  0.8436E+03
      2.206  0.1393E+03  0.1422E+03  0.8517E+03  0.8511E+03
      2.258  0.1796E+03  0.1817E+03  0.8612E+03  0.8607E+03
      2.311  0.1495E+03  0.1483E+03  0.8690E+03  0.8685E+03
      2.364  0.1694E+03  0.1652E+03  0.8780E+03  0.8772E+03
      2.416  0.1883E+03  0.1907E+03  0.8879E+03  0.8873E+03
      2.469  0.1295E+03  0.1340E+03  0.8947E+03  0.8944E+03
      2.522  0.1436E+03  0.1429E+03  0.9023E+03  0.9019E+03
      2.575  0.1513E+03  0.1477E+03  0.9103E+03  0.9097E+03
      2.627  0.1251E+03  0.1283E+03  0.9169E+03  0.9165E+03
      2.680  0.1352E+03  0.1352E+03  0.9240E+03  0.9236E+03
      2.733  0.1380E+03  0.1316E+03  0.9313E+03  0.9305E+03
      2.786  0.1647E+03  0.1736E+03  0.9400E+03  0.9397E+03
      2.838  0.1307E+03  0.1210E+03  0.9469E+03  0.9461E+03
      2.891  0.1499E+03  0.1549E+03  0.9548E+03  0.9542E+03
      2.944  0.1059E+03  0.1031E+03  0.9604E+03  0.9597E+03
      2.997  0.1199E+03  0.1201E+03  0.9667E+03  0.9660E+03
      3.049  0.1403E+03  0.1377E+03  0.9741E+03  0.9733E+03
      3.102  0.1080E+03  0.1137E+03  0.9798E+03  0.9793E+03
      3.155  0.1093E+03  0.1077E+03  0.9856E+03  0.9849E+03
      3.208  0.1205E+03  0.1183E+03  0.9919E+03  0.9912E+03
      3.260  0.1043E+03  0.1049E+03  0.9974E+03  0.9967E+03
      3.313  0.1105E+03  0.1095E+03  0.1003E+04  0.1002E+04
      3.366  0.1013E+03  0.1050E+03  0.1009E+04  0.1008E+04
      3.419  0.5323E+02  0.5778E+02  0.1011E+04  0.1011E+04
      3.471  0.9785E+02  0.9275E+02  0.1017E+04  0.1016E+04
      3.524  0.1013E+03  0.1027E+03  0.1022E+04  0.1021E+04
      3.577  0.8200E+02  0.7686E+02  0.1026E+04  0.1025E+04
      3.630  0.9252E+02  0.1000E+03  0.1031E+04  0.1031E+04
      3.682  0.7054E+02  0.6966E+02  0.1035E+04  0.1034E+04
      3.735  0.5273E+02  0.5692E+02  0.1038E+04  0.1037E+04
      3.788  0.5927E+02  0.5382E+02  0.1041E+04  0.1040E+04
      3.841  0.3715E+02  0.4120E+02  0.1043E+04  0.1042E+04
      3.893  0.3486E+02  0.3602E+02  0.1045E+04  0.1044E+04
      3.946  0.7074E+02  0.6415E+02  0.1048E+04  0.1048E+04
      3.999  0.5908E+02  0.5575E+02  0.1051E+04  0.1051E+04
      4.052  0.1070E+03  0.9981E+02  0.1057E+04  0.1056E+04
      4.104  0.1142E+03  0.1198E+03  0.1063E+04  0.1062E+04
      4.157  0.8924E+02  0.8886E+02  0.1068E+04  0.1067E+04
      4.210  0.6830E+02  0.7619E+02  0.1071E+04  0.1071E+04
      4.263  0.9866E+02  0.8360E+02  0.1077E+04  0.1075E+04
      4.315  0.1231E+03  0.1259E+03  0.1083E+04  0.1082E+04
      4.368  0.1305E+03  0.1321E+03  0.1090E+04  0.1089E+04
      4.421  0.1157E+03  0.1157E+03  0.1096E+04  0.1095E+04
      4.474  0.1133E+03  0.1203E+03  0.1102E+04  0.1101E+04
      4.526  0.1089E+03  0.1120E+03  0.1108E+04  0.1107E+04
      4.579  0.1027E+03  0.9947E+02  0.1113E+04  0.1113E+04
      4.632  0.1148E+03  0.1133E+03  0.1119E+04  0.1119E+04
      4.685  0.1014E+03  0.1020E+03  0.1125E+04  0.1124E+04
      4.737  0.1351E+03  0.1304E+03  0.1132E+04  0.1131E+04
      4.790  0.8807E+02  0.9497E+02  0.1136E+04  0.1136E+04
      4.843  0.1277E+03  0.1249E+03  0.1143E+04  0.1142E+04
      4.896  0.1198E+03  0.1260E+03  0.1149E+04  0.1149E+04
      4.948  0.1136E+03  0.1073E+03  0.1155E+04  0.1155E+04
      5.001  0.1198E+03  0.1210E+03  0.1162E+04  0.1161E+04
      5.054  0.1268E+03  0.1263E+03  0.1168E+04  0.1168E+04
      5.107  0.1262E+03  0.1301E+03  0.1175E+04  0.1175E+04
      5.159  0.1115E+03  0.1059E+03  0.1181E+04  0.1180E+04
      5.212  0.1069E+03  0.1121E+03  0.1187E+04  0.1186E+04
      5.265  0.1046E+03  0.1041E+03  0.1192E+04  0.1192E+04
      5.317  0.9410E+02  0.9407E+02  0.1197E+04  0.1197E+04
      5.370  0.1303E+03  0.1326E+03  0.1204E+04  0.1204E+04
      5.423  0.1306E+03  0.1282E+03  0.1211E+04  0.1210E+04
      5.476  0.1222E+03  0.1199E+03  0.1217E+04  0.1217E+04
      5.528  0.1766E+03  0.1770E+03  0.1227E+04  0.1226E+04
      5.581  0.1387E+03  0.1405E+03  0.1234E+04  0.1233E+04
      5.634  0.1262E+03  0.1260E+03  0.1241E+04  0.1240E+04
      5.687  0.1302E+03  0.1325E+03  0.1247E+04  0.1247E+04
      5.739  0.1095E+03  0.1106E+03  0.1253E+04  0.1253E+04
      5.792  0.1156E+03  0.1119E+03  0.1259E+04  0.1259E+04
      5.845  0.1184E+03  0.1208E+03  0.1266E+04  0.1265E+04
      5.898  0.1050E+03  0.1043E+03  0.1271E+04  0.1271E+04
      5.950  0.1734E+02  0.2682E+02  0.1272E+04  0.1272E+04
      6.003  0.0000E+00  0.0000E+00  0.1272E+04  0.1272E+04
      6.056  0.0000E+00  0.0000E+00  0.1272E+04  0.1272E+04
      6.109  0.0000E+00  0.0000E+00  0.1272E+04  0.1272E+04
      6.161  0.0000E+00  0.0000E+00  0.1272E+04  0.1272E+04
      6.214  0.0000E+00  0.0000E+00  0.1272E+04  0.1272E+04
      6.267  0.0000E+00  0.0000E+00  0.1272E+04  0.1272E+04
      6.320  0.0000E+00  0.0000E+00  0.1272E+04  0.1272E+04
      6.372  0.0000E+00  0.0000E+00  0.1272E+04  0.1272E+04
      6.425  0.0000E+00  0.0000E+00  0.1272E+04  0.1272E+04
      6.478  0.0000E+00  0.0000E+00  0.1272E+04  0.1272E+04
      6.531  0.0000E+00  0.0000E+00  0.1272E+04  0.1272E+04
      6.583  0.0000E+00  0.0000E+00  0.1272E+04  0.1272E+04
      6.636  0.0000E+00  0.0000E+00  0.1272E+04  0.1272E+04
